Title
55513
    1DOPE     N    1   5.209   5.148   9.087 -0.1789  0.0301 -0.0589
    1DOPE   HN1    2   5.229   5.244   9.123 -2.0424  0.0488  1.0645
    1DOPE   HN2    3   5.285   5.085   9.117 -1.9927 -2.3019 -0.0928
    1DOPE   HN3    4   5.217   5.164   8.985 -0.7533 -0.7825 -0.2392
    1DOPE   C12    5   5.068   5.110   9.130 -0.3207  1.0645  0.0309
    1DOPE  H12A    6   5.056   5.114   9.240  2.6785  0.7496  0.4707
    1DOPE  H12B    7   5.036   5.007   9.102 -0.8393  0.9105  1.1372
    1DOPE   C11    8   4.964   5.208   9.070 -0.6788 -0.3051 -0.0861
    1DOPE  H11A    9   5.006   5.310   9.084  0.3842 -0.6855 -0.3529
    1DOPE  H11B   10   4.869   5.207   9.126 -0.5938 -1.2955  0.0611
    1DOPE     P   11   5.024   5.247   8.808  0.2404 -0.0069  0.0137
    1DOPE   O13   12   4.974   5.190   8.680 -0.1956  0.2577 -0.1039
    1DOPE   O14   13   5.167   5.231   8.841  0.3950  0.2452  0.3410
    1DOPE   O11   14   4.987   5.400   8.806  0.1619 -0.1870  0.0306
    1DOPE   O12   15   4.937   5.187   8.927  1.1265  0.2486  0.5030
    1DOPE    C1   16   4.853   5.450   8.835 -0.3655  1.2228  0.4105
    1DOPE    HA   17   4.846   5.558   8.813  0.7208  1.2791  0.3011
    1DOPE    HB   18   4.835   5.441   8.944 -0.2562  1.6631  0.4654
    1DOPE    C2   19   4.725   5.373   8.776 -0.4946  0.4118 -0.3636
    1DOPE    HS   20   4.724   5.269   8.813  1.0554  0.6954  0.5708
    1DOPE   O21   21   4.743   5.369   8.631 -0.0318 -0.3044  0.3506
    1DOPE   C21   22   4.699   5.262   8.567 -0.4700  0.5759 -0.7047
    1DOPE   O22   23   4.638   5.172   8.629  0.0695 -0.6440 -0.1145
    1DOPE   C22   24   4.724   5.270   8.422 -0.6455  0.5492 -0.0421
    1DOPE   H2R   25   4.832   5.256   8.397 -0.4371 -0.2245  1.2151
    1DOPE   H2S   26   4.686   5.369   8.388 -0.2887  0.2522 -1.3532
    1DOPE    C3   27   4.591   5.449   8.815  0.4576  0.5909  0.3290
    1DOPE    HX   28   4.614   5.552   8.781 -0.4968 -0.2497 -3.3295
    1DOPE    HY   29   4.582   5.459   8.925 -1.0874  0.4433  0.2332
    1DOPE   O31   30   4.477   5.388   8.748  0.3221  0.4266 -0.2571
    1DOPE   C31   31   4.419   5.281   8.819 -0.9381  0.5031  0.1008
    1DOPE   O32   32   4.460   5.248   8.932  0.6010  0.2422  0.1536
    1DOPE   C32   33   4.325   5.209   8.730  0.1121 -0.4423  0.6096
    1DOPE   H2X   34   4.379   5.116   8.701 -0.0752 -0.5560  0.6158
    1DOPE   H2Y   35   4.229   5.178   8.778  0.6020 -3.6597 -0.2527
    1DOPE   C23   36   4.644   5.173   8.328  0.5352 -0.7975 -0.9459
    1DOPE   H3R   37   4.552   5.141   8.380  1.4308 -1.7591  0.1122
    1DOPE   H3S   38   4.700   5.079   8.308  1.0323 -0.6045 -0.4847
    1DOPE   C24   39   4.630   5.244   8.184 -0.4105  0.7071 -0.4170
    1DOPE   H4R   40   4.727   5.265   8.134 -1.1859  3.1277 -1.0326
    1DOPE   H4S   41   4.580   5.342   8.204 -1.2288  0.2508 -0.1900
    1DOPE   C25   42   4.549   5.155   8.083  0.3199 -0.2600  0.0486
    1DOPE   H5R   43   4.448   5.127   8.118  0.8287 -0.0560  1.8013
    1DOPE   H5S   44   4.606   5.060   8.069  0.3351 -0.4061  1.0366
    1DOPE   C26   45   4.532   5.225   7.947  0.2086 -0.4613 -0.2421
    1DOPE   H6R   46   4.628   5.262   7.904 -0.7410  2.0602 -0.3733
    1DOPE   H6S   47   4.473   5.315   7.974  1.5614 -0.2358  2.2330
    1DOPE   C27   48   4.450   5.157   7.836  0.2905 -0.3036 -0.1275
    1DOPE   H7R   49   4.349   5.141   7.878 -0.8355  0.1881 -2.4788
    1DOPE   H7S   50   4.506   5.061   7.828  0.0156 -0.5809  1.1292
    1DOPE   C28   51   4.439   5.234   7.701 -0.9934  0.4070 -0.0207
    1DOPE   H8R   52   4.540   5.232   7.653 -0.8115 -3.4769  0.1805
    1DOPE   H8S   53   4.405   5.339   7.712 -0.2776  0.6209  0.1891
    1DOPE   C29   54   4.341   5.156   7.622 -0.1750 -0.4500  0.9317
    1DOPE   H9R   55   4.328   5.058   7.670  0.9404 -0.0524  2.0865
    1DOPE  C210   56   4.264   5.180   7.517  0.3425 -0.0491  0.7694
    1DOPE  H10R   57   4.199   5.101   7.477  0.6123  1.0187 -2.0190
    1DOPE  C211   58   4.273   5.310   7.439  0.4596 -0.2664  0.5064
    1DOPE  H11R   59   4.364   5.369   7.459 -0.6971  1.0222  2.3584
    1DOPE  H11S   60   4.188   5.378   7.463  0.6007  0.0787  0.0201
    1DOPE  C212   61   4.271   5.277   7.291  0.7574  0.1856 -0.2921
    1DOPE  H12R   62   4.284   5.368   7.229  1.7226 -0.1187 -0.5587
    1DOPE  H12S   63   4.175   5.235   7.256 -0.4008  3.0158 -0.7993
    1DOPE  C213   64   4.389   5.191   7.242 -0.1326  0.3737 -1.1374
    1DOPE  H13R   65   4.367   5.084   7.260 -0.4152  0.5198 -0.5752
    1DOPE  H13S   66   4.475   5.211   7.309  0.1770 -1.3713 -0.9842
    1DOPE  C214   67   4.428   5.228   7.099 -0.2077  0.9870  0.1568
    1DOPE  H14R   68   4.502   5.157   7.056 -2.2020 -0.9568 -0.2325
    1DOPE  H14S   69   4.466   5.332   7.108 -0.1163  0.9774 -0.1019
    1DOPE  C215   70   4.312   5.232   6.998  0.1405  0.2738 -0.3216
    1DOPE  H15R   71   4.351   5.286   6.909  1.2691 -0.1906 -0.1204
    1DOPE  H15S   72   4.231   5.299   7.034 -2.6379 -3.5601  1.1682
    1DOPE  C216   73   4.259   5.097   6.948  0.6855 -0.6317 -0.1861
    1DOPE  H16R   74   4.225   5.046   7.041 -0.3909 -1.4606 -1.0170
    1DOPE  H16S   75   4.347   5.051   6.898 -0.3059  0.0081 -2.6549
    1DOPE  C217   76   4.147   5.096   6.840  0.8340 -0.4533 -0.3240
    1DOPE  H17R   77   4.049   5.129   6.882  1.7793  1.4389  0.5116
    1DOPE  H17S   78   4.129   4.993   6.803 -0.5203 -0.7224  0.9547
    1DOPE  C218   79   4.176   5.185   6.720  0.4064  0.1661 -0.1364
    1DOPE  H18R   80   4.283   5.191   6.694  0.3405 -1.0654 -0.7485
    1DOPE  H18S   81   4.129   5.284   6.740 -2.3984 -0.6341 -2.0322
    1DOPE  H18T   82   4.130   5.148   6.625  0.8555  2.3174 -1.2557
    1DOPE   C33   83   4.299   5.278   8.586  0.0764 -0.3763  0.5493
    1DOPE   H3X   84   4.394   5.324   8.550  0.0828  0.9117  2.1406
    1DOPE   H3Y   85   4.224   5.359   8.593  0.3088  0.0947 -1.6185
    1DOPE   C34   86   4.242   5.181   8.484  0.3320  0.0203 -0.1388
    1DOPE   H4X   87   4.306   5.091   8.472 -1.2804 -1.1619 -0.2179
    1DOPE   H4Y   88   4.139   5.153   8.517 -0.7638  0.2246 -3.0806
    1DOPE   C35   89   4.242   5.243   8.343  0.0844 -0.1762  0.0239
    1DOPE   H5X   90   4.346   5.261   8.307  1.1905 -1.1374  2.5379
    1DOPE   H5Y   91   4.194   5.343   8.346 -1.6813 -0.9739 -0.1390
    1DOPE   C36   92   4.165   5.160   8.240  0.0264  0.4474  0.5709
    1DOPE   H6X   93   4.061   5.149   8.280 -1.0056  0.1621 -1.9924
    1DOPE   H6Y   94   4.207   5.057   8.243  0.2599  0.4906 -0.8101
    1DOPE   C37   95   4.153   5.208   8.092  0.1475  0.4622 -0.3941
    1DOPE   H7X   96   4.102   5.306   8.078 -2.3162 -0.3202  2.2644
    1DOPE   H7Y   97   4.253   5.230   8.049  1.2305  1.5213  2.3857
    1DOPE   C38   98   4.093   5.095   7.999  0.5898  0.1606 -0.2275
    1DOPE   H8X   99   4.089   5.131   7.894 -1.3771 -2.7145 -1.2710
    1DOPE   H8Y  100   3.986   5.088   8.026  0.9136  1.0089  1.4372
    1DOPE   C39  101   4.156   4.955   7.997 -0.5603  0.7457 -0.3805
    1DOPE   H9X  102   4.249   4.954   8.056 -1.1987  1.1858  0.6647
    1DOPE  C310  103   4.100   4.843   7.947  0.4309 -0.2100  0.9867
    1DOPE  H10X  104   4.146   4.744   7.953 -1.3158 -1.0383  1.5551
    1DOPE  C311  105   3.957   4.841   7.882 -0.8798  0.3251 -0.4249
    1DOPE  H11X  106   3.906   4.757   7.934  0.6596  0.6246  1.6795
    1DOPE  H11Y  107   3.892   4.929   7.906 -0.8156 -0.3448  2.6904
    1DOPE  C312  108   3.961   4.822   7.734 -0.3470  0.2921 -0.8850
    1DOPE  H12X  109   4.039   4.748   7.707  0.8542  1.2048 -0.0212
    1DOPE  H12Y  110   3.990   4.917   7.683  1.0671 -0.4342 -1.4977
    1DOPE  C313  111   3.828   4.783   7.672  0.6045 -0.3698  0.6274
    1DOPE  H13X  112   3.782   4.710   7.742  0.3839 -1.3086 -0.4681
    1DOPE  H13Y  113   3.764   4.874   7.669  3.4501  1.7378 -1.2781
    1DOPE  C314  114   3.855   4.728   7.532  1.0452  0.5985  0.6686
    1DOPE  H14X  115   3.752   4.710   7.494 -0.0289  0.0698  3.5322
    1DOPE  H14Y  116   3.913   4.635   7.546 -0.0687 -0.6130 -2.0981
    1DOPE  C315  117   3.934   4.818   7.440 -0.3326  0.3631  0.1543
    1DOPE  H15X  118   4.039   4.830   7.472 -0.1857  0.1503 -0.2395
    1DOPE  H15Y  119   3.885   4.917   7.453 -2.5324 -0.6546  0.0325
    1DOPE  C316  120   3.927   4.783   7.290  0.6654  0.9757 -0.1951
    1DOPE  H16X  121   3.821   4.764   7.263  1.1147  0.4985 -1.6967
    1DOPE  H16Y  122   3.989   4.694   7.269 -0.8669  0.5835 -3.7145
    1DOPE  C317  123   3.973   4.895   7.199  0.1180  0.0196  0.3054
    1DOPE  H17X  124   3.917   4.987   7.229  0.4433  0.6275 -0.8838
    1DOPE  H17Y  125   4.077   4.925   7.225  0.8783 -1.5876 -0.7221
    1DOPE  C318  126   3.951   4.878   7.051  0.2022  0.5386  0.5072
    1DOPE  H18X  127   4.012   4.793   7.015 -0.4961 -1.8322  4.3353
    1DOPE  H18Y  128   3.845   4.864   7.023  0.3765  0.9245 -0.3879
    1DOPE  H18Z  129   3.979   4.958   6.979  0.2282 -2.2300 -2.7901
    2DOPE     N  130   5.808   5.270   8.349  0.2020 -0.2959 -0.1809
    2DOPE   HN1  131   5.802   5.367   8.312  2.7315 -0.1424 -0.3715
    2DOPE   HN2  132   5.817   5.210   8.264 -1.2058  0.9647 -1.2647
    2DOPE   HN3  133   5.729   5.237   8.408 -0.3379  3.0097  1.1186
    2DOPE   C12  134   5.942   5.246   8.422  0.0815 -0.4349 -0.5254
    2DOPE  H12A  135   6.019   5.248   8.342  0.6614  0.6179  0.0487
    2DOPE  H12B  136   5.942   5.148   8.475  2.4010  0.1101  0.6160
    2DOPE   C11  137   5.970   5.358   8.524  0.2016  0.1317 -0.0721
    2DOPE  H11A  138   6.051   5.319   8.590  0.5450  2.4431  0.9585
    2DOPE  H11B  139   5.880   5.381   8.585  1.5783 -1.0746  2.6202
    2DOPE     P  140   6.063   5.606   8.528  0.3119  0.0415  0.4302
    2DOPE   O13  141   6.208   5.602   8.548 -0.4974 -0.0771 -0.3336
    2DOPE   O14  142   5.976   5.623   8.652  0.0544  0.4569  0.5156
    2DOPE   O11  143   6.038   5.721   8.421  0.3466  0.2105 -0.2402
    2DOPE   O12  144   6.019   5.472   8.454  0.3050 -0.0650  0.0582
    2DOPE    C1  145   5.923   5.800   8.438 -0.0340 -0.7649 -0.8427
    2DOPE    HA  146   5.951   5.902   8.403  1.7134 -0.6058  0.8165
    2DOPE    HB  147   5.909   5.824   8.546 -0.1014  1.1746 -1.2476
    2DOPE    C2  148   5.794   5.742   8.380 -0.3555  0.7884  0.2431
    2DOPE    HS  149   5.761   5.648   8.430  1.1559 -0.7418 -1.5186
    2DOPE   O21  150   5.805   5.740   8.238 -0.4099 -0.2865 -0.6449
    2DOPE   C21  151   5.771   5.629   8.181 -0.5531  0.7799  0.2871
    2DOPE   O22  152   5.748   5.520   8.241  0.0898 -0.0632  0.3298
    2DOPE   C22  153   5.776   5.649   8.030  0.1147  0.3700  0.0992
    2DOPE   H2R  154   5.885   5.664   8.010  0.6084 -0.6181  1.8599
    2DOPE   H2S  155   5.723   5.745   8.012  1.2536  1.6247  2.8799
    2DOPE    C3  156   5.678   5.832   8.415  0.3474 -0.4980 -0.1796
    2DOPE    HX  157   5.698   5.934   8.377 -0.1150 -0.6637 -0.8915
    2DOPE    HY  158   5.679   5.843   8.526  0.2934 -0.0636 -0.2203
    2DOPE   O31  159   5.551   5.777   8.377 -0.1387 -0.1347 -0.5824
    2DOPE   C31  160   5.489   5.824   8.269 -0.7035  0.1204  0.1011
    2DOPE   O32  161   5.543   5.907   8.193  0.3155 -0.1282 -0.6365
    2DOPE   C32  162   5.351   5.757   8.253 -0.6149 -0.1278 -0.2501
    2DOPE   H2X  163   5.382   5.652   8.272  0.4234  0.3649  0.8632
    2DOPE   H2Y  164   5.299   5.796   8.343 -0.3131  1.7093 -0.8282
    2DOPE   C23  165   5.723   5.528   7.957  0.1128  0.2964  0.5312
    2DOPE   H3R  166   5.614   5.525   7.978  0.0601  0.3581  0.2791
    2DOPE   H3S  167   5.765   5.432   7.995  0.2100  0.2148  0.2254
    2DOPE   C24  168   5.736   5.541   7.802 -0.9269  0.5533  0.0712
    2DOPE   H4R  169   5.671   5.459   7.765  1.3417 -2.0170  1.4135
    2DOPE   H4S  170   5.838   5.520   7.764 -1.0655 -2.2776  1.0730
    2DOPE   C25  171   5.697   5.674   7.739 -0.1373 -0.0731 -0.3438
    2DOPE   H5R  172   5.730   5.768   7.789  1.2047 -1.3228  1.2389
    2DOPE   H5S  173   5.587   5.678   7.753  0.0752 -0.1018  1.6094
    2DOPE   C26  174   5.724   5.684   7.593 -0.7785 -0.2324  0.0281
    2DOPE   H6R  175   5.833   5.702   7.584 -0.9948  1.1995  0.0704
    2DOPE   H6S  176   5.667   5.767   7.546  2.5805  1.2908 -1.7082
    2DOPE   C27  177   5.689   5.553   7.514 -0.3026  0.1902 -0.2530
    2DOPE   H7R  178   5.590   5.516   7.549  0.6563 -2.7653 -0.3351
    2DOPE   H7S  179   5.761   5.476   7.550 -0.5419 -0.8939 -2.0027
    2DOPE   C28  180   5.697   5.579   7.365 -0.0445 -0.2450 -0.2542
    2DOPE   H8R  181   5.724   5.492   7.302  2.0337  0.2203 -0.0579
    2DOPE   H8S  182   5.773   5.658   7.348  0.6513 -0.8876 -0.1841
    2DOPE   C29  183   5.572   5.635   7.303  0.2159  0.1275  0.2666
    2DOPE   H9R  184   5.523   5.722   7.348 -0.6327 -0.9850  1.5968
    2DOPE  C210  185   5.513   5.573   7.197 -0.5784 -0.6087  0.0223
    2DOPE  H10R  186   5.418   5.615   7.159 -0.6132  1.1026  1.8035
    2DOPE  C211  187   5.547   5.445   7.121 -0.3393 -0.4270 -0.3849
    2DOPE  H11R  188   5.456   5.402   7.075 -1.4291 -2.1608  3.0886
    2DOPE  H11S  189   5.569   5.365   7.194 -0.8030 -0.6879 -0.5269
    2DOPE  C212  190   5.649   5.455   7.003  0.4311 -0.3418 -0.2336
    2DOPE  H12R  191   5.686   5.352   6.984 -2.7188 -1.2850 -2.0042
    2DOPE  H12S  192   5.732   5.517   7.040 -0.6886  0.6792  0.6437
    2DOPE  C213  193   5.596   5.509   6.871 -0.4162 -0.2073 -0.8310
    2DOPE  H13R  194   5.569   5.616   6.884 -1.6876 -0.4376 -1.4007
    2DOPE  H13S  195   5.506   5.457   6.831  0.1882 -2.3287  0.3983
    2DOPE  C214  196   5.700   5.510   6.760 -0.2300 -0.0026  0.2576
    2DOPE  H14R  197   5.728   5.405   6.737 -0.1921  0.2289 -0.7720
    2DOPE  H14S  198   5.791   5.568   6.789 -0.8864  1.0871  0.1704
    2DOPE  C215  199   5.636   5.579   6.640 -0.2965  0.4543  0.2965
    2DOPE  H15R  200   5.617   5.686   6.660 -1.9972  0.9100 -2.9549
    2DOPE  H15S  201   5.536   5.537   6.615 -1.7250  2.8742  1.6200
    2DOPE  C216  202   5.717   5.564   6.511 -0.1701  0.5031 -0.0232
    2DOPE  H16R  203   5.704   5.459   6.480  0.7961  0.5918 -0.7863
    2DOPE  H16S  204   5.825   5.583   6.525 -0.1663  2.3596 -1.9990
    2DOPE  C217  205   5.661   5.644   6.388  0.0150 -0.3172 -0.4117
    2DOPE  H17R  206   5.645   5.749   6.419 -0.9534 -0.8159  0.8605
    2DOPE  H17S  207   5.564   5.607   6.351 -0.7146  1.2201 -0.0967
    2DOPE  C218  208   5.750   5.638   6.263 -0.4731  0.1458 -0.0900
    2DOPE  H18R  209   5.743   5.536   6.221  0.4052  0.0685 -0.0716
    2DOPE  H18S  210   5.858   5.661   6.274 -0.7794  1.3947  0.6028
    2DOPE  H18T  211   5.708   5.705   6.184 -3.0581 -2.0183 -0.7061
    2DOPE   C33  212   5.279   5.788   8.124  0.0319 -0.2166 -0.0359
    2DOPE   H3X  213   5.267   5.897   8.107 -0.2250 -0.0618  1.0445
    2DOPE   H3Y  214   5.172   5.760   8.137 -0.2509  1.3961  1.4696
    2DOPE   C34  215   5.338   5.728   7.996  0.4244  0.1342  0.2552
    2DOPE   H4X  216   5.422   5.797   7.973 -3.0802  4.5689 -0.6948
    2DOPE   H4Y  217   5.366   5.624   8.021 -0.5287 -0.4067 -0.8359
    2DOPE   C35  218   5.230   5.746   7.889  0.1231  0.4454 -0.5233
    2DOPE   H5X  219   5.214   5.855   7.873 -1.2991  0.3915  0.3660
    2DOPE   H5Y  220   5.135   5.703   7.927  0.0088  0.4732 -0.7797
    2DOPE   C36  221   5.256   5.673   7.760  0.1043 -0.3394 -0.2833
    2DOPE   H6X  222   5.241   5.566   7.785  0.3612 -0.6769 -1.5266
    2DOPE   H6Y  223   5.360   5.686   7.724  0.1773  1.9943  0.5660
    2DOPE   C37  224   5.161   5.708   7.647 -0.4798 -0.1483  0.8186
    2DOPE   H7X  225   5.055   5.692   7.674 -0.2688 -1.1247  1.1016
    2DOPE   H7Y  226   5.167   5.818   7.632 -0.8261 -0.2420 -0.0358
    2DOPE   C38  227   5.190   5.624   7.526  0.7078  0.1330 -1.0596
    2DOPE   H8X  228   5.135   5.528   7.531 -1.5986  1.1181 -4.4141
    2DOPE   H8Y  229   5.299   5.605   7.523  1.1564  1.9643  0.9054
    2DOPE   C39  230   5.144   5.693   7.398 -0.4036  0.2981  0.0237
    2DOPE   H9X  231   5.227   5.752   7.355  1.4348 -0.8928  1.7948
    2DOPE  C310  232   5.025   5.677   7.339 -0.0614 -0.2925 -0.4036
    2DOPE  H10X  233   5.012   5.726   7.241 -0.9599  0.0618 -0.1130
    2DOPE  C311  234   4.899   5.595   7.374 -0.1770 -0.7217 -0.9388
    2DOPE  H11X  235   4.929   5.515   7.445 -1.5664  0.5947  1.2526
    2DOPE  H11Y  236   4.831   5.652   7.441 -0.4959  0.4606 -2.2098
    2DOPE  C312  237   4.836   5.537   7.246  0.1487  0.1023  0.5577
    2DOPE  H12X  238   4.757   5.465   7.277 -1.6445  0.6857 -2.3269
    2DOPE  H12Y  239   4.909   5.480   7.184 -1.0695 -0.6188 -0.2501
    2DOPE  C313  240   4.763   5.633   7.149  0.6583  0.0114 -0.3280
    2DOPE  H13X  241   4.712   5.696   7.225  1.3149 -0.2799  0.3664
    2DOPE  H13Y  242   4.830   5.707   7.101  1.0826 -1.2375 -1.7230
    2DOPE  C314  243   4.666   5.580   7.044 -0.3268 -0.2096 -0.4177
    2DOPE  H14X  244   4.601   5.659   7.001  1.9530  1.5660 -0.7561
    2DOPE  H14Y  245   4.615   5.489   7.082  1.0148 -0.6916  0.2952
    2DOPE  C315  246   4.740   5.545   6.915 -0.1659  0.7831 -0.1518
    2DOPE  H15X  247   4.812   5.463   6.936  0.6326  1.4672 -0.1370
    2DOPE  H15Y  248   4.801   5.627   6.872  0.3449  1.0615  1.0385
    2DOPE  C316  249   4.651   5.489   6.801 -0.1528 -0.0050  0.0291
    2DOPE  H16X  250   4.595   5.411   6.857 -0.0327  0.4931  0.8649
    2DOPE  H16Y  251   4.710   5.442   6.720  1.3400 -0.9658  1.5999
    2DOPE  C317  252   4.554   5.594   6.744 -0.0379  1.3080  0.0430
    2DOPE  H17X  253   4.498   5.642   6.827 -0.3012 -0.6230  1.0516
    2DOPE  H17Y  254   4.604   5.666   6.676 -2.1731  0.0598 -3.1208
    2DOPE  C318  255   4.445   5.528   6.669  0.2185 -0.3966  0.1636
    2DOPE  H18X  256   4.398   5.446   6.728 -0.2037  1.0495  1.9366
    2DOPE  H18Y  257   4.361   5.591   6.632 -0.3986 -1.7961 -0.9367
    2DOPE  H18Z  258   4.486   5.492   6.573 -0.9938 -0.3294 -0.3996
    3DOPE     N  259   4.112   6.664   9.277  0.6593  0.4163 -0.3726
    3DOPE   HN1  260   4.164   6.745   9.237  3.3040  0.0713  2.0162
    3DOPE   HN2  261   4.075   6.690   9.370 -2.4771 -0.3421 -1.2896
    3DOPE   HN3  262   4.184   6.590   9.292  0.5982 -0.1898 -2.6363
    3DOPE   C12  263   3.992   6.609   9.202 -0.2884 -0.2951  0.2962
    3DOPE  H12A  264   3.912   6.684   9.218 -0.7074 -0.6344 -0.1837
    3DOPE  H12B  265   3.968   6.512   9.251  1.2010 -0.4635  0.7568
    3DOPE   C11  266   4.010   6.611   9.052  0.1189  0.0723  0.8718
    3DOPE  H11A  267   3.915   6.588   9.001  0.0541 -0.1277  1.0809
    3DOPE  H11B  268   4.075   6.527   9.020  1.7146  2.1312 -1.7044
    3DOPE     P  269   3.970   6.858   8.973  0.3230  0.4429 -0.4546
    3DOPE   O13  270   4.060   6.971   8.949 -0.0026  0.2545 -0.3507
    3DOPE   O14  271   3.870   6.872   9.083  0.1413 -0.4568  0.3473
    3DOPE   O11  272   3.898   6.832   8.847  0.3865  0.4543  0.3408
    3DOPE   O12  273   4.059   6.733   9.003  0.1622 -0.1551 -0.0222
    3DOPE    C1  274   3.945   6.753   8.743  0.2828 -0.1072 -0.0858
    3DOPE    HA  275   3.855   6.711   8.693  0.2411 -0.2218  0.0868
    3DOPE    HB  276   4.000   6.664   8.781  1.3697  0.7969  0.5209
    3DOPE    C2  277   4.022   6.841   8.638  0.3880 -0.4706  0.7483
    3DOPE    HS  278   4.038   6.791   8.540  0.1892  2.6606 -1.0276
    3DOPE   O21  279   4.146   6.885   8.696 -0.0777 -0.8012  0.2073
    3DOPE   C21  280   4.245   6.793   8.711 -0.5558 -0.1195 -0.1815
    3DOPE   O22  281   4.238   6.671   8.688 -0.1373  0.5507 -0.0101
    3DOPE   C22  282   4.372   6.867   8.765  0.7051  0.3928 -0.3367
    3DOPE   H2R  283   4.397   6.848   8.872  3.2847  0.4519 -0.8653
    3DOPE   H2S  284   4.355   6.974   8.739 -0.7021  0.1186 -0.5890
    3DOPE    C3  285   3.941   6.967   8.598 -0.7586  0.4206  0.2992
    3DOPE    HX  286   3.988   7.021   8.513 -0.3947 -1.1842 -0.5411
    3DOPE    HY  287   3.929   7.039   8.683  0.7510  1.4093 -0.2942
    3DOPE   O31  288   3.803   6.935   8.561  0.5506 -0.2252 -0.3482
    3DOPE   C31  289   3.784   6.895   8.437  0.5956 -0.4522 -0.3990
    3DOPE   O32  290   3.866   6.883   8.349 -0.3518 -0.4297 -0.3708
    3DOPE   C32  291   3.634   6.877   8.419  0.0306 -0.5681  0.3115
    3DOPE   H2X  292   3.629   6.809   8.331  3.4126 -0.1653 -0.3299
    3DOPE   H2Y  293   3.595   6.821   8.506  0.8512 -0.1973  0.9330
    3DOPE   C23  294   4.504   6.837   8.676  0.4449  0.0004  0.3242
    3DOPE   H3R  295   4.544   6.737   8.702  1.1330 -0.0618 -0.9168
    3DOPE   H3S  296   4.588   6.907   8.695  0.5274  0.2835 -0.9708
    3DOPE   C24  297   4.470   6.842   8.523  0.0297  0.3709 -0.0109
    3DOPE   H4R  298   4.381   6.780   8.503 -0.1615  0.7603 -0.3993
    3DOPE   H4S  299   4.552   6.794   8.465  0.3033 -0.7184  1.2377
    3DOPE   C25  300   4.438   6.982   8.462  0.1360  0.3087 -0.6218
    3DOPE   H5R  301   4.512   7.062   8.485  1.1597 -0.4098 -1.3082
    3DOPE   H5S  302   4.344   7.006   8.515  0.7615 -0.0097  0.6523
    3DOPE   C26  303   4.392   6.971   8.318 -0.0146 -0.2206  0.2958
    3DOPE   H6R  304   4.475   6.926   8.260 -0.0303 -0.1141  0.1905
    3DOPE   H6S  305   4.373   7.075   8.283 -0.4252  0.7737  3.2031
    3DOPE   C27  306   4.264   6.894   8.303 -0.5090  0.0321  1.0498
    3DOPE   H7R  307   4.182   6.937   8.364 -1.4418 -1.3666  0.8260
    3DOPE   H7S  308   4.268   6.791   8.344 -1.5614 -0.0076  1.0852
    3DOPE   C28  309   4.216   6.877   8.156  0.0254 -0.2272 -0.2664
    3DOPE   H8R  310   4.207   6.979   8.113  1.3809 -0.5766 -1.4447
    3DOPE   H8S  311   4.117   6.829   8.161 -0.7118  1.3271  0.9406
    3DOPE   C29  312   4.305   6.794   8.066 -0.2649 -0.2921 -0.4412
    3DOPE   H9R  313   4.412   6.814   8.078  0.2630 -3.4551  1.6053
    3DOPE  C210  314   4.265   6.706   7.979 -0.3250  0.8272  0.0535
    3DOPE  H10R  315   4.333   6.658   7.908 -1.5035  0.5400 -0.9122
    3DOPE  C211  316   4.118   6.680   7.947 -0.6547 -0.3930  0.1765
    3DOPE  H11R  317   4.059   6.684   8.041  1.3484  2.4213  1.4540
    3DOPE  H11S  318   4.105   6.577   7.908  1.4790 -0.8869  0.6559
    3DOPE  C212  319   4.063   6.776   7.840 -0.2655 -0.1547  0.5984
    3DOPE  H12R  320   4.101   6.880   7.846 -2.1543  0.6577 -0.7036
    3DOPE  H12S  321   3.953   6.782   7.844 -0.3492 -0.8388 -0.3546
    3DOPE  C213  322   4.088   6.725   7.697 -0.3781 -0.4463  0.7964
    3DOPE  H13R  323   4.106   6.615   7.694  2.1065 -0.0872 -0.5959
    3DOPE  H13S  324   4.191   6.759   7.672 -1.2114 -0.1687 -2.6736
    3DOPE  C214  325   3.984   6.764   7.598 -0.1335  0.4810 -0.9358
    3DOPE  H14R  326   3.965   6.874   7.604 -1.9497  0.1455  0.8769
    3DOPE  H14S  327   3.886   6.721   7.627  0.9459 -0.2484  1.9670
    3DOPE  C215  328   4.033   6.730   7.460  0.7987 -0.5082 -0.1256
    3DOPE  H15R  329   3.962   6.725   7.375 -0.4102 -2.5331  0.9428
    3DOPE  H15S  330   4.071   6.626   7.470 -2.0066 -1.5496  0.6370
    3DOPE  C216  331   4.151   6.823   7.405  0.3682  0.5581 -0.2894
    3DOPE  H16R  332   4.246   6.787   7.452 -0.5292 -1.0938  0.3778
    3DOPE  H16S  333   4.134   6.932   7.416 -0.6704  0.3523  0.3197
    3DOPE  C217  334   4.163   6.786   7.254 -0.5238  0.5007  0.1210
    3DOPE  H17R  335   4.068   6.811   7.201  0.9030  2.6938 -1.5543
    3DOPE  H17S  336   4.174   6.676   7.246 -1.7067  0.4920 -1.9704
    3DOPE  C218  337   4.282   6.858   7.192  0.2336 -0.1859 -0.2286
    3DOPE  H18R  338   4.310   6.813   7.094  0.1091 -0.5553 -0.0955
    3DOPE  H18S  339   4.375   6.833   7.246  1.0397  1.4561 -0.7863
    3DOPE  H18T  340   4.260   6.967   7.197  1.5228  0.1352 -1.0221
    3DOPE   C33  341   3.551   7.003   8.411  0.3888 -0.1938 -0.0124
    3DOPE   H3X  342   3.570   7.058   8.316 -1.6065 -0.3194 -0.5281
    3DOPE   H3Y  343   3.572   7.072   8.495  0.0043  0.3469 -0.3503
    3DOPE   C34  344   3.408   6.961   8.411  0.2233 -0.6641 -0.5723
    3DOPE   H4X  345   3.385   6.868   8.353  0.4677 -0.5655 -0.8313
    3DOPE   H4Y  346   3.382   6.921   8.511 -1.0992  1.5686  0.0428
    3DOPE   C35  347   3.307   7.066   8.362 -0.8382  1.1016 -0.2548
    3DOPE   H5X  348   3.318   7.096   8.255 -0.7740  3.3781  0.3514
    3DOPE   H5Y  349   3.330   7.157   8.420 -0.4114  0.6512  0.2927
    3DOPE   C36  350   3.166   7.020   8.378  0.8139  0.6093 -0.1275
    3DOPE   H6X  351   3.098   7.108   8.375  0.4377  0.3544  0.7712
    3DOPE   H6Y  352   3.143   6.984   8.480  0.2410  0.9287 -0.1388
    3DOPE   C37  353   3.109   6.923   8.274  0.7627 -0.4920  0.3661
    3DOPE   H7X  354   3.152   6.962   8.179  0.6745  0.0367  0.5365
    3DOPE   H7Y  355   3.147   6.819   8.281  0.9078 -0.3535  2.0859
    3DOPE   C38  356   2.964   6.926   8.284  0.3328  0.2507 -0.0603
    3DOPE   H8X  357   2.919   7.023   8.251 -1.6305 -0.4716  0.3781
    3DOPE   H8Y  358   2.942   6.907   8.391 -0.9321 -0.4749 -0.4274
    3DOPE   C39  359   2.915   6.817   8.187  0.0554  0.1441 -0.6281
    3DOPE   H9X  360   2.961   6.717   8.186 -1.5226 -0.6560  1.1095
    3DOPE  C310  361   2.816   6.837   8.102 -0.2665  0.0102  0.4609
    3DOPE  H10X  362   2.792   6.750   8.040  1.0137  0.1649 -0.3027
    3DOPE  C311  363   2.724   6.958   8.096 -0.2215 -0.0776  0.7651
    3DOPE  H11X  364   2.726   7.015   8.190 -0.1766 -1.0449  1.3641
    3DOPE  H11Y  365   2.771   7.015   8.013 -1.2564 -0.5334 -0.1819
    3DOPE  C312  366   2.575   6.936   8.056  0.5503 -0.6976 -0.2552
    3DOPE  H12X  367   2.542   7.040   8.038  1.2400  0.1392  2.7186
    3DOPE  H12Y  368   2.519   6.903   8.147 -1.2261  1.5802 -0.4259
    3DOPE  C313  369   2.559   6.847   7.933 -0.0578 -0.6307 -0.7268
    3DOPE  H13X  370   2.635   6.860   7.852 -1.5532  0.8744 -1.9770
    3DOPE  H13Y  371   2.573   6.744   7.969  0.2352 -0.0494  0.8861
    3DOPE  C314  372   2.418   6.863   7.870  0.6407 -0.5663  0.1619
    3DOPE  H14X  373   2.388   6.778   7.804  2.0711 -0.4770 -0.6445
    3DOPE  H14Y  374   2.403   6.956   7.811 -0.0882 -0.0831  1.0805
    3DOPE  C315  375   2.307   6.867   7.972 -0.0987  0.2689  0.3098
    3DOPE  H15X  376   2.307   6.970   8.012 -0.4044  0.4061 -0.0347
    3DOPE  H15Y  377   2.317   6.798   8.058  2.3531  0.0836 -0.0625
    3DOPE  C316  378   2.164   6.852   7.906  0.2523  0.4116  0.0921
    3DOPE  H16X  379   2.165   6.756   7.850 -1.6269  2.2454 -3.3788
    3DOPE  H16Y  380   2.144   6.939   7.840 -1.4733  0.8273  1.1025
    3DOPE  C317  381   2.044   6.858   8.008 -0.1768 -0.4649  0.2063
    3DOPE  H17X  382   2.081   6.796   8.092 -1.2226  0.8158  1.6616
    3DOPE  H17Y  383   2.034   6.959   8.053 -1.5307  0.3233 -1.7407
    3DOPE  C318  384   1.907   6.797   7.965 -0.1922  0.0586 -0.1597
    3DOPE  H18X  385   1.872   6.855   7.877 -0.2800  0.1150 -0.0870
    3DOPE  H18Y  386   1.924   6.692   7.933  0.3432  0.6174 -1.7918
    3DOPE  H18Z  387   1.823   6.804   8.037 -1.2625  1.9907 -1.5176
    4DOPE     N  388   6.195   3.969   7.829 -0.3022 -0.2581 -0.2623
    4DOPE   HN1  389   6.126   4.041   7.803  0.9921  1.2317  0.2326
    4DOPE   HN2  390   6.281   4.021   7.802  0.1537  0.3793  2.1338
    4DOPE   HN3  391   6.179   3.881   7.776 -1.2671  0.5099 -1.2839
    4DOPE   C12  392   6.202   3.937   7.977  0.1636 -0.4555  0.2945
    4DOPE  H12A  393   6.241   4.028   8.026  2.4128 -1.4626  0.5011
    4DOPE  H12B  394   6.273   3.853   7.997  2.8159  1.6700  0.2814
    4DOPE   C11  395   6.060   3.913   8.027  0.0379 -0.6676 -0.0901
    4DOPE  H11A  396   6.064   3.867   8.128 -0.0611 -2.0933 -0.7207
    4DOPE  H11B  397   6.013   3.836   7.964  2.6286 -2.9526  0.5743
    4DOPE     P  398   5.841   4.040   8.081 -0.1654  0.2614 -0.1407
    4DOPE   O13  399   5.795   4.178   8.100  0.5106  0.0088 -0.3208
    4DOPE   O14  400   5.821   3.939   8.189 -0.4438 -0.2208 -0.3653
    4DOPE   O11  401   5.764   3.975   7.963 -0.2347 -0.5636  0.1392
    4DOPE   O12  402   5.984   4.034   8.029 -0.3738 -0.2604  0.2666
    4DOPE    C1  403   5.683   4.045   7.874  0.5750  0.0703  0.1875
    4DOPE    HA  404   5.614   4.117   7.923 -0.9617 -2.0675  1.3120
    4DOPE    HB  405   5.618   3.977   7.816  1.2645  1.7167 -2.7011
    4DOPE    C2  406   5.768   4.114   7.762  0.0732 -0.4807 -0.5842
    4DOPE    HS  407   5.846   4.181   7.804 -3.1080  2.3419  1.3333
    4DOPE   O21  408   5.663   4.183   7.682 -0.2466  0.4191 -0.2907
    4DOPE   C21  409   5.691   4.303   7.656  0.1336 -0.5653 -0.2621
    4DOPE   O22  410   5.790   4.365   7.684 -0.5910 -0.3201  0.0328
    4DOPE   C22  411   5.589   4.369   7.563 -0.0973  0.4835  0.1279
    4DOPE   H2R  412   5.596   4.478   7.582  0.4841  0.5774 -0.6049
    4DOPE   H2S  413   5.490   4.325   7.585 -0.6068  1.9220  0.8612
    4DOPE    C3  414   5.824   4.011   7.668 -0.2311  0.0129  0.4755
    4DOPE    HX  415   5.739   3.946   7.637  0.2523  1.0148 -3.4835
    4DOPE    HY  416   5.893   3.941   7.719 -0.7879 -1.3306 -0.5311
    4DOPE   O31  417   5.871   4.072   7.541  0.9776  0.2693  0.1631
    4DOPE   C31  418   5.998   4.062   7.525 -0.4532 -0.0073  0.6800
    4DOPE   O32  419   6.071   3.984   7.587 -0.6273 -0.0176  0.1378
    4DOPE   C32  420   6.044   4.167   7.422 -0.1966  0.2665  0.0884
    4DOPE   H2X  421   6.040   4.270   7.464 -0.3035  0.4614 -0.3976
    4DOPE   H2Y  422   6.153   4.144   7.417 -0.2459 -0.2093  1.0226
    4DOPE   C23  423   5.633   4.361   7.416  0.0116  0.2065 -0.0879
    4DOPE   H3R  424   5.684   4.267   7.385  2.5820  1.2486  0.7192
    4DOPE   H3S  425   5.702   4.444   7.392  0.1634  0.1667  0.2087
    4DOPE   C24  426   5.509   4.395   7.325  0.0388  0.0030  0.2127
    4DOPE   H4R  427   5.462   4.495   7.329 -1.1946 -0.3142 -3.0430
    4DOPE   H4S  428   5.425   4.327   7.353  2.3026 -2.8087  0.6969
    4DOPE   C25  429   5.541   4.380   7.176 -0.0922 -0.3419 -0.2523
    4DOPE   H5R  430   5.533   4.277   7.137 -0.0766  0.1042 -1.4882
    4DOPE   H5S  431   5.646   4.415   7.164 -0.2512  0.7317  1.2385
    4DOPE   C26  432   5.458   4.473   7.083 -1.0495  0.6732  0.5656
    4DOPE   H6R  433   5.467   4.575   7.126 -0.4071  1.4295 -1.2736
    4DOPE   H6S  434   5.354   4.435   7.086 -0.7867 -0.2821 -1.2394
    4DOPE   C27  435   5.518   4.475   6.941  0.2036 -0.7820 -0.4477
    4DOPE   H7R  436   5.533   4.368   6.914 -3.3118 -1.5118 -0.0351
    4DOPE   H7S  437   5.621   4.517   6.951  0.0424 -0.2979 -0.8118
    4DOPE   C28  438   5.427   4.537   6.834  0.1266 -0.2735  0.2757
    4DOPE   H8R  439   5.495   4.576   6.755 -1.7714  2.1857 -0.2781
    4DOPE   H8S  440   5.392   4.635   6.875  3.2820  1.3181 -0.4717
    4DOPE   C29  441   5.326   4.442   6.775  0.2091  0.1476 -0.9088
    4DOPE   H9R  442   5.368   4.354   6.724 -0.0456  0.0979 -1.0311
    4DOPE  C210  443   5.192   4.457   6.777  0.0279  0.5527 -1.0943
    4DOPE  H10R  444   5.132   4.374   6.736 -0.1705  0.8021 -1.3090
    4DOPE  C211  445   5.111   4.562   6.845 -0.8558 -0.4020 -0.3991
    4DOPE  H11R  446   5.171   4.609   6.926  0.5767  0.1972 -1.7478
    4DOPE  H11S  447   5.027   4.517   6.901  0.8679 -0.8537  2.0001
    4DOPE  C212  448   5.062   4.675   6.755 -0.3253 -0.0566  0.0207
    4DOPE  H12R  449   4.989   4.739   6.808 -0.3902 -0.3609  0.3041
    4DOPE  H12S  450   5.006   4.640   6.665 -0.2485  0.9875 -0.4514
    4DOPE  C213  451   5.184   4.765   6.708  0.5778 -0.1668 -0.4699
    4DOPE  H13R  452   5.248   4.701   6.643 -0.6086  1.1221 -3.0688
    4DOPE  H13S  453   5.248   4.812   6.785  0.8471  1.1648 -1.4718
    4DOPE  C214  454   5.142   4.867   6.611 -0.2452  0.0277  0.0005
    4DOPE  H14R  455   5.062   4.927   6.659 -1.9694 -0.8384 -1.6686
    4DOPE  H14S  456   5.085   4.808   6.537 -0.3109  1.3606 -1.0451
    4DOPE  C215  457   5.253   4.951   6.552 -0.0405  0.5858  0.0926
    4DOPE  H15R  458   5.218   5.014   6.468 -0.5242 -3.0142 -2.6889
    4DOPE  H15S  459   5.332   4.897   6.495 -0.6549  0.8912 -1.0877
    4DOPE  C216  460   5.312   5.046   6.655 -0.1329 -0.6459  0.2808
    4DOPE  H16R  461   5.363   4.986   6.734  2.2171  0.1175 -0.5828
    4DOPE  H16S  462   5.230   5.104   6.702 -0.3370  2.2857 -3.2748
    4DOPE  C217  463   5.409   5.145   6.603 -0.1990  1.1371  0.2266
    4DOPE  H17R  464   5.367   5.232   6.547 -1.2105  0.8965  0.5945
    4DOPE  H17S  465   5.469   5.084   6.531  1.4662  1.3850  1.3405
    4DOPE  C218  466   5.497   5.205   6.714 -0.2001 -0.3241  0.5655
    4DOPE  H18R  467   5.436   5.271   6.780  0.4541 -1.6865  2.6115
    4DOPE  H18S  468   5.565   5.270   6.654 -1.5134  1.1495  0.6184
    4DOPE  H18T  469   5.557   5.131   6.770  0.8375  0.5930  0.7076
    4DOPE   C33  470   5.965   4.159   7.288 -0.0960  0.0562 -0.4795
    4DOPE   H3X  471   5.857   4.183   7.300 -0.5236 -1.6151 -0.7303
    4DOPE   H3Y  472   5.965   4.053   7.255  2.1808 -0.0233 -0.3700
    4DOPE   C34  473   6.024   4.246   7.173  0.6380  0.1335 -0.0728
    4DOPE   H4X  474   5.980   4.347   7.191 -3.0249 -1.1919 -0.6748
    4DOPE   H4Y  475   6.134   4.244   7.189  0.5404 -0.0639  0.6109
    4DOPE   C35  476   5.976   4.203   7.033  0.1778  0.3401  0.0392
    4DOPE   H5X  477   6.016   4.101   7.015  1.8338  0.8011  0.8614
    4DOPE   H5Y  478   6.025   4.275   6.964 -0.7351 -0.1632 -1.1558
    4DOPE   C36  479   5.829   4.203   7.013  0.0275 -0.1672  0.0955
    4DOPE   H6X  480   5.793   4.307   6.997 -0.3412 -0.6967 -3.5398
    4DOPE   H6Y  481   5.780   4.153   7.100  0.2271  1.0766  0.9392
    4DOPE   C37  482   5.773   4.138   6.888  0.0031 -0.2795  0.4856
    4DOPE   H7X  483   5.794   4.029   6.882  0.5065 -0.1746  0.2726
    4DOPE   H7Y  484   5.664   4.158   6.884  0.0164  0.2646  2.0292
    4DOPE   C38  485   5.831   4.199   6.750  0.1405 -0.2827  0.4726
    4DOPE   H8X  486   5.941   4.185   6.750  0.1618 -0.1496  0.9103
    4DOPE   H8Y  487   5.811   4.308   6.749  0.1484 -0.2380 -2.3240
    4DOPE   C39  488   5.778   4.137   6.632 -0.2249  0.4075  0.9191
    4DOPE   H9X  489   5.792   4.028   6.625 -1.7325  0.2575 -0.4708
    4DOPE  C310  490   5.687   4.184   6.543 -0.0892 -0.5178  0.0840
    4DOPE  H10X  491   5.632   4.111   6.482  0.6513 -0.6845 -0.4005
    4DOPE  C311  492   5.632   4.326   6.554 -0.3654 -0.3240  0.0830
    4DOPE  H11X  493   5.575   4.347   6.647 -0.6381  2.1065 -0.5739
    4DOPE  H11Y  494   5.718   4.396   6.558 -0.1518 -0.6439  1.7307
    4DOPE  C312  495   5.540   4.359   6.433  0.3925 -0.0158  0.1007
    4DOPE  H12X  496   5.459   4.285   6.417 -0.0104  0.0522  1.6724
    4DOPE  H12Y  497   5.598   4.351   6.338 -1.1909  0.4693 -0.9493
    4DOPE  C313  498   5.484   4.499   6.427  0.0417  0.2452 -0.5097
    4DOPE  H13X  499   5.410   4.503   6.509 -0.8096 -0.3390 -1.2288
    4DOPE  H13Y  500   5.563   4.575   6.441 -0.6411  1.0207 -0.7774
    4DOPE  C314  501   5.397   4.528   6.304 -1.0558  0.1497 -0.4846
    4DOPE  H14X  502   5.315   4.454   6.306 -0.6876 -0.2671 -0.5848
    4DOPE  H14Y  503   5.465   4.517   6.216 -0.1276  1.1563  0.0833
    4DOPE  C315  504   5.336   4.671   6.306  0.1776  0.4206  0.1020
    4DOPE  H15X  505   5.277   4.691   6.398  0.1923  0.2225  0.1553
    4DOPE  H15Y  506   5.258   4.669   6.227  1.0563 -0.4946 -0.7674
    4DOPE  C316  507   5.446   4.772   6.278 -0.1669 -1.1740 -0.4699
    4DOPE  H16X  508   5.512   4.782   6.367 -3.6145 -0.2633  2.1999
    4DOPE  H16Y  509   5.393   4.869   6.283 -0.9179 -1.6297  1.0878
    4DOPE  C317  510   5.525   4.769   6.149 -0.4290 -0.0001  0.7070
    4DOPE  H17X  511   5.592   4.857   6.135 -1.2822  0.5651  0.0304
    4DOPE  H17Y  512   5.595   4.683   6.150 -0.4123  0.0053  0.2338
    4DOPE  C318  513   5.442   4.769   6.016  0.2220  0.0274 -0.2806
    4DOPE  H18X  514   5.394   4.867   5.995  2.5629  0.7603 -2.9358
    4DOPE  H18Y  515   5.524   4.753   5.942  1.6341 -0.4330  1.3279
    4DOPE  H18Z  516   5.372   4.684   6.005  2.6756 -2.1054 -0.2550
    5DOPE     N  517   2.180   4.460   8.915 -0.2172  0.2698 -1.0793
    5DOPE   HN1  518   2.192   4.484   8.815  2.1618  1.6255 -0.5454
    5DOPE   HN2  519   2.236   4.375   8.937  0.4860  1.5769  3.1517
    5DOPE   HN3  520   2.081   4.447   8.944  0.2136 -0.9047 -0.0323
    5DOPE   C12  521   2.253   4.564   8.993 -0.3680  0.1602 -0.0686
    5DOPE  H12A  522   2.247   4.541   9.101  0.2685  0.7794  0.1020
    5DOPE  H12B  523   2.199   4.659   8.974 -0.8961 -0.2709 -0.8102
    5DOPE   C11  524   2.399   4.570   8.937  0.8992  0.5038 -0.5261
    5DOPE  H11A  525   2.392   4.584   8.827  0.2471 -0.7118 -0.6585
    5DOPE  H11B  526   2.441   4.468   8.952  3.3517  1.5379  0.1343
    5DOPE     P  527   2.499   4.816   8.971 -0.2169 -0.0812  0.3759
    5DOPE   O13  528   2.489   4.909   9.088  0.5696 -0.0940  0.5418
    5DOPE   O14  529   2.406   4.835   8.855 -0.1149  0.1590  0.2316
    5DOPE   O11  530   2.652   4.818   8.916 -0.0112  0.1923 -0.4282
    5DOPE   O12  531   2.478   4.661   9.012  0.1748 -0.2854 -0.5802
    5DOPE    C1  532   2.727   4.704   8.888 -0.0136 -0.6927  0.1348
    5DOPE    HA  533   2.674   4.612   8.921 -0.3721 -0.2756  0.7515
    5DOPE    HB  534   2.809   4.714   8.963  0.1689  0.4969 -0.1971
    5DOPE    C2  535   2.767   4.689   8.740  0.4602 -0.3345  0.4364
    5DOPE    HS  536   2.832   4.601   8.723  0.5023 -0.2430  0.1122
    5DOPE   O21  537   2.830   4.808   8.696  0.4912 -0.2709  0.2539
    5DOPE   C21  538   2.948   4.835   8.735  0.8579  0.0068 -0.7734
    5DOPE   O22  539   3.010   4.766   8.820 -0.1868  0.3094 -0.5681
    5DOPE   C22  540   2.998   4.963   8.668  0.3512  0.2787  0.3066
    5DOPE   H2R  541   3.039   5.031   8.746  3.6382 -0.3543 -0.7057
    5DOPE   H2S  542   2.916   5.018   8.618  1.3393  0.3978 -1.2286
    5DOPE    C3  543   2.636   4.659   8.654  0.4151  0.1420  0.2769
    5DOPE    HX  544   2.565   4.735   8.692  0.8450 -0.5825  2.6682
    5DOPE    HY  545   2.593   4.560   8.681  0.6369 -0.8652 -2.6672
    5DOPE   O31  546   2.658   4.670   8.511 -0.2074 -0.0194 -0.0700
    5DOPE   C31  547   2.607   4.779   8.458  0.2262  0.0673  0.5048
    5DOPE   O32  548   2.569   4.876   8.516 -0.1033 -0.2295 -0.3493
    5DOPE   C32  549   2.595   4.767   8.309 -0.6541  0.5319 -1.1344
    5DOPE   H2X  550   2.522   4.687   8.285  1.2454 -1.1768 -1.5391
    5DOPE   H2Y  551   2.557   4.863   8.267 -2.8159 -0.1566 -0.8442
    5DOPE   C23  552   3.110   4.934   8.567  0.3267  0.2982  0.2085
    5DOPE   H3R  553   3.084   4.856   8.492  0.5506  0.3026  0.1227
    5DOPE   H3S  554   3.189   4.888   8.631  1.2986 -1.2167 -1.9811
    5DOPE   C24  555   3.165   5.060   8.516  0.5068  0.2484 -0.1338
    5DOPE   H4R  556   3.200   5.129   8.596  0.4153  2.1009 -1.6177
    5DOPE   H4S  557   3.084   5.122   8.471  2.1614  2.5652 -0.0884
    5DOPE   C25  558   3.278   5.051   8.413  0.5515 -0.1173 -0.9735
    5DOPE   H5R  559   3.233   4.989   8.332  1.6986 -2.4661  0.1023
    5DOPE   H5S  560   3.369   4.998   8.449  0.5228  0.4884  0.0051
    5DOPE   C26  561   3.315   5.189   8.361  0.3294 -0.3277 -0.0558
    5DOPE   H6R  562   3.411   5.189   8.305 -0.2643  1.7478 -1.1609
    5DOPE   H6S  563   3.330   5.254   8.450 -1.7038 -0.9890  0.8276
    5DOPE   C27  564   3.211   5.263   8.269 -0.7972  0.7465 -0.8644
    5DOPE   H7R  565   3.114   5.282   8.318 -0.9781  0.8626 -1.2632
    5DOPE   H7S  566   3.200   5.188   8.187  0.6360  0.4063 -0.7790
    5DOPE   C28  567   3.257   5.405   8.221 -0.3587  0.0151  0.8852
    5DOPE   H8R  568   3.358   5.399   8.176 -1.5677 -1.1738 -1.9294
    5DOPE   H8S  569   3.261   5.479   8.304  2.4112  1.5979 -0.5129
    5DOPE   C29  570   3.155   5.457   8.121  0.3014  0.1736 -0.6057
    5DOPE   H9R  571   3.057   5.475   8.169  0.4278 -1.3658  0.2931
    5DOPE  C210  572   3.166   5.479   7.991  0.2088 -0.4812  0.6400
    5DOPE  H10R  573   3.072   5.499   7.937  0.3680 -2.6680 -0.5432
    5DOPE  C211  574   3.285   5.461   7.900 -0.7092  0.3890 -0.3015
    5DOPE  H11R  575   3.302   5.356   7.867  0.6737  1.2014 -2.3127
    5DOPE  H11S  576   3.384   5.489   7.943  1.2996 -0.2545 -4.0453
    5DOPE  C212  577   3.271   5.532   7.774  0.1697 -0.4090 -0.3258
    5DOPE  H12R  578   3.282   5.641   7.788 -0.0424 -0.3869 -0.3166
    5DOPE  H12S  579   3.168   5.509   7.736  0.2035 -2.9914  0.9425
    5DOPE  C213  580   3.376   5.487   7.663  0.1030  0.5956  0.5181
    5DOPE  H13R  581   3.343   5.384   7.639 -1.4002  1.1342  0.1460
    5DOPE  H13S  582   3.479   5.488   7.704  0.2094  0.6866  0.2535
    5DOPE  C214  583   3.353   5.577   7.540  0.9305 -0.3344 -0.2186
    5DOPE  H14R  584   3.357   5.685   7.565  1.9683 -0.4776  0.2646
    5DOPE  H14S  585   3.260   5.557   7.482  0.5247 -0.6841  0.5436
    5DOPE  C215  586   3.469   5.576   7.443  0.0098 -0.3871  0.3503
    5DOPE  H15R  587   3.487   5.467   7.428 -0.7710 -0.6665  1.3458
    5DOPE  H15S  588   3.555   5.628   7.489 -0.4633  1.1686 -0.4462
    5DOPE  C216  589   3.467   5.636   7.304  0.6089  0.0731  0.0926
    5DOPE  H16R  590   3.564   5.624   7.250  0.7186 -0.0056  0.3054
    5DOPE  H16S  591   3.452   5.745   7.320  1.4583  0.2177 -0.0312
    5DOPE  C217  592   3.360   5.572   7.220 -0.2993  0.6768 -0.4348
    5DOPE  H17R  593   3.259   5.599   7.256 -0.0544  2.6742 -1.1440
    5DOPE  H17S  594   3.371   5.462   7.233 -1.1597  0.7352  0.8832
    5DOPE  C218  595   3.364   5.598   7.069 -0.3646 -0.0698 -0.0189
    5DOPE  H18R  596   3.278   5.549   7.018 -0.4398  1.2454 -1.2078
    5DOPE  H18S  597   3.463   5.574   7.025  0.0950  1.5747  0.0377
    5DOPE  H18T  598   3.364   5.707   7.046 -0.0665 -0.3674 -1.5407
    5DOPE   C33  599   2.730   4.726   8.241  0.2412 -1.0387 -0.3797
    5DOPE   H3X  600   2.792   4.651   8.296  0.8190  1.0138  1.9254
    5DOPE   H3Y  601   2.796   4.814   8.238  1.0853 -1.5536  1.6026
    5DOPE   C34  602   2.722   4.688   8.087  0.1806 -0.1695  0.0826
    5DOPE   H4X  603   2.828   4.688   8.053 -0.0704  3.3753 -1.1045
    5DOPE   H4Y  604   2.687   4.583   8.083 -0.2294 -0.0078 -1.0219
    5DOPE   C35  605   2.629   4.768   8.000 -0.0746  0.0253  0.5711
    5DOPE   H5X  606   2.651   4.876   7.992 -1.4831  0.3302  0.5050
    5DOPE   H5Y  607   2.528   4.767   8.048 -0.7448 -0.0770 -0.7922
    5DOPE   C36  608   2.603   4.710   7.858 -0.0759  0.6642 -0.6639
    5DOPE   H6X  609   2.515   4.761   7.813  0.6177  0.1750 -2.6793
    5DOPE   H6Y  610   2.587   4.600   7.865 -0.3641  0.6490 -1.4059
    5DOPE   C37  611   2.715   4.741   7.756  0.4248  0.8385  0.0053
    5DOPE   H7X  612   2.728   4.851   7.742  1.7180  0.8434  1.0406
    5DOPE   H7Y  613   2.813   4.724   7.805 -0.6150  0.0427  1.9340
    5DOPE   C38  614   2.716   4.667   7.619 -0.3403 -0.2935  0.1171
    5DOPE   H8X  615   2.706   4.559   7.646  2.6757  0.2018  4.2470
    5DOPE   H8Y  616   2.818   4.681   7.577 -0.6538  1.0188 -0.2620
    5DOPE   C39  617   2.611   4.705   7.518 -0.1481 -0.1102 -0.0666
    5DOPE   H9X  618   2.515   4.734   7.564  0.0050 -0.8116  0.7332
    5DOPE  C310  619   2.623   4.710   7.380 -0.2899 -0.4011  0.0020
    5DOPE  H10X  620   2.535   4.753   7.329  0.9714  1.0899 -1.0469
    5DOPE  C311  621   2.752   4.682   7.306 -0.1413  0.2818  0.5626
    5DOPE  H11X  622   2.834   4.629   7.359 -0.2701 -0.6601 -0.1550
    5DOPE  H11Y  623   2.716   4.614   7.226 -1.8399  1.0101  0.6691
    5DOPE  C312  624   2.820   4.817   7.253  1.0205 -0.2718 -0.2149
    5DOPE  H12X  625   2.857   4.870   7.343 -1.1009 -3.2325  2.6685
    5DOPE  H12Y  626   2.751   4.894   7.211  2.3130  1.5479  0.8681
    5DOPE  C313  627   2.921   4.784   7.143 -0.2509  0.4137  0.1548
    5DOPE  H13X  628   2.988   4.696   7.148 -1.1403 -0.3712 -1.2374
    5DOPE  H13Y  629   2.869   4.765   7.047 -1.4781  2.5047  0.3266
    5DOPE  C314  630   3.017   4.900   7.122 -0.1895 -0.4559 -0.4249
    5DOPE  H14X  631   3.124   4.871   7.124  0.1848  0.8695 -0.5531
    5DOPE  H14Y  632   2.997   4.983   7.192 -0.8059  0.1277 -1.2713
    5DOPE  C315  633   3.011   4.970   6.976  0.9776  0.1286 -0.2629
    5DOPE  H15X  634   2.908   5.001   6.952  1.7143  2.4024 -0.7266
    5DOPE  H15Y  635   3.039   4.899   6.895 -1.1205  0.2149 -1.1015
    5DOPE  C316  636   3.099   5.101   6.984 -0.1122 -0.2186  1.0676
    5DOPE  H16X  637   3.197   5.085   7.035  2.0092  0.4875 -2.4228
    5DOPE  H16Y  638   3.044   5.166   7.055 -1.1092  0.4912 -0.3173
    5DOPE  C317  639   3.115   5.172   6.851 -0.3400 -0.1823 -0.4215
    5DOPE  H17X  640   3.162   5.093   6.790  0.0090 -0.6816  0.4707
    5DOPE  H17Y  641   3.020   5.207   6.804  0.9809  1.3237 -2.1118
    5DOPE  C318  642   3.212   5.294   6.848 -0.6902  0.7193  0.1518
    5DOPE  H18X  643   3.233   5.311   6.740  0.5183 -0.7611  0.1178
    5DOPE  H18Y  644   3.181   5.385   6.903  1.9501  0.9034  1.4933
    5DOPE  H18Z  645   3.311   5.273   6.893 -0.9172  1.6948  1.1353
    6DOPE     N  646   2.669   5.721   9.300  0.3218  0.1164 -0.8331
    6DOPE   HN1  647   2.748   5.695   9.362 -1.1916  0.3508  1.2746
    6DOPE   HN2  648   2.602   5.771   9.361  1.5124 -0.6045  1.1712
    6DOPE   HN3  649   2.621   5.634   9.269 -0.9719  0.2833  0.6047
    6DOPE   C12  650   2.705   5.786   9.174 -0.6884 -0.3764  0.1396
    6DOPE  H12A  651   2.739   5.889   9.196 -2.2472  0.4426 -1.0940
    6DOPE  H12B  652   2.612   5.817   9.121  0.0713 -1.4033 -1.8604
    6DOPE   C11  653   2.818   5.712   9.101  0.3925  0.5942  0.1966
    6DOPE  H11A  654   2.850   5.776   9.016 -1.7979  2.3994  0.6382
    6DOPE  H11B  655   2.781   5.624   9.044 -0.0051  0.3953  0.7546
    6DOPE     P  656   3.025   5.801   9.241  0.5705  0.2849 -0.4456
    6DOPE   O13  657   3.109   5.748   9.349 -0.0383 -0.1508 -0.0462
    6DOPE   O14  658   2.949   5.918   9.275 -0.2527 -0.3929  0.3941
    6DOPE   O11  659   3.113   5.816   9.110  0.4976 -0.0182 -0.1343
    6DOPE   O12  660   2.925   5.689   9.191 -0.7027  0.0286 -0.5732
    6DOPE    C1  661   3.153   5.702   9.026  0.0800 -0.4188 -0.8521
    6DOPE    HA  662   3.058   5.658   8.991  0.2094 -1.6619  0.2634
    6DOPE    HB  663   3.203   5.624   9.088 -0.2342 -0.3273 -0.4769
    6DOPE    C2  664   3.249   5.741   8.911 -0.3280  0.1624 -0.1432
    6DOPE    HS  665   3.216   5.838   8.870 -0.2156  0.6353  0.8561
    6DOPE   O21  666   3.248   5.627   8.823 -0.6715  0.0725 -0.4095
    6DOPE   C21  667   3.250   5.668   8.689 -0.4911  0.3913  0.3987
    6DOPE   O22  668   3.272   5.778   8.654 -0.3685 -1.6428 -0.3258
    6DOPE   C22  669   3.234   5.552   8.595 -0.1189 -0.5786 -0.4367
    6DOPE   H2R  670   3.283   5.469   8.649  0.2353  0.4418  0.8540
    6DOPE   H2S  671   3.279   5.592   8.502  0.0309  1.6570  0.5281
    6DOPE    C3  672   3.391   5.763   8.982  0.4094  0.5110  0.0226
    6DOPE    HX  673   3.443   5.669   9.008 -1.6288 -0.6146  0.2323
    6DOPE    HY  674   3.361   5.813   9.076  3.3329 -0.8392  1.8002
    6DOPE   O31  675   3.461   5.856   8.905 -0.1109  0.3843  0.0642
    6DOPE   C31  676   3.553   5.809   8.826  0.5829 -0.2660  0.4580
    6DOPE   O32  677   3.585   5.692   8.816 -0.0290  0.2724 -0.2147
    6DOPE   C32  678   3.612   5.927   8.755  0.7549  0.3444 -0.5110
    6DOPE   H2X  679   3.526   5.952   8.690  0.2682 -0.6989 -0.2791
    6DOPE   H2Y  680   3.615   6.017   8.820 -1.2981  0.2749 -0.2603
    6DOPE   C23  681   3.085   5.514   8.577 -0.4497 -0.1493 -0.1127
    6DOPE   H3R  682   3.095   5.444   8.491  0.2537  0.2037 -0.3307
    6DOPE   H3S  683   3.026   5.603   8.549  0.4427  0.1235 -1.2238
    6DOPE   C24  684   3.007   5.440   8.690 -0.4044 -0.0289 -0.5632
    6DOPE   H4R  685   3.009   5.506   8.779  0.1643  1.7139 -1.8063
    6DOPE   H4S  686   3.057   5.346   8.723 -2.7791 -1.9056 -1.9537
    6DOPE   C25  687   2.864   5.417   8.647  0.4157  0.0348 -0.0132
    6DOPE   H5R  688   2.824   5.516   8.616 -0.2994 -0.3861 -0.4571
    6DOPE   H5S  689   2.821   5.382   8.743 -0.0806 -2.1189 -0.9690
    6DOPE   C26  690   2.851   5.308   8.542  0.4325  0.0991  0.5765
    6DOPE   H6R  691   2.908   5.222   8.582  0.3769 -2.4320 -4.0547
    6DOPE   H6S  692   2.900   5.348   8.450 -1.7812  0.5051 -0.5232
    6DOPE   C27  693   2.700   5.267   8.530 -0.2003 -0.1783  0.5801
    6DOPE   H7R  694   2.643   5.360   8.508  0.9343 -0.1333 -2.7650
    6DOPE   H7S  695   2.671   5.216   8.624 -1.4388 -1.8334 -0.6325
    6DOPE   C28  696   2.681   5.161   8.417 -0.5145 -0.8224  0.0317
    6DOPE   H8R  697   2.587   5.106   8.440 -0.8479 -1.2147 -2.0150
    6DOPE   H8S  698   2.766   5.091   8.433 -0.0941 -0.3045  0.1074
    6DOPE   C29  699   2.672   5.225   8.279 -0.0580  0.4416  0.2634
    6DOPE   H9R  700   2.586   5.292   8.264 -0.5847 -0.4623 -0.9845
    6DOPE  C210  701   2.755   5.216   8.177 -0.8017 -0.5578  0.0877
    6DOPE  H10R  702   2.728   5.283   8.095 -0.3187 -0.5338 -0.0549
    6DOPE  C211  703   2.883   5.140   8.162  0.5413  0.4305 -0.8457
    6DOPE  H11R  704   2.861   5.032   8.172 -0.7628  0.6514 -1.1171
    6DOPE  H11S  705   2.952   5.174   8.243 -1.8507  2.2209  0.5922
    6DOPE  C212  706   2.949   5.174   8.028 -0.1365  0.0489  0.6368
    6DOPE  H12R  707   3.046   5.121   8.026 -0.3689 -0.3528 -0.6257
    6DOPE  H12S  708   2.967   5.283   8.016  0.1957  0.1019  1.4926
    6DOPE  C213  709   2.869   5.117   7.910 -0.3081  0.1544  0.0326
    6DOPE  H13R  710   2.780   5.183   7.902 -0.3177  0.5622  2.8131
    6DOPE  H13S  711   2.831   5.017   7.939  0.8851 -0.6996 -1.1715
    6DOPE  C214  712   2.957   5.101   7.780  0.1715 -0.5183  0.1365
    6DOPE  H14R  713   2.891   5.049   7.708 -2.2507  1.5184  0.7316
    6DOPE  H14S  714   3.045   5.038   7.802 -0.7615 -1.0236  2.8479
    6DOPE  C215  715   2.977   5.243   7.723  0.0867  0.0621  0.0397
    6DOPE  H15R  716   3.060   5.299   7.771  1.2590 -0.5051 -1.2552
    6DOPE  H15S  717   2.883   5.301   7.735  1.0629  1.7213 -0.1347
    6DOPE  C216  718   3.012   5.239   7.571  0.4728  0.0772 -0.1119
    6DOPE  H16R  719   2.934   5.170   7.532  2.4614 -1.4445 -1.6473
    6DOPE  H16S  720   3.110   5.186   7.565  1.2770  0.6852  4.1873
    6DOPE  C217  721   2.996   5.377   7.506 -0.5017 -0.4119 -0.1982
    6DOPE  H17R  722   3.076   5.442   7.546 -3.2883  2.4908  1.0993
    6DOPE  H17S  723   2.899   5.428   7.524  1.4720  2.1953  5.0209
    6DOPE  C218  724   3.014   5.373   7.354 -0.3209 -0.0134  0.6102
    6DOPE  H18R  725   3.117   5.341   7.326 -0.6818 -0.6115 -0.0449
    6DOPE  H18S  726   2.992   5.473   7.311 -0.4432  0.1184  0.9779
    6DOPE  H18T  727   2.953   5.297   7.302  2.1454 -0.9485 -1.1339
    6DOPE   C33  728   3.747   5.902   8.684  0.3194  0.1990  0.3743
    6DOPE   H3X  729   3.794   5.811   8.727  0.2514  0.4564  1.0029
    6DOPE   H3Y  730   3.818   5.983   8.711  0.8290 -0.0247 -0.2621
    6DOPE   C34  731   3.729   5.899   8.529  0.5754  0.1344 -0.1719
    6DOPE   H4X  732   3.668   5.808   8.509  1.0330 -0.6793  1.9569
    6DOPE   H4Y  733   3.668   5.990   8.505  3.1347  2.5610  1.8796
    6DOPE   C35  734   3.854   5.902   8.447 -0.3039  0.2282  0.3000
    6DOPE   H5X  735   3.920   5.840   8.510  0.7339 -1.2348 -2.0801
    6DOPE   H5Y  736   3.894   6.004   8.432  1.1375 -0.5122 -1.1261
    6DOPE   C36  737   3.832   5.838   8.301  0.3539  0.3338  0.1495
    6DOPE   H6X  738   3.774   5.743   8.309 -0.6649  0.9219 -0.1179
    6DOPE   H6Y  739   3.932   5.820   8.257 -0.7418 -2.1163 -1.5791
    6DOPE   C37  740   3.772   5.942   8.207  0.0393  0.6830  0.4665
    6DOPE   H7X  741   3.665   5.960   8.233 -0.5611 -1.6824 -0.1048
    6DOPE   H7Y  742   3.819   6.040   8.227  1.5636 -0.2942  1.9828
    6DOPE   C38  743   3.783   5.902   8.057 -0.6476  1.0398  0.1255
    6DOPE   H8X  744   3.887   5.870   8.037 -1.2938 -1.2621  0.1719
    6DOPE   H8Y  745   3.770   5.996   7.999 -1.8289  0.3216 -0.8183
    6DOPE   C39  746   3.682   5.796   8.037 -0.0889 -0.6950  0.0182
    6DOPE   H9X  747   3.656   5.733   8.123  3.0175 -0.6978  1.0791
    6DOPE  C310  748   3.636   5.753   7.918 -0.3469  0.0096 -0.3914
    6DOPE  H10X  749   3.559   5.676   7.906 -0.1473  0.0845 -2.3240
    6DOPE  C311  750   3.695   5.803   7.787 -0.7834  0.9334  0.1916
    6DOPE  H11X  751   3.783   5.871   7.796 -0.2183  0.7465 -2.9744
    6DOPE  H11Y  752   3.729   5.720   7.721  0.4200  1.0246  0.6636
    6DOPE  C312  753   3.586   5.875   7.712 -0.1625  0.5160  0.0439
    6DOPE  H12X  754   3.552   5.970   7.759 -0.8102 -0.1328  0.9211
    6DOPE  H12Y  755   3.501   5.803   7.715  1.5142 -1.5332  1.2644
    6DOPE  C313  756   3.617   5.915   7.563 -0.5947  0.5055 -0.1181
    6DOPE  H13X  757   3.713   5.970   7.559 -1.1373  1.4856  0.1752
    6DOPE  H13Y  758   3.626   5.827   7.495 -1.7209  0.2406  0.0430
    6DOPE  C314  759   3.514   6.012   7.513 -0.0663  0.1556  0.0178
    6DOPE  H14X  760   3.519   6.106   7.573  0.1360 -0.1991  0.5597
    6DOPE  H14Y  761   3.412   5.969   7.523  0.1721 -0.4910 -0.3155
    6DOPE  C315  762   3.523   6.055   7.369 -0.1335 -0.1564 -0.5517
    6DOPE  H15X  763   3.510   5.965   7.305  0.3364 -1.7210  1.4482
    6DOPE  H15Y  764   3.627   6.093   7.361 -0.3885  0.6743 -0.0498
    6DOPE  C316  765   3.416   6.165   7.342 -0.2965  0.1557  0.0083
    6DOPE  H16X  766   3.436   6.261   7.395 -0.2467  0.0658  0.1540
    6DOPE  H16Y  767   3.325   6.119   7.385 -0.7261  1.9317  1.1268
    6DOPE  C317  768   3.403   6.175   7.189 -0.2326 -0.0125  0.0928
    6DOPE  H17X  769   3.345   6.263   7.153 -1.2345 -0.9407 -0.6307
    6DOPE  H17Y  770   3.505   6.194   7.149  0.1509 -1.3748  0.3653
    6DOPE  C318  771   3.331   6.057   7.124 -0.5398 -0.1876  0.1060
    6DOPE  H18X  772   3.394   5.966   7.137 -0.4500 -0.3447 -1.2792
    6DOPE  H18Y  773   3.230   6.035   7.167 -0.5507 -0.5118 -0.0828
    6DOPE  H18Z  774   3.331   6.068   7.014  1.1260  0.4836  0.1501
    7DOPE     N  775   5.299   0.988   8.495  0.3218  0.7188  0.0806
    7DOPE   HN1  776   5.399   0.971   8.471 -0.0059  0.3589 -1.1305
    7DOPE   HN2  777   5.259   0.941   8.579  0.1010  1.2946  0.2967
    7DOPE   HN3  778   5.244   0.942   8.419  1.4971 -0.1614 -0.2787
    7DOPE   C12  779   5.256   1.132   8.527 -0.0854 -0.3824  0.4092
    7DOPE  H12A  780   5.299   1.164   8.625  0.7413 -0.3710  0.0518
    7DOPE  H12B  781   5.147   1.130   8.549 -0.4705  0.0459 -1.3232
    7DOPE   C11  782   5.290   1.225   8.416  0.6769  0.1015 -0.0648
    7DOPE  H11A  783   5.240   1.320   8.445 -1.0908 -0.0291 -2.3139
    7DOPE  H11B  784   5.242   1.181   8.325 -0.0484 -0.9336  0.7860
    7DOPE     P  785   5.517   1.356   8.461 -0.4153 -0.0396 -0.7266
    7DOPE   O13  786   5.631   1.297   8.533 -0.1003 -0.2259  0.3145
    7DOPE   O14  787   5.432   1.443   8.548 -0.5544 -0.7926  0.0773
    7DOPE   O11  788   5.557   1.440   8.331 -0.3468 -0.4218 -0.1139
    7DOPE   O12  789   5.429   1.232   8.412  0.2350  0.2245  0.0552
    7DOPE    C1  790   5.660   1.416   8.240  0.3190 -0.1473  0.6923
    7DOPE    HA  791   5.725   1.331   8.272 -1.1251 -0.8330  1.9720
    7DOPE    HB  792   5.722   1.507   8.223 -0.2974  0.4574  1.6046
    7DOPE    C2  793   5.606   1.370   8.098 -1.0597 -0.0030 -0.3873
    7DOPE    HS  794   5.696   1.351   8.035 -2.1598  0.7636 -2.2506
    7DOPE   O21  795   5.525   1.474   8.043  0.6238  0.1760  0.3492
    7DOPE   C21  796   5.592   1.565   7.975  0.0121  1.0016 -0.6162
    7DOPE   O22  797   5.715   1.577   7.971 -0.1768 -0.1193  0.4032
    7DOPE   C22  798   5.500   1.678   7.925 -0.2132  0.7410  0.3782
    7DOPE   H2R  799   5.489   1.759   8.000 -2.1478  3.0802 -2.2330
    7DOPE   H2S  800   5.401   1.628   7.925  0.5763 -0.9528 -1.1725
    7DOPE    C3  801   5.528   1.234   8.102  0.7702 -0.7310  0.0857
    7DOPE    HX  802   5.426   1.251   8.143  0.0976  0.5864 -1.9637
    7DOPE    HY  803   5.569   1.175   8.186  0.9201  0.6692  1.0158
    7DOPE   O31  804   5.525   1.156   7.981  0.0998  0.2198  0.5284
    7DOPE   C31  805   5.440   1.198   7.882  0.1995  0.3487 -0.3340
    7DOPE   O32  806   5.356   1.279   7.902  0.4668  0.6298 -0.3518
    7DOPE   C32  807   5.467   1.131   7.747  0.2695  0.1653  0.4839
    7DOPE   H2X  808   5.562   1.074   7.740 -0.8625 -1.7517 -0.0723
    7DOPE   H2Y  809   5.391   1.051   7.733  1.7582 -1.2436  0.1618
    7DOPE   C23  810   5.538   1.722   7.781  0.1979 -0.1298  0.4045
    7DOPE   H3R  811   5.614   1.658   7.732  0.1805  1.6980 -2.2346
    7DOPE   H3S  812   5.579   1.825   7.781  0.6842 -0.2513 -1.9003
    7DOPE   C24  813   5.407   1.721   7.700 -0.0906  0.3667 -0.8159
    7DOPE   H4R  814   5.329   1.782   7.751  0.6403 -0.3388  1.2514
    7DOPE   H4S  815   5.362   1.620   7.704  0.4108  0.1667  1.9120
    7DOPE   C25  816   5.408   1.756   7.555 -0.0184 -0.4604 -0.0959
    7DOPE   H5R  817   5.473   1.846   7.548  0.9253 -0.9844  1.5861
    7DOPE   H5S  818   5.310   1.783   7.510  0.5560  0.8614 -0.6067
    7DOPE   C26  819   5.476   1.654   7.469  0.0064  0.6641 -0.0010
    7DOPE   H6R  820   5.411   1.563   7.466 -1.9598  2.0340 -1.5329
    7DOPE   H6S  821   5.568   1.628   7.525 -0.5278 -1.2011  0.0745
    7DOPE   C27  822   5.522   1.718   7.333 -0.0387  0.6311 -0.6381
    7DOPE   H7R  823   5.579   1.657   7.260 -0.9646 -0.3037 -0.6085
    7DOPE   H7S  824   5.577   1.811   7.358  2.1609 -0.2213 -2.0631
    7DOPE   C28  825   5.398   1.750   7.243 -0.5379  0.0376  0.6923
    7DOPE   H8R  826   5.330   1.821   7.295 -0.0801  0.8819  0.1627
    7DOPE   H8S  827   5.337   1.658   7.234  2.0223 -1.8977  1.8118
    7DOPE   C29  828   5.436   1.800   7.100  0.1359 -0.8993  0.2087
    7DOPE   H9R  829   5.541   1.833   7.099 -0.0977  0.0473  1.9900
    7DOPE  C210  830   5.367   1.773   6.989 -0.4966  0.4957  0.1661
    7DOPE  H10R  831   5.418   1.811   6.899 -1.1077 -1.2237 -0.9520
    7DOPE  C211  832   5.228   1.703   6.963  0.0781  0.3408 -1.0965
    7DOPE  H11R  833   5.181   1.744   6.871  0.5047 -1.6804 -2.2814
    7DOPE  H11S  834   5.157   1.714   7.048 -1.0440 -0.2327 -1.9312
    7DOPE  C212  835   5.251   1.555   6.928  0.0851 -0.2072 -0.7201
    7DOPE  H12R  836   5.154   1.501   6.925  0.3840 -1.3534  3.7733
    7DOPE  H12S  837   5.315   1.496   6.997 -0.9443 -0.5400 -0.0272
    7DOPE  C213  838   5.298   1.533   6.782  0.5217  0.7724  0.2897
    7DOPE  H13R  839   5.358   1.443   6.758  1.4199  1.4948 -0.2241
    7DOPE  H13S  840   5.344   1.629   6.753 -0.2909  1.5930  1.6082
    7DOPE  C214  841   5.180   1.521   6.685  0.3125  0.4409 -0.7505
    7DOPE  H14R  842   5.113   1.610   6.693 -1.8101 -0.9858 -1.6985
    7DOPE  H14S  843   5.127   1.426   6.704  2.1587 -0.5882 -0.5480
    7DOPE  C215  844   5.223   1.506   6.534  0.1987  0.0843 -0.3151
    7DOPE  H15R  845   5.278   1.411   6.517  1.4845  0.4107  1.7131
    7DOPE  H15S  846   5.291   1.591   6.510 -1.9725  1.3272 -2.5047
    7DOPE  C216  847   5.102   1.515   6.452 -0.2169 -0.4691  0.0982
    7DOPE  H16R  848   5.053   1.615   6.460  0.1206 -0.3049  0.1159
    7DOPE  H16S  849   5.032   1.440   6.495  0.6181 -1.1775  0.2524
    7DOPE  C217  850   5.109   1.474   6.301  0.6293 -0.4690 -0.1778
    7DOPE  H17R  851   5.156   1.373   6.304  2.1390  0.2310  1.7343
    7DOPE  H17S  852   5.189   1.538   6.259  2.5431 -2.0756  0.8411
    7DOPE  C218  853   4.973   1.474   6.224 -0.0559  0.3566 -0.3375
    7DOPE  H18R  854   4.927   1.575   6.224  1.8863  1.2799 -0.8167
    7DOPE  H18S  855   4.908   1.407   6.285  0.9997 -0.6216 -0.2562
    7DOPE  H18T  856   4.986   1.440   6.119  3.1707  0.9850 -0.2258
    7DOPE   C33  857   5.464   1.225   7.628 -0.1480  0.4867 -0.4231
    7DOPE   H3X  858   5.519   1.317   7.656 -0.1064 -0.1789  1.8382
    7DOPE   H3Y  859   5.361   1.261   7.605 -1.9244 -0.9899  4.1069
    7DOPE   C34  860   5.525   1.168   7.505  0.4054 -0.5736  0.3695
    7DOPE   H4X  861   5.630   1.135   7.517  0.7832  0.0471 -1.0795
    7DOPE   H4Y  862   5.473   1.075   7.477 -0.2896 -0.6615  1.8282
    7DOPE   C35  863   5.526   1.274   7.388 -0.3444 -0.7279  0.9385
    7DOPE   H5X  864   5.593   1.359   7.414 -0.1550 -0.5740 -0.0159
    7DOPE   H5Y  865   5.422   1.311   7.374 -0.1924 -1.2405 -2.1825
    7DOPE   C36  866   5.577   1.227   7.252  0.8690 -0.3283 -0.3541
    7DOPE   H6X  867   5.521   1.134   7.233  1.2732 -0.9666  1.3654
    7DOPE   H6Y  868   5.688   1.215   7.259  0.8183 -0.7614 -0.2972
    7DOPE   C37  869   5.541   1.344   7.154 -0.0594  0.6079 -0.1915
    7DOPE   H7X  870   5.442   1.379   7.189  0.0962 -0.5209  1.4603
    7DOPE   H7Y  871   5.616   1.426   7.155  0.7520 -0.0172 -2.3196
    7DOPE   C38  872   5.527   1.286   7.010 -0.3312  0.2558 -0.5167
    7DOPE   H8X  873   5.485   1.356   6.935 -0.5479 -0.0393 -0.6742
    7DOPE   H8Y  874   5.454   1.203   7.012  2.2454 -2.2415 -2.3653
    7DOPE   C39  875   5.663   1.243   6.956 -0.3037 -0.2489  0.0774
    7DOPE   H9X  876   5.702   1.157   7.011 -1.9959 -0.8921  0.3448
    7DOPE  C310  877   5.734   1.285   6.855 -0.1465  0.0212  0.2958
    7DOPE  H10X  878   5.826   1.233   6.824 -1.0122 -1.5943  0.3188
    7DOPE  C311  879   5.701   1.410   6.774  0.0232  0.0946 -0.6075
    7DOPE  H11X  880   5.629   1.470   6.833 -1.2499 -1.2467 -0.7495
    7DOPE  H11Y  881   5.795   1.470   6.771  0.3374 -0.3659 -3.7299
    7DOPE  C312  882   5.651   1.380   6.633  0.8423  0.1040 -0.8177
    7DOPE  H12X  883   5.568   1.307   6.644  2.2665 -1.2935  1.1595
    7DOPE  H12Y  884   5.730   1.333   6.571 -0.1824 -2.7177 -0.1308
    7DOPE  C313  885   5.598   1.511   6.571  0.5692 -0.1807  0.1759
    7DOPE  H13X  886   5.557   1.488   6.470  0.4609 -0.1130  0.2045
    7DOPE  H13Y  887   5.519   1.559   6.631  3.1916 -0.6321  4.4081
    7DOPE  C314  888   5.712   1.623   6.559  0.4028  0.1884 -0.3431
    7DOPE  H14X  889   5.796   1.580   6.501  0.3762  0.4248 -0.5540
    7DOPE  H14Y  890   5.752   1.646   6.660  2.4826  0.6632 -1.2108
    7DOPE  C315  891   5.659   1.746   6.492  0.0476  0.3504  0.4258
    7DOPE  H15X  892   5.633   1.723   6.386 -0.2308  1.2623  0.2860
    7DOPE  H15Y  893   5.746   1.814   6.489  0.0116  0.3753 -1.6439
    7DOPE  C316  894   5.548   1.832   6.556 -0.1269 -0.5103 -0.4638
    7DOPE  H16X  895   5.598   1.904   6.623 -1.8527 -0.7142  1.1271
    7DOPE  H16Y  896   5.475   1.766   6.608 -0.2043 -0.7681 -0.8892
    7DOPE  C317  897   5.468   1.898   6.442  0.0990  0.5062 -0.1049
    7DOPE  H17X  898   5.427   1.817   6.380  1.8982  0.3101 -1.1089
    7DOPE  H17Y  899   5.375   1.946   6.481  0.0348 -1.1493  1.9852
    7DOPE  C318  900   5.549   1.986   6.352  0.0765 -0.0685 -0.3557
    7DOPE  H18X  901   5.610   1.917   6.290  0.8900 -0.7802  1.1868
    7DOPE  H18Y  902   5.489   2.054   6.287  1.1219  2.0557  0.7869
    7DOPE  H18Z  903   5.608   2.052   6.419  0.9975 -1.7756  0.5924
    8DOPE     N  904   4.507   6.500   8.881 -0.9816  0.5662 -0.3391
    8DOPE   HN1  905   4.475   6.451   8.795  2.1240 -0.1643 -1.1920
    8DOPE   HN2  906   4.434   6.568   8.910 -3.7587 -1.9302 -0.9225
    8DOPE   HN3  907   4.588   6.552   8.841  0.4991 -1.4595 -0.1150
    8DOPE   C12  908   4.532   6.404   8.992  0.0576  0.4183  0.4104
    8DOPE  H12A  909   4.585   6.313   8.958 -1.4516 -0.2515 -0.2743
    8DOPE  H12B  910   4.433   6.377   9.035 -0.4115  0.6031 -0.5164
    8DOPE   C11  911   4.616   6.476   9.100 -1.1634 -0.1089  0.4834
    8DOPE  H11A  912   4.628   6.414   9.192  0.8666  0.4756  0.6484
    8DOPE  H11B  913   4.559   6.568   9.123  0.2369  1.2976 -1.3948
    8DOPE     P  914   4.885   6.482   9.117 -0.0320  0.3197 -0.1586
    8DOPE   O13  915   4.869   6.396   9.236  0.1287 -0.0906  0.3050
    8DOPE   O14  916   4.959   6.610   9.140  0.8131  0.2268  0.0957
    8DOPE   O11  917   4.969   6.397   9.019  0.4577  0.2534  0.1224
    8DOPE   O12  918   4.747   6.513   9.044  0.5706 -0.7025 -0.2036
    8DOPE    C1  919   4.920   6.277   8.961  0.3502 -0.2638 -0.3405
    8DOPE    HA  920   4.841   6.294   8.886 -0.3809  0.7121  0.6264
    8DOPE    HB  921   4.882   6.211   9.042  0.1823  0.2433  0.0034
    8DOPE    C2  922   5.025   6.183   8.905  0.3711  0.4728 -0.3359
    8DOPE    HS  923   5.108   6.182   8.978 -1.3025 -2.4266  1.7507
    8DOPE   O21  924   5.064   6.236   8.772 -0.1296 -0.1582 -0.3611
    8DOPE   C21  925   5.156   6.170   8.705  0.7675 -0.8957  0.1419
    8DOPE   O22  926   5.226   6.082   8.747  0.5253  0.0923 -0.5738
    8DOPE   C22  927   5.155   6.200   8.562  0.2946 -0.1781  0.2360
    8DOPE   H2R  928   5.259   6.208   8.524  0.8516 -1.1835  1.4984
    8DOPE   H2S  929   5.114   6.302   8.544  0.1886 -0.3940 -0.7972
    8DOPE    C3  930   4.968   6.033   8.890  0.0120 -0.2322 -0.4457
    8DOPE    HX  931   4.949   6.001   8.994 -1.0255 -0.0944 -0.5785
    8DOPE    HY  932   5.045   5.965   8.848 -1.3200 -0.9931 -1.7727
    8DOPE   O31  933   4.848   6.044   8.812  0.6560  0.0901  0.0757
    8DOPE   C31  934   4.791   5.927   8.768 -0.8848  0.5111  0.3157
    8DOPE   O32  935   4.839   5.814   8.783 -0.1488 -0.3050  0.3601
    8DOPE   C32  936   4.671   5.957   8.684 -0.2656 -0.6603 -0.6179
    8DOPE   H2X  937   4.611   6.041   8.725  0.6385  0.5810 -1.7387
    8DOPE   H2Y  938   4.699   5.993   8.583  0.7595  0.2149 -0.0540
    8DOPE   C23  939   5.080   6.090   8.483 -0.2000 -0.6511  0.4233
    8DOPE   H3R  940   4.993   6.044   8.535 -1.6472  1.9851  0.5177
    8DOPE   H3S  941   5.152   6.005   8.478  2.0137  1.1957 -1.2467
    8DOPE   C24  942   5.045   6.137   8.345 -0.5340 -0.1451 -0.5921
    8DOPE   H4R  943   5.132   6.182   8.294  1.0049 -1.3135  0.8841
    8DOPE   H4S  944   4.965   6.214   8.345 -0.9280 -0.5443  0.0340
    8DOPE   C25  945   4.997   6.019   8.260  0.3530 -0.8855 -0.3261
    8DOPE   H5R  946   4.906   5.990   8.316  0.7530  1.0073  1.4374
    8DOPE   H5S  947   5.080   5.945   8.266  2.4173  1.3231  0.0746
    8DOPE   C26  948   4.965   6.063   8.113  0.1511 -0.5370  0.1658
    8DOPE   H6R  949   5.052   6.117   8.070 -0.4983  0.9334  0.6004
    8DOPE   H6S  950   4.877   6.131   8.123  0.2380 -0.1401 -1.4230
    8DOPE   C27  951   4.931   5.943   8.027 -0.4104 -0.5514 -0.3889
    8DOPE   H7R  952   4.870   5.868   8.082 -0.6964  0.9697  1.4545
    8DOPE   H7S  953   5.027   5.893   8.005  0.7491  1.5450 -0.3206
    8DOPE   C28  954   4.852   5.975   7.890  0.1691  0.6829 -0.1633
    8DOPE   H8R  955   4.774   6.043   7.930 -2.7256 -0.7938 -2.8981
    8DOPE   H8S  956   4.796   5.884   7.862 -0.2576  0.5601  1.0406
    8DOPE   C29  957   4.941   6.037   7.781  0.0490 -0.3988  0.8020
    8DOPE   H9R  958   5.028   6.099   7.809  0.9097 -0.8486 -0.7691
    8DOPE  C210  959   4.910   6.015   7.652  0.1339  0.2324  0.4347
    8DOPE  H10R  960   4.985   6.038   7.574 -1.3909 -1.6207 -1.7261
    8DOPE  C211  961   4.814   5.908   7.611  0.1190 -0.4502 -0.2753
    8DOPE  H11R  962   4.722   5.930   7.669 -0.8065  1.6280 -2.3778
    8DOPE  H11S  963   4.854   5.808   7.638  2.7837 -0.5552 -3.8800
    8DOPE  C212  964   4.774   5.911   7.459 -0.1542 -0.0194 -0.2380
    8DOPE  H12R  965   4.702   5.828   7.446  0.0432 -0.2129 -0.1045
    8DOPE  H12S  966   4.864   5.887   7.399  0.2312 -0.8590  0.6545
    8DOPE  C213  967   4.700   6.044   7.422  0.0382 -0.4161  0.9363
    8DOPE  H13R  968   4.762   6.135   7.439 -1.2900  0.4007  1.5366
    8DOPE  H13S  969   4.611   6.053   7.488 -1.3657  1.9351 -1.1038
    8DOPE  C214  970   4.647   6.036   7.281  0.3705 -0.7350  0.4739
    8DOPE  H14R  971   4.576   6.120   7.265 -0.0643 -1.0953  0.4834
    8DOPE  H14S  972   4.584   5.944   7.279 -1.9389  0.7480  0.0003
    8DOPE  C215  973   4.751   6.031   7.173  1.0175 -0.1502  0.1705
    8DOPE  H15R  974   4.815   5.943   7.197 -1.5866 -2.3752 -0.4680
    8DOPE  H15S  975   4.818   6.120   7.173  0.6153  0.1575 -0.1021
    8DOPE  C216  976   4.680   6.026   7.035 -0.9327 -0.0403 -0.3482
    8DOPE  H16R  977   4.600   6.103   7.025  0.1680  1.3448  0.9883
    8DOPE  H16S  978   4.627   5.928   7.032  0.7492 -1.1883  2.8950
    8DOPE  C217  979   4.779   6.029   6.921 -0.0514  0.2553  0.3598
    8DOPE  H17R  980   4.845   5.941   6.927  0.3422  0.6267  1.7904
    8DOPE  H17S  981   4.825   6.130   6.930  1.6605 -0.3744 -0.7978
    8DOPE  C218  982   4.729   6.016   6.774  0.3187 -0.0364 -0.1149
    8DOPE  H18R  983   4.815   6.030   6.704  0.2819 -0.6429 -0.2819
    8DOPE  H18S  984   4.659   6.099   6.748 -0.2772 -0.9480 -1.5355
    8DOPE  H18T  985   4.676   5.921   6.754 -3.5396  1.6928  0.9957
    8DOPE   C33  986   4.570   5.847   8.658  0.1875  0.5648 -0.1425
    8DOPE   H3X  987   4.472   5.896   8.638 -0.2477  0.2531  1.1138
    8DOPE   H3Y  988   4.554   5.785   8.749 -1.5083  0.4451 -0.4821
    8DOPE   C34  989   4.611   5.762   8.541 -0.1354 -0.0317  0.2808
    8DOPE   H4X  990   4.617   5.820   8.446 -0.1670 -0.7897 -0.1967
    8DOPE   H4Y  991   4.711   5.715   8.556  0.0165 -0.1378 -0.8961
    8DOPE   C35  992   4.517   5.639   8.502  0.9750  0.3150 -0.5195
    8DOPE   H5X  993   4.507   5.574   8.592 -1.9487  0.1110 -0.8899
    8DOPE   H5Y  994   4.549   5.575   8.418  0.2121 -3.1166  1.6042
    8DOPE   C36  995   4.379   5.684   8.461  0.2615  0.2496  0.4086
    8DOPE   H6X  996   4.332   5.730   8.552  1.2530 -1.6000  1.9242
    8DOPE   H6Y  997   4.327   5.593   8.426  1.6842 -0.5393  0.2891
    8DOPE   C37  998   4.384   5.789   8.350 -0.0462 -0.4587  0.3504
    8DOPE   H7X  999   4.403   5.891   8.389  0.9193  0.9609 -3.3694
    8DOPE   H7Y 1000   4.466   5.769   8.278  1.1209  1.1129  1.1673
    8DOPE   C38 1001   4.253   5.791   8.275 -0.2429 -0.3234 -0.2168
    8DOPE   H8X 1002   4.181   5.813   8.357  0.8582  1.7434  0.2794
    8DOPE   H8Y 1003   4.221   5.687   8.252 -1.6380  0.0569 -0.0625
    8DOPE   C39 1004   4.239   5.880   8.149  0.3225  0.5963 -0.5545
    8DOPE   H9X 1005   4.225   5.986   8.174 -0.1780  0.0691  1.6093
    8DOPE  C310 1006   4.197   5.847   8.026  0.3627 -0.3001 -0.6161
    8DOPE  H10X 1007   4.200   5.932   7.957 -0.7262 -0.4836 -0.8978
    8DOPE  C311 1008   4.170   5.711   7.971  0.0289 -0.1021 -0.7835
    8DOPE  H11X 1009   4.254   5.665   7.915  0.5401 -1.2168  0.8199
    8DOPE  H11Y 1010   4.145   5.640   8.054 -0.7579  0.4864 -0.5029
    8DOPE  C312 1011   4.062   5.720   7.857 -0.0140 -0.0471 -0.2402
    8DOPE  H12X 1012   3.964   5.753   7.897  0.5716  0.7377  0.5950
    8DOPE  H12Y 1013   4.061   5.615   7.823  0.3362  0.2334 -1.1644
    8DOPE  C313 1014   4.097   5.811   7.738 -0.0163  0.3630 -0.3801
    8DOPE  H13X 1015   4.061   5.915   7.752  0.5351  0.5998 -0.6909
    8DOPE  H13Y 1016   4.207   5.807   7.725  0.0373 -0.0724  0.1651
    8DOPE  C314 1017   4.028   5.775   7.607 -0.2499 -0.3706  0.8764
    8DOPE  H14X 1018   3.920   5.756   7.626 -0.7438 -1.3025 -2.3171
    8DOPE  H14Y 1019   4.071   5.682   7.565  3.3501  1.5060  0.0200
    8DOPE  C315 1020   4.025   5.874   7.491 -0.1778 -0.7259  0.0475
    8DOPE  H15X 1021   4.127   5.880   7.449  0.7129 -0.3835  2.1476
    8DOPE  H15Y 1022   3.993   5.976   7.519 -1.4736 -0.6203 -1.6603
    8DOPE  C316 1023   3.927   5.807   7.385 -1.3144  0.6276 -0.0696
    8DOPE  H16X 1024   3.835   5.775   7.439  0.5753  0.3363  3.2954
    8DOPE  H16Y 1025   3.979   5.718   7.343 -1.1844  0.6725 -0.0035
    8DOPE  C317 1026   3.892   5.898   7.270 -0.0155  0.0914  0.3903
    8DOPE  H17X 1027   3.871   6.003   7.300  0.6353  1.0975 -2.3731
    8DOPE  H17Y 1028   3.983   5.904   7.206 -0.9843 -1.2670 -1.2210
    8DOPE  C318 1029   3.782   5.825   7.180  0.2060  0.4043 -0.1749
    8DOPE  H18X 1030   3.685   5.814   7.232  0.8270  1.8197  1.3542
    8DOPE  H18Y 1031   3.811   5.726   7.138 -0.5816  1.2641 -3.0069
    8DOPE  H18Z 1032   3.768   5.885   7.087  2.3333 -1.2895 -1.7194
    9DOPE     N 1033   2.425   3.771   8.950 -0.8177  0.4729  0.1987
    9DOPE   HN1 1034   2.392   3.699   8.883 -0.0711  0.4396 -0.1413
    9DOPE   HN2 1035   2.434   3.864   8.904  1.3677  0.2464  0.0709
    9DOPE   HN3 1036   2.518   3.743   8.987 -1.0339 -0.2476  0.2142
    9DOPE   C12 1037   2.324   3.786   9.053 -0.5871 -0.9512 -0.1612
    9DOPE  H12A 1038   2.384   3.806   9.144  0.3599  0.7531 -1.0950
    9DOPE  H12B 1039   2.277   3.686   9.062 -1.0203 -0.7173  0.2369
    9DOPE   C11 1040   2.212   3.883   9.016 -0.0223 -0.3566  0.2504
    9DOPE  H11A 1041   2.251   3.988   9.021 -1.8917  0.3837  0.0029
    9DOPE  H11B 1042   2.129   3.851   9.082 -1.2590 -4.6705 -2.9854
    9DOPE     P 1043   2.041   3.778   8.850  0.2619  0.4216  0.5338
    9DOPE   O13 1044   1.925   3.858   8.896 -0.3215  0.1347 -0.7176
    9DOPE   O14 1045   2.056   3.635   8.899 -0.3050 -0.1976  0.4193
    9DOPE   O11 1046   2.040   3.781   8.688 -0.0302  0.1935  0.2233
    9DOPE   O12 1047   2.173   3.853   8.885 -0.0636 -0.4609  0.3044
    9DOPE    C1 1048   2.130   3.710   8.611 -0.7066 -0.5059  0.3353
    9DOPE    HA 1049   2.132   3.610   8.658 -3.4000  0.0931  1.9872
    9DOPE    HB 1050   2.227   3.765   8.619 -1.2684  0.6420 -0.3974
    9DOPE    C2 1051   2.093   3.698   8.459  0.1103  0.3290 -0.5328
    9DOPE    HS 1052   2.147   3.607   8.425  0.5393  0.2338  0.3678
    9DOPE   O21 1053   2.134   3.814   8.379 -0.2003  0.0177 -0.7939
    9DOPE   C21 1054   2.259   3.818   8.353 -0.6345 -0.0908 -0.5241
    9DOPE   O22 1055   2.346   3.737   8.383 -0.2435 -0.9437 -0.1617
    9DOPE   C22 1056   2.300   3.949   8.285  0.7648  0.9189 -0.4195
    9DOPE   H2R 1057   2.344   4.005   8.371  1.5099 -1.2980  0.7527
    9DOPE   H2S 1058   2.218   4.012   8.244 -0.2753 -0.5042 -0.5857
    9DOPE    C3 1059   1.948   3.656   8.437 -0.5693 -0.0656  0.3702
    9DOPE    HX 1060   1.873   3.733   8.467  0.4549  0.7710  0.8450
    9DOPE    HY 1061   1.930   3.561   8.492  1.6133 -0.6562  0.1528
    9DOPE   O31 1062   1.939   3.629   8.293  0.4869  0.3761  0.2758
    9DOPE   C31 1063   1.902   3.728   8.206 -1.3510  0.0734  0.4177
    9DOPE   O32 1064   1.867   3.839   8.240  0.4760 -0.2570 -0.5655
    9DOPE   C32 1065   1.922   3.676   8.059  0.4212 -0.4652 -0.9320
    9DOPE   H2X 1066   2.020   3.721   8.030  0.2187 -0.7007 -2.0455
    9DOPE   H2Y 1067   1.925   3.565   8.063 -0.4472 -0.5993 -2.9616
    9DOPE   C23 1068   2.408   3.935   8.174 -0.3903 -0.6778  0.2564
    9DOPE   H3R 1069   2.476   3.852   8.202  0.7376  0.3393  0.6145
    9DOPE   H3S 1070   2.466   4.029   8.176 -0.5863 -0.5594  0.4623
    9DOPE   C24 1071   2.355   3.895   8.035  0.6816 -0.5048  0.1782
    9DOPE   H4R 1072   2.275   3.965   8.002  0.9760 -0.3441 -0.2033
    9DOPE   H4S 1073   2.312   3.794   8.049 -0.2693 -0.1032  0.2090
    9DOPE   C25 1074   2.461   3.890   7.927 -0.5154  0.3460 -0.1579
    9DOPE   H5R 1075   2.550   3.837   7.967 -0.9537 -1.3196 -1.3043
    9DOPE   H5S 1076   2.501   3.989   7.895 -0.5014  0.0198 -1.1773
    9DOPE   C26 1077   2.410   3.819   7.806  0.0708 -0.7949 -0.3444
    9DOPE   H6R 1078   2.312   3.862   7.775  0.9463  2.2545  0.7496
    9DOPE   H6S 1079   2.400   3.711   7.828  0.4646 -1.1105 -1.6417
    9DOPE   C27 1080   2.488   3.843   7.674  0.0127  0.3049  0.2628
    9DOPE   H7R 1081   2.579   3.780   7.677  0.3210  0.4107 -2.9810
    9DOPE   H7S 1082   2.535   3.943   7.665  2.4450 -0.9388 -2.3591
    9DOPE   C28 1083   2.411   3.810   7.538 -0.0273 -0.4650 -0.0045
    9DOPE   H8R 1084   2.313   3.862   7.539  0.7945  1.1935 -0.6367
    9DOPE   H8S 1085   2.382   3.704   7.534  3.3060 -1.5336  0.5605
    9DOPE   C29 1086   2.491   3.835   7.413  0.0673 -0.2154  0.8900
    9DOPE   H9R 1087   2.581   3.895   7.436  0.1778 -0.1159  0.2250
    9DOPE  C210 1088   2.451   3.814   7.282 -0.6696  0.3347 -0.3792
    9DOPE  H10R 1089   2.518   3.830   7.197 -1.2375  1.9635 -0.5509
    9DOPE  C211 1090   2.321   3.748   7.236  0.6933 -0.4434  0.2669
    9DOPE  H11R 1091   2.260   3.713   7.321 -0.2886 -2.1601 -1.0645
    9DOPE  H11S 1092   2.344   3.653   7.182  1.6450 -0.4705  0.7021
    9DOPE  C212 1093   2.241   3.850   7.137 -0.6088 -0.5771 -0.4598
    9DOPE  H12R 1094   2.250   3.953   7.178  0.5418 -0.7226 -0.3095
    9DOPE  H12S 1095   2.134   3.818   7.137 -0.3904 -1.3581 -1.4143
    9DOPE  C213 1096   2.300   3.838   6.999  0.3613  0.5556 -0.6028
    9DOPE  H13R 1097   2.276   3.733   6.973 -0.9474  0.5913  0.3491
    9DOPE  H13S 1098   2.409   3.861   7.001  0.5111 -0.1332 -0.7176
    9DOPE  C214 1099   2.236   3.924   6.888 -0.0027 -0.0211 -0.1830
    9DOPE  H14R 1100   2.255   4.033   6.905  3.3147 -0.4108 -0.8552
    9DOPE  H14S 1101   2.126   3.911   6.879 -0.1257  0.6163  0.2946
    9DOPE  C215 1102   2.296   3.886   6.748 -0.2383  0.6042 -1.0804
    9DOPE  H15R 1103   2.277   3.777   6.744 -0.6191  0.6781 -1.3252
    9DOPE  H15S 1104   2.406   3.900   6.756 -0.2093  0.0710 -0.5288
    9DOPE  C216 1105   2.224   3.965   6.634  0.5640  0.0642  1.0064
    9DOPE  H16R 1106   2.233   4.068   6.674 -0.6296  0.4595  0.3111
    9DOPE  H16S 1107   2.116   3.937   6.634  0.2915  1.0845  1.0087
    9DOPE  C217 1108   2.290   3.937   6.496 -0.2502 -0.0853 -0.7021
    9DOPE  H17R 1109   2.306   3.829   6.476  0.8018  0.3117 -2.2266
    9DOPE  H17S 1110   2.387   3.991   6.491  0.2233 -0.9202 -0.7198
    9DOPE  C218 1111   2.204   3.987   6.384  0.9198 -0.4391  0.4279
    9DOPE  H18R 1112   2.256   3.969   6.287 -0.4642  1.5406 -0.7567
    9DOPE  H18S 1113   2.172   4.093   6.389 -1.3136 -1.0539  0.6082
    9DOPE  H18T 1114   2.112   3.924   6.381  2.1694 -2.3021 -1.1487
    9DOPE   C33 1115   1.813   3.725   7.955 -0.3894  0.1864  0.5894
    9DOPE   H3X 1116   1.845   3.695   7.853  0.0479  0.5146  0.6253
    9DOPE   H3Y 1117   1.807   3.836   7.965  0.0395  0.2306  0.3785
    9DOPE   C34 1118   1.676   3.671   7.980 -0.5767 -0.1552  0.2575
    9DOPE   H4X 1119   1.685   3.562   7.959  2.6370  0.1325 -0.3101
    9DOPE   H4Y 1120   1.639   3.681   8.084 -1.5167  0.6187 -0.1328
    9DOPE   C35 1121   1.578   3.726   7.883 -0.8843 -0.1669  0.2698
    9DOPE   H5X 1122   1.551   3.832   7.904 -1.2711  0.6310 -3.5870
    9DOPE   H5Y 1123   1.483   3.671   7.899 -0.2740 -1.1393  0.6051
    9DOPE   C36 1124   1.617   3.719   7.730 -0.4278 -0.0689 -0.1259
    9DOPE   H6X 1125   1.629   3.612   7.701  0.2169  0.0841 -0.4445
    9DOPE   H6Y 1126   1.715   3.761   7.699  0.7112 -2.7976 -0.5355
    9DOPE   C37 1127   1.500   3.769   7.642 -0.0454 -0.1629  0.8277
    9DOPE   H7X 1128   1.416   3.700   7.664  0.5037 -1.2636 -0.3717
    9DOPE   H7Y 1129   1.458   3.866   7.674  1.5650  1.7859 -2.4456
    9DOPE   C38 1130   1.524   3.761   7.488 -0.4174  0.1049 -0.6964
    9DOPE   H8X 1131   1.582   3.667   7.475 -1.0957 -0.3337 -0.6174
    9DOPE   H8Y 1132   1.593   3.847   7.477 -1.7544  1.6675  2.0831
    9DOPE   C39 1133   1.397   3.758   7.403 -0.4149 -0.1045  0.8326
    9DOPE   H9X 1134   1.297   3.738   7.442 -1.9619  1.2157 -2.1388
    9DOPE  C310 1135   1.413   3.754   7.266 -0.4463 -0.3650 -0.0530
    9DOPE  H10X 1136   1.318   3.750   7.210 -0.9988  0.9149  0.7447
    9DOPE  C311 1137   1.537   3.767   7.181  0.4831 -0.4427  0.0033
    9DOPE  H11X 1138   1.576   3.870   7.196 -0.4711 -0.0594 -0.0494
    9DOPE  H11Y 1139   1.612   3.702   7.231  3.0477  1.7661 -0.7666
    9DOPE  C312 1140   1.517   3.741   7.030 -0.2266 -0.6027 -0.5346
    9DOPE  H12X 1141   1.469   3.643   7.010 -0.9352 -0.4825  0.4910
    9DOPE  H12Y 1142   1.619   3.742   6.985 -0.2481 -0.7830 -0.5871
    9DOPE  C313 1143   1.447   3.859   6.966 -0.4459 -0.7519 -0.6154
    9DOPE  H13X 1144   1.359   3.884   7.028 -0.6359 -2.9677  0.1084
    9DOPE  H13Y 1145   1.523   3.940   6.962 -2.5914  1.4631  0.7243
    9DOPE  C314 1146   1.406   3.830   6.823 -0.3684  0.1352  0.0506
    9DOPE  H14X 1147   1.321   3.760   6.824 -0.9092  0.7789 -0.0525
    9DOPE  H14Y 1148   1.492   3.792   6.764 -0.3233  1.2651 -0.6379
    9DOPE  C315 1149   1.376   3.963   6.745 -0.0150 -1.0564  0.1392
    9DOPE  H15X 1150   1.468   4.024   6.756 -1.1214  1.0365 -1.5275
    9DOPE  H15Y 1151   1.292   4.007   6.803  0.3445  1.2230 -0.9643
    9DOPE  C316 1152   1.336   3.934   6.600  0.5449 -0.2675  0.1008
    9DOPE  H16X 1153   1.264   3.848   6.596  0.8926 -0.5633  0.1569
    9DOPE  H16Y 1154   1.415   3.894   6.534 -1.7823 -0.4445 -2.8065
    9DOPE  C317 1155   1.286   4.051   6.516  0.2181  0.4716 -0.4735
    9DOPE  H17X 1156   1.198   4.106   6.556 -0.2337 -0.1404 -0.6125
    9DOPE  H17Y 1157   1.374   4.119   6.512  1.4948 -0.9497  1.3015
    9DOPE  C318 1158   1.240   4.010   6.382 -0.1967  0.2223  0.4129
    9DOPE  H18X 1159   1.191   4.094   6.328  0.1334  0.5409  0.6054
    9DOPE  H18Y 1160   1.314   3.969   6.310 -1.7127 -1.1637 -0.4316
    9DOPE  H18Z 1161   1.161   3.932   6.382 -0.6604  0.5560 -2.4203
   10DOPE     N 1162   2.875   0.851   8.651 -0.1601  0.2130  0.0511
   10DOPE   HN1 1163   2.924   0.915   8.585  0.8532 -0.2240  0.3489
   10DOPE   HN2 1164   2.810   0.793   8.593 -0.5513  2.1769 -1.5714
   10DOPE   HN3 1165   2.816   0.899   8.720 -0.4861 -1.4200  0.9696
   10DOPE   C12 1166   2.956   0.746   8.728 -0.6742 -0.0380  0.2971
   10DOPE  H12A 1167   3.051   0.800   8.749 -0.0412 -1.1972  0.4711
   10DOPE  H12B 1168   2.977   0.659   8.662  0.3981  0.2577  0.2271
   10DOPE   C11 1169   2.873   0.703   8.851 -0.1561  0.1544  0.2078
   10DOPE  H11A 1170   2.851   0.794   8.912 -0.3211  1.0452 -1.1352
   10DOPE  H11B 1171   2.927   0.625   8.908 -1.5940 -2.1757 -1.4523
   10DOPE     P 1172   2.643   0.606   8.927 -0.0365 -0.1054  0.1020
   10DOPE   O13 1173   2.541   0.716   8.941  0.1114  0.0544 -0.4270
   10DOPE   O14 1174   2.715   0.557   9.048 -0.2175  0.4267 -0.4772
   10DOPE   O11 1175   2.569   0.486   8.857 -0.9455 -0.2757  0.4965
   10DOPE   O12 1176   2.752   0.640   8.819  0.0904 -0.0196 -0.0021
   10DOPE    C1 1177   2.649   0.369   8.817 -0.2237  0.2516  0.2989
   10DOPE    HA 1178   2.582   0.280   8.815  2.3393 -1.8618 -2.0931
   10DOPE    HB 1179   2.717   0.345   8.901 -0.7759  0.1635  0.7254
   10DOPE    C2 1180   2.731   0.375   8.674 -0.3148 -0.1197 -0.0210
   10DOPE    HS 1181   2.767   0.479   8.657  0.2203 -0.5295 -1.5723
   10DOPE   O21 1182   2.637   0.353   8.570  0.1318  0.2345  0.4755
   10DOPE   C21 1183   2.663   0.409   8.453 -0.6902 -0.4819  0.0295
   10DOPE   O22 1184   2.768   0.455   8.422 -0.0041 -0.6851  0.3552
   10DOPE   C22 1185   2.534   0.394   8.368 -0.7489  0.3173  0.0908
   10DOPE   H2R 1186   2.451   0.430   8.432 -1.7625 -0.6645 -0.6548
   10DOPE   H2S 1187   2.518   0.291   8.331  0.3749  0.0775  0.2300
   10DOPE    C3 1188   2.858   0.281   8.674  0.1005 -0.0622  0.8767
   10DOPE    HX 1189   2.942   0.316   8.739 -1.7701  1.2260  2.7091
   10DOPE    HY 1190   2.896   0.289   8.569 -0.1993  2.8449  0.9077
   10DOPE   O31 1191   2.824   0.142   8.695 -0.4050 -0.6483  0.2936
   10DOPE   C31 1192   2.926   0.058   8.715 -0.5831  0.4504 -0.3172
   10DOPE   O32 1193   3.046   0.082   8.696  0.0051  0.6612  0.2162
   10DOPE   C32 1194   2.873  -0.087   8.755 -0.0303 -0.2752  0.5644
   10DOPE   H2X 1195   2.945  -0.138   8.821 -0.9348 -0.5692  1.3463
   10DOPE   H2Y 1196   2.781  -0.065   8.814 -1.6339 -2.0823 -1.0864
   10DOPE   C23 1197   2.536   0.480   8.237  0.2651  0.0180 -0.1190
   10DOPE   H3R 1198   2.614   0.445   8.166 -0.5944 -0.3081 -0.9226
   10DOPE   H3S 1199   2.556   0.588   8.258 -1.5744  0.7435 -1.6887
   10DOPE   C24 1200   2.401   0.472   8.162  0.3519 -0.3047 -0.6101
   10DOPE   H4R 1201   2.317   0.523   8.214  0.8837  1.2025 -1.1633
   10DOPE   H4S 1202   2.376   0.365   8.147  1.3846 -0.9321  1.6780
   10DOPE   C25 1203   2.409   0.527   8.019 -0.1422 -0.1799 -0.5507
   10DOPE   H5R 1204   2.309   0.492   7.986  1.3950 -4.8760 -0.9562
   10DOPE   H5S 1205   2.485   0.466   7.965 -0.8296 -0.7935 -0.8346
   10DOPE   C26 1206   2.424   0.679   8.033 -0.0877 -0.5415  0.0201
   10DOPE   H6R 1207   2.525   0.704   8.071  0.0830 -0.3335 -0.5525
   10DOPE   H6S 1208   2.334   0.708   8.090 -0.2489 -1.8452  0.4730
   10DOPE   C27 1209   2.409   0.753   7.898 -0.4435 -0.3850 -0.2308
   10DOPE   H7R 1210   2.497   0.747   7.831 -0.1214  1.0419  0.0330
   10DOPE   H7S 1211   2.408   0.858   7.935  1.0821 -0.1772 -0.7091
   10DOPE   C28 1212   2.288   0.709   7.809  0.1121 -0.9194  0.4511
   10DOPE   H8R 1213   2.192   0.709   7.865  0.9834  2.4633  2.2046
   10DOPE   H8S 1214   2.320   0.609   7.773  1.0212 -0.0291 -1.3777
   10DOPE   C29 1215   2.266   0.796   7.686 -0.6127  0.4008 -1.4165
   10DOPE   H9R 1216   2.212   0.890   7.710 -0.2981  0.1895  0.2195
   10DOPE  C210 1217   2.274   0.746   7.565 -0.7160 -0.0376  0.0184
   10DOPE  H10R 1218   2.234   0.812   7.486 -0.8153 -1.8645 -1.5229
   10DOPE  C211 1219   2.316   0.612   7.517 -0.3315 -0.1970 -0.3657
   10DOPE  H11R 1220   2.234   0.578   7.450  1.2736 -1.1590 -1.9479
   10DOPE  H11S 1221   2.323   0.533   7.595  0.3637  1.3301  1.1787
   10DOPE  C212 1222   2.445   0.622   7.442  0.0850  0.3626  0.7188
   10DOPE  H12R 1223   2.532   0.609   7.510  0.0594  0.1980  0.7198
   10DOPE  H12S 1224   2.462   0.722   7.396  1.0374  0.5401  1.4308
   10DOPE  C213 1225   2.463   0.510   7.340 -0.0152  0.6393  0.3026
   10DOPE  H13R 1226   2.374   0.494   7.277  1.2059 -1.6042 -0.9992
   10DOPE  H13S 1227   2.480   0.415   7.396  1.4643  1.5472  1.4748
   10DOPE  C214 1228   2.582   0.546   7.247 -0.7240  1.1137  0.6026
   10DOPE  H14R 1229   2.635   0.449   7.235  2.6225  2.8986 -0.2275
   10DOPE  H14S 1230   2.657   0.612   7.296  0.0414 -0.7748  2.1165
   10DOPE  C215 1231   2.548   0.608   7.110 -0.0033 -0.0906 -0.3414
   10DOPE  H15R 1232   2.456   0.559   7.072 -1.1422 -0.8472  3.0268
   10DOPE  H15S 1233   2.626   0.587   7.034 -2.8247 -1.6087 -2.9816
   10DOPE  C216 1234   2.530   0.760   7.111 -0.1245 -0.0876  0.2191
   10DOPE  H16R 1235   2.613   0.803   7.170  0.4369  1.6407 -1.7450
   10DOPE  H16S 1236   2.442   0.788   7.174 -0.9374 -0.1795 -0.8406
   10DOPE  C217 1237   2.536   0.829   6.966 -0.4372  0.2653 -0.7881
   10DOPE  H17R 1238   2.630   0.815   6.911 -1.7494  0.3805 -3.1846
   10DOPE  H17S 1239   2.517   0.936   6.988  0.7825  0.4698 -0.6629
   10DOPE  C218 1240   2.423   0.785   6.869 -0.4572 -0.8701 -0.7004
   10DOPE  H18R 1241   2.440   0.677   6.852 -2.0820 -1.4168  0.8832
   10DOPE  H18S 1242   2.430   0.839   6.771  2.1847  0.8196  0.3131
   10DOPE  H18T 1243   2.318   0.791   6.903 -0.2568  0.7386 -0.2673
   10DOPE   C33 1244   2.824  -0.152   8.623  0.2339  0.4573 -0.5877
   10DOPE   H3X 1245   2.787  -0.084   8.544 -1.5974  0.7391  0.4466
   10DOPE   H3Y 1246   2.739  -0.222   8.642 -0.0395  0.3893 -1.9774
   10DOPE   C34 1247   2.927  -0.247   8.576 -0.6045  0.0382  1.0340
   10DOPE   H4X 1248   3.009  -0.192   8.523 -0.3154 -0.9504  0.4312
   10DOPE   H4Y 1249   2.972  -0.304   8.660 -2.7997 -1.0822  1.5182
   10DOPE   C35 1250   2.870  -0.356   8.476 -0.5046  0.5245 -0.0288
   10DOPE   H5X 1251   2.807  -0.426   8.535 -1.1449 -0.0189 -1.3097
   10DOPE   H5Y 1252   2.954  -0.417   8.437 -0.8875 -0.2660  0.3640
   10DOPE   C36 1253   2.793  -0.295   8.362  0.5567 -0.3939 -0.4454
   10DOPE   H6X 1254   2.858  -0.214   8.323  0.4644 -0.5121 -0.8516
   10DOPE   H6Y 1255   2.700  -0.252   8.405  1.1968 -0.4054  0.9765
   10DOPE   C37 1256   2.780  -0.394   8.244  0.0649 -0.3869 -0.3923
   10DOPE   H7X 1257   2.870  -0.453   8.217  2.1182  2.4668 -0.2103
   10DOPE   H7Y 1258   2.703  -0.463   8.285 -0.8787 -0.0007 -1.4459
   10DOPE   C38 1259   2.736  -0.320   8.113 -0.2434  0.5797  0.2753
   10DOPE   H8X 1260   2.827  -0.271   8.074 -0.9711  1.2277 -0.6496
   10DOPE   H8Y 1261   2.685  -0.222   8.130  2.7331  2.1152  1.1293
   10DOPE   C39 1262   2.660  -0.404   8.014 -0.5850  0.1879 -0.2376
   10DOPE   H9X 1263   2.605  -0.485   8.065 -2.4780  1.8229  0.4191
   10DOPE  C310 1264   2.684  -0.401   7.880 -0.0447 -0.5404  0.5501
   10DOPE  H10X 1265   2.624  -0.474   7.823 -2.4322  0.3732  1.7536
   10DOPE  C311 1266   2.761  -0.300   7.790 -0.1320  0.1983 -0.2355
   10DOPE  H11X 1267   2.770  -0.210   7.855  1.4003 -0.7002  0.8691
   10DOPE  H11Y 1268   2.859  -0.345   7.763 -0.5240  0.4809 -2.3244
   10DOPE  C312 1269   2.700  -0.264   7.660  0.2043  0.0419  0.1916
   10DOPE  H12X 1270   2.775  -0.198   7.613  0.9630 -0.1484  1.0957
   10DOPE  H12Y 1271   2.610  -0.201   7.675 -0.5092 -0.0129 -3.1226
   10DOPE  C313 1272   2.678  -0.385   7.568  0.6490 -0.1572 -0.1829
   10DOPE  H13X 1273   2.777  -0.434   7.559  1.2842  0.7634  1.3747
   10DOPE  H13Y 1274   2.598  -0.450   7.611 -0.1498  0.7984 -0.1857
   10DOPE  C314 1275   2.625  -0.353   7.424 -0.4997  0.1945 -0.2519
   10DOPE  H14X 1276   2.603  -0.445   7.365 -0.5806  0.6189 -0.9005
   10DOPE  H14Y 1277   2.714  -0.302   7.379  1.4526 -0.5242  2.5256
   10DOPE  C315 1278   2.514  -0.249   7.415  0.4901 -0.6021  0.1785
   10DOPE  H15X 1279   2.505  -0.220   7.308 -0.0622 -3.7707 -0.7340
   10DOPE  H15Y 1280   2.544  -0.160   7.474  0.6437 -0.2948 -0.3605
   10DOPE  C316 1281   2.381  -0.306   7.456  0.4232  0.1158 -1.3144
   10DOPE  H16X 1282   2.377  -0.334   7.563 -2.6829 -0.8956 -1.5852
   10DOPE  H16Y 1283   2.368  -0.393   7.387  1.0340 -0.2361 -0.9902
   10DOPE  C317 1284   2.257  -0.203   7.442 -0.0492  0.4462 -0.2354
   10DOPE  H17X 1285   2.167  -0.250   7.487  2.0279 -2.1704  1.5615
   10DOPE  H17Y 1286   2.265  -0.116   7.511  0.1740 -0.8208  1.4063
   10DOPE  C318 1287   2.229  -0.147   7.299 -0.4075  0.2725 -0.3039
   10DOPE  H18X 1288   2.316  -0.082   7.274 -0.9361  0.5039 -1.5877
   10DOPE  H18Y 1289   2.211  -0.223   7.220  0.0397 -0.0833 -0.0765
   10DOPE  H18Z 1290   2.137  -0.085   7.310  1.1007  2.3621  1.4785
   11DOPE     N 1291   0.855   3.202   8.256 -0.0295  0.8102 -0.2003
   11DOPE   HN1 1292   0.769   3.245   8.216 -1.7332 -2.3907 -0.3012
   11DOPE   HN2 1293   0.819   3.148   8.338 -0.5103  0.5269 -0.5882
   11DOPE   HN3 1294   0.917   3.273   8.300 -0.1676 -0.5724  2.4334
   11DOPE   C12 1295   0.925   3.111   8.166  0.1630  0.0887 -0.2081
   11DOPE  H12A 1296   0.976   3.170   8.086  0.2060 -1.4161 -1.3361
   11DOPE  H12B 1297   0.850   3.039   8.127 -0.7537  0.5627  0.6415
   11DOPE   C11 1298   1.024   3.020   8.248 -0.0829  0.1525 -0.2556
   11DOPE  H11A 1299   1.102   3.088   8.288  0.3589 -0.2553 -0.4082
   11DOPE  H11B 1300   1.069   2.957   8.168 -1.0219 -0.9790  0.0761
   11DOPE     P 1301   0.926   2.792   8.332  0.0863 -0.0967  0.2582
   11DOPE   O13 1302   0.803   2.759   8.408 -0.6449 -0.2376 -0.1216
   11DOPE   O14 1303   1.054   2.720   8.371  0.1280  0.2886  0.4030
   11DOPE   O11 1304   0.895   2.786   8.181  0.0917  0.3053  0.8791
   11DOPE   O12 1305   0.959   2.946   8.351  0.0564  0.0851  0.3566
   11DOPE    C1 1306   0.969   2.685   8.101  0.1001  0.4771  0.8604
   11DOPE    HA 1307   0.896   2.609   8.065  0.2056  1.1148 -0.8157
   11DOPE    HB 1308   1.055   2.633   8.148  0.0912 -0.5636 -0.2117
   11DOPE    C2 1309   1.011   2.749   7.965  0.0788  0.3270  0.2051
   11DOPE    HS 1310   1.094   2.820   7.987 -2.1434  3.2987 -0.4654
   11DOPE   O21 1311   0.905   2.809   7.902  0.0954  0.3233 -0.4018
   11DOPE   C21 1312   0.913   2.938   7.868 -0.5469  0.1990  0.4339
   11DOPE   O22 1313   1.012   3.014   7.886 -0.3837  0.8364 -0.2611
   11DOPE   C22 1314   0.781   2.983   7.810 -0.3417 -0.7949  0.3887
   11DOPE   H2R 1315   0.703   3.001   7.887  2.1342  3.3158  2.2702
   11DOPE   H2S 1316   0.760   2.902   7.738  0.7138 -0.0134 -0.8498
   11DOPE    C3 1317   1.075   2.640   7.873 -0.1790 -0.1830 -0.7431
   11DOPE    HX 1318   0.997   2.575   7.828 -0.6717 -0.2838  0.2246
   11DOPE    HY 1319   1.139   2.584   7.944  0.6573  0.9964 -0.5310
   11DOPE   O31 1320   1.172   2.699   7.777  0.0127 -0.1147 -0.1954
   11DOPE   C31 1321   1.148   2.698   7.642 -0.2888 -0.4110 -0.0664
   11DOPE   O32 1322   1.039   2.657   7.596 -0.5601 -0.4262 -0.0523
   11DOPE   C32 1323   1.259   2.758   7.563  0.2710  0.4266  0.3003
   11DOPE   H2X 1324   1.207   2.834   7.500  1.1309  1.4085  0.7431
   11DOPE   H2Y 1325   1.322   2.816   7.633 -0.9631  1.4833  0.5862
   11DOPE   C23 1326   0.793   3.111   7.718 -0.7943 -0.0831 -0.8429
   11DOPE   H3R 1327   0.812   3.194   7.789  1.0718 -0.7652 -0.4766
   11DOPE   H3S 1328   0.688   3.116   7.683 -1.2374  1.8128  0.6177
   11DOPE   C24 1329   0.893   3.113   7.605  0.0282  0.0750  0.9476
   11DOPE   H4R 1330   0.998   3.119   7.640  0.9601 -1.1669 -1.3699
   11DOPE   H4S 1331   0.869   3.193   7.532 -2.2023 -0.6812  0.7586
   11DOPE   C25 1332   0.906   2.988   7.509  0.7389  0.1858 -0.1890
   11DOPE   H5R 1333   0.810   2.945   7.471  0.4959  0.6138 -0.0652
   11DOPE   H5S 1334   0.943   2.899   7.563 -1.9201 -2.5502 -2.4739
   11DOPE   C26 1335   0.984   3.015   7.377  0.1951 -0.0438 -0.1760
   11DOPE   H6R 1336   1.084   3.056   7.402 -0.2125  1.8502 -1.4721
   11DOPE   H6S 1337   0.934   3.101   7.328 -0.5824 -0.5806 -0.3563
   11DOPE   C27 1338   0.983   2.893   7.280 -0.0261 -0.4450 -0.0217
   11DOPE   H7R 1339   0.884   2.877   7.233 -0.0880  2.2292 -0.9658
   11DOPE   H7S 1340   1.009   2.801   7.336  0.2080  0.2806  1.0922
   11DOPE   C28 1341   1.087   2.913   7.164  0.8640  0.4734 -0.3534
   11DOPE   H8R 1342   1.099   2.819   7.105 -3.7796 -1.2800  1.0440
   11DOPE   H8S 1343   1.179   2.937   7.222  0.3761  1.4885  0.0200
   11DOPE   C29 1344   1.050   3.029   7.075  0.1287 -0.4404 -0.1486
   11DOPE   H9R 1345   1.033   3.119   7.136  1.1948 -0.0614 -0.3930
   11DOPE  C210 1346   1.043   3.029   6.940  0.7141  0.1312 -0.1534
   11DOPE  H10R 1347   1.018   3.117   6.880  0.1024 -1.9398 -3.1573
   11DOPE  C211 1348   1.054   2.905   6.864  0.2775 -0.1076 -0.2841
   11DOPE  H11R 1349   0.955   2.856   6.878 -0.3625  1.0947 -0.4008
   11DOPE  H11S 1350   1.133   2.836   6.901 -0.6175 -0.7018  0.5632
   11DOPE  C212 1351   1.090   2.940   6.716  0.0029 -0.2790 -0.1758
   11DOPE  H12R 1352   1.004   2.977   6.657 -0.9903  1.5379  2.2574
   11DOPE  H12S 1353   1.128   2.848   6.667  0.9026 -0.6815  1.2344
   11DOPE  C213 1354   1.209   3.035   6.699 -0.0218  0.1000  0.1316
   11DOPE  H13R 1355   1.293   3.002   6.764  0.8122  0.4411 -0.7512
   11DOPE  H13S 1356   1.180   3.140   6.716 -2.6732 -0.4356 -0.6982
   11DOPE  C214 1357   1.266   3.024   6.555 -0.0168  0.4826  0.0832
   11DOPE  H14R 1358   1.297   2.919   6.540  0.0860  0.4117  0.7634
   11DOPE  H14S 1359   1.349   3.098   6.554 -0.8831  1.4920  0.2117
   11DOPE  C215 1360   1.171   3.072   6.447  0.4955  0.5016  0.5685
   11DOPE  H15R 1361   1.153   3.179   6.472  0.0686 -0.0399  2.8190
   11DOPE  H15S 1362   1.071   3.024   6.451  1.0822 -0.7794  0.2811
   11DOPE  C216 1363   1.252   3.062   6.310  1.2328 -0.9098 -0.1575
   11DOPE  H16R 1364   1.266   2.954   6.288  3.6644 -0.2045 -2.6629
   11DOPE  H16S 1365   1.357   3.098   6.315  1.0313 -0.2880 -0.3356
   11DOPE  C217 1366   1.184   3.133   6.189  0.1720 -0.7425  1.3272
   11DOPE  H17R 1367   1.137   3.227   6.225 -0.2872 -0.5426  0.2421
   11DOPE  H17S 1368   1.106   3.064   6.151  1.7260 -1.4043 -0.8591
   11DOPE  C218 1369   1.280   3.168   6.075  0.1804  0.0223 -0.2323
   11DOPE  H18R 1370   1.369   3.101   6.074  1.1747  1.3064 -0.9542
   11DOPE  H18S 1371   1.315   3.270   6.102 -0.9392  0.0304  1.3238
   11DOPE  H18T 1372   1.226   3.179   5.979  2.0849  0.1899 -1.3462
   11DOPE   C33 1373   1.339   2.661   7.473  0.3085 -0.2008  0.2987
   11DOPE   H3X 1374   1.268   2.591   7.424  0.5718  0.3901 -0.9587
   11DOPE   H3Y 1375   1.414   2.609   7.536 -1.1934 -4.1706 -0.9258
   11DOPE   C34 1376   1.410   2.738   7.359 -0.0077  1.0416  0.2865
   11DOPE   H4X 1377   1.348   2.823   7.324  0.3956  1.5775  0.8462
   11DOPE   H4Y 1378   1.508   2.771   7.400 -0.3276  0.9561  1.1446
   11DOPE   C35 1379   1.442   2.648   7.236 -0.3490 -0.1555 -0.3439
   11DOPE   H5X 1380   1.354   2.585   7.210 -1.2442  1.1722 -0.5960
   11DOPE   H5Y 1381   1.538   2.593   7.251  0.5695  1.2460 -0.9815
   11DOPE   C36 1382   1.466   2.747   7.119  0.2602 -0.0955 -0.2573
   11DOPE   H6X 1383   1.571   2.783   7.128 -0.0828  0.5042  1.6811
   11DOPE   H6Y 1384   1.392   2.829   7.113 -0.2400 -0.4586  0.8264
   11DOPE   C37 1385   1.452   2.674   6.980 -0.4825  0.0393  0.8783
   11DOPE   H7X 1386   1.520   2.588   6.960  0.5457  1.0508 -0.1085
   11DOPE   H7Y 1387   1.346   2.645   6.961 -0.1071 -0.7156 -0.1624
   11DOPE   C38 1388   1.487   2.778   6.874  0.6575 -0.2017  0.7472
   11DOPE   H8X 1389   1.584   2.831   6.889 -0.0307  1.5361 -0.6402
   11DOPE   H8Y 1390   1.409   2.857   6.884  0.2594 -0.7526  2.3947
   11DOPE   C39 1391   1.469   2.727   6.729 -0.0218 -0.4868  0.4297
   11DOPE   H9X 1392   1.386   2.655   6.723 -0.0492 -0.3304 -1.8026
   11DOPE  C310 1393   1.553   2.739   6.627  0.8067 -0.9011 -0.4133
   11DOPE  H10X 1394   1.520   2.678   6.541 -3.9165  0.4271  0.1376
   11DOPE  C311 1395   1.680   2.827   6.628  0.7779  0.6708 -0.5095
   11DOPE  H11X 1396   1.713   2.846   6.732  0.1515  0.1423 -0.2073
   11DOPE  H11Y 1397   1.765   2.775   6.579  0.1294  0.7240 -1.7317
   11DOPE  C312 1398   1.666   2.966   6.569  0.0601  0.2112  0.3810
   11DOPE  H12X 1399   1.748   3.034   6.603 -1.5791  1.2762  2.4438
   11DOPE  H12Y 1400   1.576   3.023   6.599 -0.2661  0.6976 -1.3873
   11DOPE  C313 1401   1.657   2.953   6.415  0.2494  0.3503  0.1370
   11DOPE  H13X 1402   1.748   2.898   6.384 -0.1094 -0.6998  0.9073
   11DOPE  H13Y 1403   1.564   2.901   6.385  1.0535 -1.4948  0.7132
   11DOPE  C314 1404   1.646   3.079   6.328  0.5825 -0.0483  0.7883
   11DOPE  H14X 1405   1.554   3.136   6.351  1.2715  1.4366 -0.0122
   11DOPE  H14Y 1406   1.640   3.060   6.219 -2.1606  2.2063  0.4407
   11DOPE  C315 1407   1.761   3.177   6.341 -0.4672  0.0190  0.2106
   11DOPE  H15X 1408   1.852   3.133   6.295  0.3488  0.0164  1.7654
   11DOPE  H15Y 1409   1.779   3.186   6.450  1.7450 -0.7967 -0.0233
   11DOPE  C316 1410   1.729   3.314   6.290  0.4204 -0.1843  0.1920
   11DOPE  H16X 1411   1.783   3.393   6.346  0.6122 -0.7903  0.8813
   11DOPE  H16Y 1412   1.619   3.329   6.295  0.5153  1.0803 -0.8098
   11DOPE  C317 1413   1.742   3.346   6.136 -0.5060  0.8369 -0.3634
   11DOPE  H17X 1414   1.721   3.257   6.073  1.1852  0.2195 -0.1066
   11DOPE  H17Y 1415   1.663   3.422   6.116 -1.2757  0.7810  2.1137
   11DOPE  C318 1416   1.882   3.402   6.094 -0.3066  0.1847 -0.2912
   11DOPE  H18X 1417   1.894   3.510   6.117  0.9450  0.0475 -0.2671
   11DOPE  H18Y 1418   1.962   3.341   6.139  0.6000  0.7156 -1.1533
   11DOPE  H18Z 1419   1.893   3.388   5.985  2.0601 -0.4517 -0.0158
   12DOPE     N 1420   4.185   0.359   8.816 -0.0998 -0.4672  0.4614
   12DOPE   HN1 1421   4.174   0.348   8.713 -0.8962 -3.0430  0.7315
   12DOPE   HN2 1422   4.283   0.345   8.848 -0.7134 -0.5234  2.4903
   12DOPE   HN3 1423   4.121   0.291   8.863  1.1529 -1.2806  1.0525
   12DOPE   C12 1424   4.151   0.506   8.839  0.0661  0.7794  0.4390
   12DOPE  H12A 1425   4.197   0.574   8.764 -1.7671  1.4969 -0.1049
   12DOPE  H12B 1426   4.201   0.546   8.929 -3.9009  2.1654  2.2441
   12DOPE   C11 1427   4.001   0.520   8.864  0.9126 -0.6653  0.2541
   12DOPE  H11A 1428   3.992   0.631   8.867 -1.3077 -0.7656 -0.4186
   12DOPE  H11B 1429   3.974   0.472   8.961  1.5880 -1.4469  0.0615
   12DOPE     P 1430   3.763   0.516   8.770 -0.0392  0.4822 -0.1283
   12DOPE   O13 1431   3.738   0.591   8.895  0.5006 -0.2032 -0.3343
   12DOPE   O14 1432   3.678   0.396   8.757 -0.6216 -0.0993  0.3602
   12DOPE   O11 1433   3.731   0.616   8.642 -0.0055  0.0730 -0.0022
   12DOPE   O12 1434   3.912   0.470   8.761 -0.2388 -0.3397 -0.0726
   12DOPE    C1 1435   3.838   0.658   8.557  0.1276 -0.9535 -0.5086
   12DOPE    HA 1436   3.937   0.636   8.602  1.4386 -0.4388 -2.9848
   12DOPE    HB 1437   3.846   0.768   8.573 -2.6931 -0.8820  1.0518
   12DOPE    C2 1438   3.821   0.605   8.416 -0.0239 -0.2063  0.1045
   12DOPE    HS 1439   3.892   0.648   8.343 -0.6599 -0.8263 -0.8929
   12DOPE   O21 1440   3.686   0.636   8.371 -0.3713 -0.0508 -0.4799
   12DOPE   C21 1441   3.674   0.667   8.244  0.7352  0.8475  0.7758
   12DOPE   O22 1442   3.769   0.686   8.166 -0.1281  0.1887 -0.5034
   12DOPE   C22 1443   3.527   0.675   8.209  0.0504 -0.9341  0.8423
   12DOPE   H2R 1444   3.487   0.749   8.281  1.1987  0.0639  0.4850
   12DOPE   H2S 1445   3.482   0.575   8.226  0.2970 -1.0746  0.6870
   12DOPE    C3 1446   3.836   0.449   8.422  0.4341 -0.5593 -0.7042
   12DOPE    HX 1447   3.749   0.404   8.474 -1.6215  1.5569 -2.1207
   12DOPE    HY 1448   3.926   0.442   8.487 -1.6771  1.2537  2.6917
   12DOPE   O31 1449   3.839   0.388   8.293  0.5236  0.5239 -0.0218
   12DOPE   C31 1450   3.954   0.350   8.243 -0.2168  0.2567  0.1381
   12DOPE   O32 1451   4.066   0.362   8.297  0.5027 -0.6881  0.1048
   12DOPE   C32 1452   3.940   0.300   8.103 -0.5944  0.1792  0.2216
   12DOPE   H2X 1453   4.044   0.306   8.065 -0.9099  1.6558 -0.4906
   12DOPE   H2Y 1454   3.913   0.193   8.111 -1.4502  0.4814  1.7916
   12DOPE   C23 1455   3.489   0.725   8.065  0.1282 -0.6069 -0.3782
   12DOPE   H3R 1456   3.546   0.813   8.029 -1.2738  0.8698  0.8454
   12DOPE   H3S 1457   3.385   0.763   8.052  0.6245  0.1242 -2.6106
   12DOPE   C24 1458   3.507   0.610   7.964 -0.1068  0.4828  0.3352
   12DOPE   H4R 1459   3.455   0.520   8.002 -0.5142  1.7786  3.1457
   12DOPE   H4S 1460   3.616   0.598   7.949 -0.0313  2.0130 -0.6169
   12DOPE   C25 1461   3.427   0.653   7.839 -0.6207  0.7634  0.3267
   12DOPE   H5R 1462   3.458   0.750   7.795 -0.1060 -0.0507 -1.1969
   12DOPE   H5S 1463   3.317   0.648   7.852 -0.7014  3.5497  1.2432
   12DOPE   C26 1464   3.452   0.554   7.714  0.0628  0.2073 -0.5035
   12DOPE   H6R 1465   3.397   0.462   7.739  1.4486 -0.0137  2.1410
   12DOPE   H6S 1466   3.558   0.522   7.700  0.4436  0.4434  1.5609
   12DOPE   C27 1467   3.380   0.597   7.586  0.2842 -0.6903  0.3501
   12DOPE   H7R 1468   3.285   0.644   7.620 -0.1249 -0.5942 -0.8730
   12DOPE   H7S 1469   3.358   0.505   7.527 -0.8331  1.3965 -2.7382
   12DOPE   C28 1470   3.455   0.686   7.492  0.7085 -0.4488 -0.0897
   12DOPE   H8R 1471   3.547   0.639   7.450 -1.1606 -0.1316 -5.2783
   12DOPE   H8S 1472   3.494   0.770   7.554  1.5585 -0.3118 -0.7824
   12DOPE   C29 1473   3.377   0.755   7.380 -0.2441 -0.8997  0.3406
   12DOPE   H9R 1474   3.370   0.864   7.370  1.9596 -0.9066 -2.1486
   12DOPE  C210 1475   3.344   0.690   7.271 -0.0755  0.3124  0.8354
   12DOPE  H10R 1476   3.289   0.729   7.185 -0.5707 -2.9465 -0.4574
   12DOPE  C211 1477   3.361   0.539   7.258 -0.3281 -0.7064 -0.0160
   12DOPE  H11R 1478   3.445   0.501   7.320  1.4786  1.2839 -1.1159
   12DOPE  H11S 1479   3.395   0.511   7.156 -0.9937 -0.9790 -0.1664
   12DOPE  C212 1480   3.236   0.459   7.283 -0.0805  0.6173 -0.3956
   12DOPE  H12R 1481   3.168   0.514   7.352  3.0750  5.5167 -0.7844
   12DOPE  H12S 1482   3.249   0.358   7.327  1.0728  0.3696 -1.2651
   12DOPE  C213 1483   3.163   0.436   7.155 -0.1711 -0.3885 -0.1222
   12DOPE  H13R 1484   3.235   0.387   7.086  1.5224  3.0745 -1.0551
   12DOPE  H13S 1485   3.144   0.534   7.105  0.1323 -0.1383  0.2497
   12DOPE  C214 1486   3.021   0.365   7.152 -0.4069 -0.4283 -0.5614
   12DOPE  H14R 1487   2.966   0.392   7.244  1.7528 -1.7953  1.2392
   12DOPE  H14S 1488   3.049   0.260   7.174  1.3026 -0.3706 -2.1575
   12DOPE  C215 1489   2.936   0.378   7.027 -0.1092 -0.6820  1.0602
   12DOPE  H15R 1490   2.926   0.486   7.002  1.2935 -0.5962  0.8056
   12DOPE  H15S 1491   2.829   0.353   7.046 -0.5800  1.8526  2.1447
   12DOPE  C216 1492   2.987   0.282   6.921 -0.1125 -0.2227  0.9093
   12DOPE  H16R 1493   2.974   0.175   6.951 -3.6384 -0.3889 -0.7249
   12DOPE  H16S 1494   3.093   0.308   6.904  0.1533 -2.1221 -0.6960
   12DOPE  C217 1495   2.909   0.297   6.788  0.1442 -0.0464  0.0386
   12DOPE  H17R 1496   2.806   0.256   6.794  0.5702 -1.0356  0.7496
   12DOPE  H17S 1497   2.963   0.234   6.713 -1.8147 -1.9932  0.1384
   12DOPE  C218 1498   2.897   0.438   6.729  0.8859 -0.4172  0.1883
   12DOPE  H18R 1499   2.915   0.438   6.619  3.0442  1.4819  0.4553
   12DOPE  H18S 1500   2.978   0.496   6.778  1.5590 -1.6772  0.5910
   12DOPE  H18T 1501   2.795   0.480   6.744  0.2372 -1.7385 -0.3297
   12DOPE   C33 1502   3.843   0.357   7.996  0.7146 -0.1878  0.1459
   12DOPE   H3X 1503   3.866   0.465   7.988 -0.6923  0.1012 -0.4000
   12DOPE   H3Y 1504   3.739   0.347   8.033  0.2002 -0.9318 -1.3964
   12DOPE   C34 1505   3.851   0.289   7.859  0.4228 -0.4259 -0.1743
   12DOPE   H4X 1506   3.960   0.275   7.841  0.6455 -1.2336  1.6559
   12DOPE   H4Y 1507   3.809   0.187   7.875  1.4800 -0.7476  0.6915
   12DOPE   C35 1508   3.788   0.366   7.744  0.5223 -0.4513  0.5153
   12DOPE   H5X 1509   3.850   0.457   7.732 -1.8599  1.2657  0.4798
   12DOPE   H5Y 1510   3.689   0.402   7.778  2.1338  0.8679  4.2574
   12DOPE   C36 1511   3.785   0.289   7.607  0.0207 -0.2318  0.0827
   12DOPE   H6X 1512   3.732   0.192   7.618 -1.0948  0.3394 -0.0118
   12DOPE   H6Y 1513   3.887   0.258   7.578 -0.7751 -1.2999 -1.6643
   12DOPE   C37 1514   3.722   0.372   7.483  0.5493 -0.8698 -0.2615
   12DOPE   H7X 1515   3.618   0.385   7.521  1.6031  1.6991  2.0467
   12DOPE   H7Y 1516   3.769   0.472   7.472  0.6380 -0.9034 -0.1850
   12DOPE   C38 1517   3.687   0.294   7.355 -1.4218  0.4204  0.2598
   12DOPE   H8X 1518   3.616   0.345   7.286 -0.8039  1.1381  0.1372
   12DOPE   H8Y 1519   3.650   0.195   7.387  0.3656 -0.4750 -0.2982
   12DOPE   C39 1520   3.820   0.279   7.283  0.4123  0.5085 -0.4160
   12DOPE   H9X 1521   3.889   0.208   7.330 -0.2822 -0.7819 -1.3033
   12DOPE  C310 1522   3.855   0.351   7.177 -0.0156  0.5247 -0.7179
   12DOPE  H10X 1523   3.952   0.335   7.127  0.6960 -1.0719  1.0553
   12DOPE  C311 1524   3.763   0.455   7.112 -0.1828 -0.0787  0.1856
   12DOPE  H11X 1525   3.669   0.481   7.165 -0.4919 -0.6689 -0.0576
   12DOPE  H11Y 1526   3.802   0.558   7.102  0.6606 -0.2619  1.3912
   12DOPE  C312 1527   3.723   0.400   6.969  0.3217 -0.0091  0.0844
   12DOPE  H12X 1528   3.721   0.289   6.961 -1.6484  0.0656 -1.0985
   12DOPE  H12Y 1529   3.801   0.431   6.896  1.5494  0.1498  1.3940
   12DOPE  C313 1530   3.586   0.446   6.919 -0.2920  0.0238 -0.0531
   12DOPE  H13X 1531   3.574   0.402   6.818 -0.3474  1.1760 -0.5599
   12DOPE  H13Y 1532   3.511   0.402   6.988 -1.5319  2.8413  0.5164
   12DOPE  C314 1533   3.577   0.598   6.915 -0.6640 -0.4959 -0.1189
   12DOPE  H14X 1534   3.656   0.627   6.843 -1.6741  0.2749 -0.9617
   12DOPE  H14Y 1535   3.598   0.640   7.015 -0.8852  0.5393 -0.4901
   12DOPE  C315 1536   3.440   0.651   6.885  0.2692  0.1826 -0.2195
   12DOPE  H15X 1537   3.412   0.743   6.941  0.3060 -0.9031  1.6200
   12DOPE  H15Y 1538   3.358   0.577   6.896 -0.0181  0.1752 -2.0552
   12DOPE  C316 1539   3.431   0.686   6.734  0.0213  0.2030  0.6035
   12DOPE  H16X 1540   3.326   0.712   6.708  0.4644 -0.4487 -2.1970
   12DOPE  H16Y 1541   3.464   0.599   6.673  2.2317 -0.4135  2.5193
   12DOPE  C317 1542   3.519   0.807   6.697  0.4527 -0.1077  0.2839
   12DOPE  H17X 1543   3.505   0.889   6.770  0.3552 -0.2207  0.3933
   12DOPE  H17Y 1544   3.625   0.772   6.697 -0.3030 -2.7377 -1.6883
   12DOPE  C318 1545   3.484   0.877   6.566  0.3128  0.2757  0.5597
   12DOPE  H18X 1546   3.381   0.914   6.585  1.5124  3.0778  2.1976
   12DOPE  H18Y 1547   3.544   0.966   6.538  0.0735 -0.2854 -2.0247
   12DOPE  H18Z 1548   3.482   0.803   6.483 -2.3627  0.2046  0.6018
   13DOPE     N 1549   2.909   3.706   8.627  0.3897  0.1388  0.2948
   13DOPE   HN1 1550   2.926   3.626   8.563  0.5271 -0.9726  1.6681
   13DOPE   HN2 1551   2.938   3.799   8.588 -1.7613  1.6888  2.1324
   13DOPE   HN3 1552   2.969   3.676   8.706 -1.5238 -2.4966  0.8450
   13DOPE   C12 1553   2.770   3.692   8.659  0.1479  0.3805 -0.7606
   13DOPE  H12A 1554   2.707   3.720   8.572 -2.8957  0.6021  1.3533
   13DOPE  H12B 1555   2.765   3.756   8.750  4.0243  2.5022 -1.8533
   13DOPE   C11 1556   2.754   3.548   8.712 -0.9107  0.2064 -0.2441
   13DOPE  H11A 1557   2.765   3.470   8.634  0.7364  0.3664 -0.1976
   13DOPE  H11B 1558   2.656   3.542   8.765 -0.0535 -2.0877  1.2030
   13DOPE     P 1559   2.853   3.394   8.890 -0.3841  0.2242 -0.4709
   13DOPE   O13 1560   2.716   3.357   8.934  0.5787 -0.3711 -0.0324
   13DOPE   O14 1561   2.955   3.388   8.996 -0.0426 -0.4160  0.0960
   13DOPE   O11 1562   2.902   3.298   8.776 -0.5066  0.0531 -0.3515
   13DOPE   O12 1563   2.858   3.522   8.804  0.2426 -0.6424  0.3751
   13DOPE    C1 1564   3.032   3.269   8.734 -0.4264 -0.2614  0.9887
   13DOPE    HA 1565   3.042   3.164   8.701 -0.3654 -0.3996  1.4377
   13DOPE    HB 1566   3.111   3.286   8.811 -1.6796 -0.3687  2.3645
   13DOPE    C2 1567   3.060   3.359   8.607 -0.2462  0.6026 -0.4851
   13DOPE    HS 1568   3.042   3.462   8.645 -1.1953  0.2265  0.1221
   13DOPE   O21 1569   2.973   3.309   8.502 -0.2400  0.3448 -1.0981
   13DOPE   C21 1570   2.920   3.398   8.430  0.2352  0.0054 -0.2977
   13DOPE   O22 1571   2.933   3.520   8.442  0.2065  0.2259 -0.1325
   13DOPE   C22 1572   2.840   3.333   8.311 -0.0050  0.9951 -0.3315
   13DOPE   H2R 1573   2.756   3.274   8.353  1.9678 -0.5804  1.6038
   13DOPE   H2S 1574   2.911   3.263   8.262 -1.5921 -0.2861 -0.8834
   13DOPE    C3 1575   3.208   3.346   8.569  0.0236  0.2697  0.4126
   13DOPE    HX 1576   3.234   3.238   8.560 -0.8165  0.0535  0.5118
   13DOPE    HY 1577   3.278   3.383   8.647  2.5519 -0.2345 -1.4956
   13DOPE   O31 1578   3.232   3.407   8.444 -0.6584  0.3109 -0.1204
   13DOPE   C31 1579   3.282   3.534   8.447  0.2461 -0.2482 -0.7647
   13DOPE   O32 1580   3.320   3.588   8.548 -0.0010  0.1866  0.1363
   13DOPE   C32 1581   3.265   3.599   8.312  0.1019  0.2076  0.1155
   13DOPE   H2X 1582   3.244   3.522   8.235 -2.7705  2.1425 -1.2260
   13DOPE   H2Y 1583   3.173   3.662   8.310 -0.4948 -0.6383 -2.0286
   13DOPE   C23 1584   2.800   3.432   8.194  0.7497 -0.1131 -0.9169
   13DOPE   H3R 1585   2.881   3.495   8.153 -1.3169  3.0912 -0.3799
   13DOPE   H3S 1586   2.729   3.503   8.241  0.6849 -0.2563 -0.7985
   13DOPE   C24 1587   2.731   3.356   8.084  0.5079  0.4587  0.2814
   13DOPE   H4R 1588   2.635   3.329   8.133  1.2993 -0.1907  1.5314
   13DOPE   H4S 1589   2.787   3.264   8.057  0.6237  1.1722 -2.1446
   13DOPE   C25 1590   2.700   3.443   7.966 -0.2811  0.4612 -0.0709
   13DOPE   H5R 1591   2.794   3.475   7.917  1.1513 -0.8890  1.6281
   13DOPE   H5S 1592   2.642   3.531   8.000  0.8035  0.7751  1.0623
   13DOPE   C26 1593   2.617   3.368   7.861  0.5886  0.2606 -0.1261
   13DOPE   H6R 1594   2.523   3.323   7.900  1.0042 -0.4448  0.0774
   13DOPE   H6S 1595   2.673   3.275   7.837  1.1093  0.5252  0.0401
   13DOPE   C27 1596   2.600   3.442   7.729 -0.1241 -0.0104  0.3777
   13DOPE   H7R 1597   2.690   3.506   7.727  1.5222 -2.0269  2.9717
   13DOPE   H7S 1598   2.513   3.510   7.743 -0.5863 -0.7255  1.1128
   13DOPE   C28 1599   2.580   3.346   7.611  0.5407 -0.2621 -0.2898
   13DOPE   H8R 1600   2.490   3.288   7.640 -0.2324  1.2539  0.5156
   13DOPE   H8S 1601   2.665   3.277   7.596  0.8513  0.5068 -2.2838
   13DOPE   C29 1602   2.561   3.430   7.488  0.2455  0.1778 -0.2431
   13DOPE   H9R 1603   2.642   3.501   7.467  1.0968 -0.6612  0.1293
   13DOPE  C210 1604   2.463   3.433   7.393 -0.0970 -0.1346 -0.0223
   13DOPE  H10R 1605   2.460   3.512   7.316 -0.8877 -1.9586 -1.9633
   13DOPE  C211 1606   2.346   3.346   7.374  0.3525  0.2284 -0.0239
   13DOPE  H11R 1607   2.258   3.415   7.370  0.9004  1.0389  1.4324
   13DOPE  H11S 1608   2.338   3.277   7.461  1.6031  2.9620  2.4076
   13DOPE  C212 1609   2.346   3.273   7.240  0.0483  0.0503 -0.3259
   13DOPE  H12R 1610   2.261   3.203   7.226  0.3702 -0.3387 -0.3567
   13DOPE  H12S 1611   2.445   3.223   7.236  1.3934  2.5358 -0.3200
   13DOPE  C213 1612   2.331   3.370   7.115 -0.2064  0.0909 -0.3093
   13DOPE  H13R 1613   2.427   3.425   7.109 -0.6999  1.3592  2.1092
   13DOPE  H13S 1614   2.257   3.451   7.135 -0.9132 -0.4035 -0.8581
   13DOPE  C214 1615   2.290   3.299   6.980 -0.1412 -0.6478  0.0063
   13DOPE  H14R 1616   2.179   3.299   6.974 -0.1283  1.4081 -1.6907
   13DOPE  H14S 1617   2.316   3.191   6.980 -1.2301 -0.9298 -0.6735
   13DOPE  C215 1618   2.345   3.376   6.859  0.2870  0.5636  0.7978
   13DOPE  H15R 1619   2.452   3.394   6.885  0.1194 -0.3880  2.3003
   13DOPE  H15S 1620   2.291   3.472   6.868  1.4975  1.0737  4.1606
   13DOPE  C216 1621   2.318   3.310   6.720  0.3538  0.3842  0.5076
   13DOPE  H16R 1622   2.210   3.285   6.708  0.9424 -1.0705 -2.6045
   13DOPE  H16S 1623   2.350   3.204   6.722  0.1779  0.3133 -0.3274
   13DOPE  C217 1624   2.381   3.376   6.603 -0.2634  0.7023  0.0250
   13DOPE  H17R 1625   2.343   3.336   6.506 -0.9214  1.0985  0.1104
   13DOPE  H17S 1626   2.491   3.361   6.607  0.1913  3.6422  1.7293
   13DOPE  C218 1627   2.354   3.527   6.591  0.1271 -0.1859 -0.6554
   13DOPE  H18R 1628   2.392   3.578   6.682 -1.4462 -0.0409 -0.0393
   13DOPE  H18S 1629   2.245   3.548   6.591 -0.0017 -0.5503  1.8298
   13DOPE  H18T 1630   2.406   3.565   6.501 -0.3336 -0.7648 -1.1812
   13DOPE   C33 1631   3.382   3.690   8.275 -0.5003  0.5888 -0.4834
   13DOPE   H3X 1632   3.481   3.651   8.244 -0.6846 -0.5835  0.3579
   13DOPE   H3Y 1633   3.410   3.749   8.366 -0.8752  0.3509 -0.2124
   13DOPE   C34 1634   3.349   3.795   8.169  0.7324 -0.1797  0.2023
   13DOPE   H4X 1635   3.254   3.842   8.202  0.8086  0.5761 -0.6465
   13DOPE   H4Y 1636   3.428   3.871   8.179  1.2821 -0.3886 -2.1519
   13DOPE   C35 1637   3.349   3.748   8.025 -0.6586  0.0362 -0.1819
   13DOPE   H5X 1638   3.291   3.656   8.005  1.9945 -1.4543 -1.6470
   13DOPE   H5Y 1639   3.447   3.697   8.014  1.1847  2.9657  1.2532
   13DOPE   C36 1640   3.352   3.861   7.923  1.4698 -0.2803  0.4363
   13DOPE   H6X 1641   3.432   3.935   7.944  0.5151  0.6801  0.7583
   13DOPE   H6Y 1642   3.258   3.919   7.915  1.6885 -0.0841 -0.8335
   13DOPE   C37 1643   3.356   3.795   7.781  0.5699  0.5026 -0.3226
   13DOPE   H7X 1644   3.450   3.737   7.768  0.2338 -0.0955 -0.1207
   13DOPE   H7Y 1645   3.266   3.730   7.779  0.1483  1.0847 -0.6469
   13DOPE   C38 1646   3.350   3.894   7.663  0.6942 -0.6931 -0.1613
   13DOPE   H8X 1647   3.451   3.940   7.655  1.1592 -1.5160  0.7558
   13DOPE   H8Y 1648   3.274   3.970   7.692  1.3335  0.5674 -1.6326
   13DOPE   C39 1649   3.319   3.822   7.530  0.2717  0.3207 -0.6249
   13DOPE   H9X 1650   3.247   3.739   7.533  1.0823 -0.3874  1.9438
   13DOPE  C310 1651   3.362   3.851   7.413 -0.3916  0.3344  0.3086
   13DOPE  H10X 1652   3.334   3.784   7.331 -1.8952  2.0424 -0.6565
   13DOPE  C311 1653   3.446   3.974   7.374 -0.6003  0.7018  0.9695
   13DOPE  H11X 1654   3.381   4.062   7.359 -0.3045  1.0244  1.5509
   13DOPE  H11Y 1655   3.515   4.006   7.455 -0.5223  3.6764 -0.1334
   13DOPE  C312 1656   3.538   3.969   7.247 -0.3334  0.1550  0.1640
   13DOPE  H12X 1657   3.612   3.889   7.269  0.7410  1.5620  1.9485
   13DOPE  H12Y 1658   3.598   4.062   7.237 -1.5388  0.8379 -1.0890
   13DOPE  C313 1659   3.463   3.963   7.121 -0.1966  0.2483  0.0173
   13DOPE  H13X 1660   3.382   3.887   7.128 -1.0247  1.1100 -0.1566
   13DOPE  H13Y 1661   3.414   4.061   7.106 -0.7404 -0.1751 -1.1154
   13DOPE  C314 1662   3.561   3.936   7.005  0.1064  0.0318  0.5447
   13DOPE  H14X 1663   3.600   3.832   7.017  0.1632 -0.0643 -0.3881
   13DOPE  H14Y 1664   3.657   3.990   7.018  0.8412 -1.1607  0.1878
   13DOPE  C315 1665   3.507   3.951   6.865 -0.0022  0.1226 -0.1384
   13DOPE  H15X 1666   3.428   3.876   6.845  0.5684  0.1447 -2.8489
   13DOPE  H15Y 1667   3.592   3.920   6.801  1.7994  1.2118  1.5832
   13DOPE  C316 1668   3.458   4.086   6.819  1.1011 -0.4221 -0.1369
   13DOPE  H16X 1669   3.369   4.120   6.876  1.0560  2.3989 -1.7033
   13DOPE  H16Y 1670   3.438   4.091   6.709 -0.9005 -0.3263  0.1971
   13DOPE  C317 1671   3.568   4.192   6.824 -0.1639 -0.3958 -0.4239
   13DOPE  H17X 1672   3.518   4.285   6.789  1.4352  0.6052 -0.1204
   13DOPE  H17Y 1673   3.592   4.204   6.931  1.5461  0.8007 -0.9048
   13DOPE  C318 1674   3.694   4.169   6.748 -0.0986  0.4715 -0.5590
   13DOPE  H18X 1675   3.744   4.077   6.786 -0.7238 -0.0483 -0.9648
   13DOPE  H18Y 1676   3.673   4.154   6.640 -0.7292 -0.8197 -0.2848
   13DOPE  H18Z 1677   3.764   4.254   6.757 -0.7462  0.7840  2.6932
   14DOPE     N 1678   1.510   4.829   8.945 -0.2831  0.0834 -0.1379
   14DOPE   HN1 1679   1.577   4.885   8.889 -0.6268  1.5680  0.8947
   14DOPE   HN2 1680   1.465   4.760   8.881 -0.4480  0.6966 -0.6899
   14DOPE   HN3 1681   1.435   4.892   8.980  0.9038  1.1961  0.4754
   14DOPE   C12 1682   1.583   4.767   9.063  0.2395 -0.0889  0.0294
   14DOPE  H12A 1683   1.524   4.686   9.110 -0.6732  0.2351 -0.5284
   14DOPE  H12B 1684   1.611   4.855   9.124  0.3630  0.3217 -0.6016
   14DOPE   C11 1685   1.713   4.698   9.016 -1.0022 -0.4932 -0.7778
   14DOPE  H11A 1686   1.779   4.662   9.098  0.2223  2.1190 -0.5240
   14DOPE  H11B 1687   1.772   4.779   8.968  2.7497 -1.1727  2.1730
   14DOPE     P 1688   1.785   4.493   8.857 -0.0470  0.7955 -0.2281
   14DOPE   O13 1689   1.708   4.379   8.786 -0.1995  0.1402  0.4035
   14DOPE   O14 1690   1.897   4.452   8.945 -0.3963  0.2559  0.1912
   14DOPE   O11 1691   1.837   4.594   8.747 -0.1600 -0.9785 -0.4139
   14DOPE   O12 1692   1.682   4.584   8.933  0.1254 -0.0720  0.1503
   14DOPE    C1 1693   1.732   4.663   8.676  0.1666 -0.0690 -0.4405
   14DOPE    HA 1694   1.749   4.772   8.687  3.3798 -0.4474 -0.5985
   14DOPE    HB 1695   1.628   4.645   8.712  0.2405 -2.0527 -1.0819
   14DOPE    C2 1696   1.736   4.647   8.509  0.7860  0.0905  0.0553
   14DOPE    HS 1697   1.727   4.538   8.492  0.2981  0.3043 -1.1021
   14DOPE   O21 1698   1.866   4.699   8.463 -0.3273  0.5761  0.3397
   14DOPE   C21 1699   1.938   4.636   8.370  0.9769 -0.4196 -0.6784
   14DOPE   O22 1700   1.904   4.535   8.312  0.0855 -0.7059  0.2603
   14DOPE   C22 1701   2.061   4.714   8.350  0.1267  0.5584  0.1063
   14DOPE   H2R 1702   2.106   4.731   8.450  1.8455 -1.2779 -0.3011
   14DOPE   H2S 1703   2.024   4.811   8.311 -0.5011  0.4000  0.2840
   14DOPE    C3 1704   1.614   4.715   8.445  0.3679  0.6179 -0.0139
   14DOPE    HX 1705   1.622   4.823   8.466  0.9131  0.5548  0.1266
   14DOPE    HY 1706   1.525   4.667   8.492  0.5491 -2.1656 -2.2426
   14DOPE   O31 1707   1.605   4.689   8.303 -0.1334 -0.1776 -0.4283
   14DOPE   C31 1708   1.486   4.732   8.246  0.1098 -0.1128  0.9379
   14DOPE   O32 1709   1.387   4.764   8.308 -0.2694  0.8048  0.4457
   14DOPE   C32 1710   1.499   4.739   8.094  0.0398 -0.0168  0.5379
   14DOPE   H2X 1711   1.555   4.832   8.071 -0.1658  0.2165  0.9670
   14DOPE   H2Y 1712   1.563   4.652   8.067  2.2008  1.7331 -0.3340
   14DOPE   C23 1713   2.173   4.640   8.270 -0.1864  0.5821 -0.9451
   14DOPE   H3R 1714   2.177   4.533   8.300  1.7789  0.6741 -0.7439
   14DOPE   H3S 1715   2.270   4.682   8.303  0.5563 -1.4725 -0.3567
   14DOPE   C24 1716   2.154   4.627   8.115  0.5042 -0.6164 -0.2273
   14DOPE   H4R 1717   2.071   4.555   8.097 -0.2626  0.3379 -0.5374
   14DOPE   H4S 1718   2.242   4.576   8.070  0.9288 -0.5882  0.5408
   14DOPE   C25 1719   2.134   4.763   8.041 -0.2968 -0.0101 -0.2693
   14DOPE   H5R 1720   2.192   4.843   8.090  0.2456 -0.2971 -0.4372
   14DOPE   H5S 1721   2.026   4.790   8.033 -0.0270  0.8099 -1.3168
   14DOPE   C26 1722   2.190   4.771   7.902  0.2189  0.4742  0.4696
   14DOPE   H6R 1723   2.300   4.767   7.916  0.5151  0.4133 -1.6499
   14DOPE   H6S 1724   2.153   4.859   7.844 -0.2610 -1.1515 -1.7908
   14DOPE   C27 1725   2.140   4.662   7.797 -0.7760  0.6846 -0.8427
   14DOPE   H7R 1726   2.035   4.690   7.774 -0.6936  4.9202  2.6168
   14DOPE   H7S 1727   2.140   4.563   7.848  1.7981  1.3953  0.7072
   14DOPE   C28 1728   2.224   4.652   7.671  0.6680  0.3096 -0.2332
   14DOPE   H8R 1729   2.181   4.572   7.607 -0.1016  1.4418 -1.1785
   14DOPE   H8S 1730   2.326   4.615   7.697 -0.2417  0.1875  3.7026
   14DOPE   C29 1731   2.235   4.786   7.594 -0.6644  1.1502  0.0220
   14DOPE   H9R 1732   2.261   4.873   7.657  2.4107  0.3401 -0.0094
   14DOPE  C210 1733   2.218   4.806   7.463  0.3411  0.2859 -0.4180
   14DOPE  H10R 1734   2.220   4.910   7.425 -0.9195  0.6572  0.4755
   14DOPE  C211 1735   2.182   4.714   7.352  0.0109  0.1091  0.4681
   14DOPE  H11R 1736   2.095   4.768   7.310 -0.4955 -0.8601  0.2285
   14DOPE  H11S 1737   2.150   4.614   7.388  1.0282 -0.9669 -1.4168
   14DOPE  C212 1738   2.309   4.707   7.255  0.5915  0.0024 -0.0197
   14DOPE  H12R 1739   2.380   4.645   7.314 -0.2330  1.4481  2.6688
   14DOPE  H12S 1740   2.346   4.807   7.227  0.6941 -0.5746 -2.0603
   14DOPE  C213 1741   2.296   4.655   7.113 -0.0935  0.2812 -0.5378
   14DOPE  H13R 1742   2.244   4.738   7.061 -0.7481 -0.1160 -0.5204
   14DOPE  H13S 1743   2.237   4.561   7.112  0.7914 -0.3142  0.5486
   14DOPE  C214 1744   2.434   4.626   7.056 -0.3546  0.4124 -0.2963
   14DOPE  H14R 1745   2.473   4.530   7.096  0.2833  0.3962 -0.9390
   14DOPE  H14S 1746   2.504   4.707   7.086  0.6391 -0.7284  0.5452
   14DOPE  C215 1747   2.440   4.618   6.904  0.2075  0.5230  0.5573
   14DOPE  H15R 1748   2.547   4.626   6.874  0.0236 -3.6284 -1.9607
   14DOPE  H15S 1749   2.371   4.701   6.876 -0.3105  0.0576  0.4488
   14DOPE  C216 1750   2.391   4.476   6.847 -0.2251  0.5826 -0.0286
   14DOPE  H16R 1751   2.302   4.435   6.898  0.7556 -1.5975  0.0611
   14DOPE  H16S 1752   2.462   4.397   6.880 -0.0566  0.0341 -1.6133
   14DOPE  C217 1753   2.381   4.449   6.695  0.5625  0.2444  0.1538
   14DOPE  H17R 1754   2.399   4.342   6.673  0.5530  0.6415 -2.0316
   14DOPE  H17S 1755   2.459   4.505   6.639 -1.9907  2.6422 -1.2940
   14DOPE  C218 1756   2.247   4.489   6.631  0.2619 -0.1077  0.3902
   14DOPE  H18R 1757   2.159   4.425   6.653 -0.8855  0.4531 -2.1500
   14DOPE  H18S 1758   2.234   4.488   6.520 -0.7876  2.1625  0.4216
   14DOPE  H18T 1759   2.228   4.597   6.649  0.1279 -0.3273  1.5998
   14DOPE   C33 1760   1.369   4.758   8.008  0.2050  1.5512 -0.3301
   14DOPE   H3X 1761   1.326   4.851   8.051  0.5588  1.3043  0.5866
   14DOPE   H3Y 1762   1.291   4.686   8.039  3.1896 -1.2353  1.3215
   14DOPE   C34 1763   1.389   4.767   7.862  0.5943 -0.0405  0.3015
   14DOPE   H4X 1764   1.463   4.839   7.823  0.4146 -0.8884 -1.7351
   14DOPE   H4Y 1765   1.430   4.671   7.822  0.9249  0.7806 -1.4001
   14DOPE   C35 1766   1.262   4.802   7.789 -0.6467  0.2010 -0.3161
   14DOPE   H5X 1767   1.232   4.907   7.809 -2.0053 -0.1767 -0.2224
   14DOPE   H5Y 1768   1.173   4.747   7.828 -0.2252 -1.0656 -1.0829
   14DOPE   C36 1769   1.263   4.784   7.632  0.4172 -0.2918 -0.5740
   14DOPE   H6X 1770   1.287   4.677   7.612  1.1579 -0.1613 -0.4015
   14DOPE   H6Y 1771   1.347   4.846   7.596  0.1996 -0.0529 -0.6770
   14DOPE   C37 1772   1.133   4.825   7.562 -0.1864  0.5709 -0.3702
   14DOPE   H7X 1773   1.055   4.792   7.634  0.2909 -0.7595 -0.4458
   14DOPE   H7Y 1774   1.141   4.935   7.547  2.8689  0.8799  2.2946
   14DOPE   C38 1775   1.130   4.745   7.429  0.2246  0.2722 -0.1268
   14DOPE   H8X 1776   1.025   4.749   7.392  0.5762 -1.5204 -1.4760
   14DOPE   H8Y 1777   1.156   4.637   7.440  2.0164  0.6422 -0.4629
   14DOPE   C39 1778   1.221   4.800   7.328 -0.0482 -0.4999  0.6204
   14DOPE   H9X 1779   1.283   4.888   7.352 -1.8647  1.3643 -1.1270
   14DOPE  C310 1780   1.217   4.757   7.197  0.4846 -0.5022 -0.3942
   14DOPE  H10X 1781   1.279   4.803   7.120  1.0372  1.4923  1.1676
   14DOPE  C311 1782   1.120   4.648   7.146 -0.2737 -0.0183 -0.3079
   14DOPE  H11X 1783   1.177   4.568   7.095  0.4656 -0.4484  1.1389
   14DOPE  H11Y 1784   1.046   4.609   7.220 -1.3509  1.4243 -0.5716
   14DOPE  C312 1785   1.029   4.710   7.034 -0.6761 -0.2041  0.1148
   14DOPE  H12X 1786   0.979   4.804   7.067 -0.4709  0.6968 -1.9962
   14DOPE  H12Y 1787   0.957   4.633   6.999 -0.7373  0.0571 -0.3494
   14DOPE  C313 1788   1.109   4.759   6.911  0.0983 -0.2000  0.1192
   14DOPE  H13X 1789   1.147   4.860   6.937  0.5471 -0.4355  0.3960
   14DOPE  H13Y 1790   1.192   4.694   6.877 -0.4322 -2.2164  2.3641
   14DOPE  C314 1791   1.018   4.778   6.787  0.1889  0.1371  0.3309
   14DOPE  H14X 1792   0.954   4.869   6.794  0.1420  0.6308 -3.7823
   14DOPE  H14Y 1793   0.941   4.699   6.769  1.2829 -1.2307  1.4254
   14DOPE  C315 1794   1.091   4.798   6.652  0.0125  0.6997 -0.3489
   14DOPE  H15X 1795   1.142   4.706   6.616 -2.6821 -1.3618  0.7146
   14DOPE  H15Y 1796   1.160   4.884   6.657 -0.2703  0.8548  1.3339
   14DOPE  C316 1797   0.988   4.841   6.540  0.1633  0.1820  0.0622
   14DOPE  H16X 1798   0.952   4.940   6.574 -0.2761  0.0526 -0.0198
   14DOPE  H16Y 1799   0.898   4.775   6.534 -0.7563  1.1558  2.1046
   14DOPE  C317 1800   1.050   4.848   6.405 -0.4049 -0.4725  0.7454
   14DOPE  H17X 1801   1.136   4.918   6.393 -1.4232  0.4864 -1.8648
   14DOPE  H17Y 1802   1.097   4.751   6.378 -1.8068 -0.3500 -2.7116
   14DOPE  C318 1803   0.957   4.886   6.296  0.0637 -0.4905 -0.2472
   14DOPE  H18X 1804   0.955   4.997   6.295  1.3261 -0.4450 -1.2883
   14DOPE  H18Y 1805   0.986   4.844   6.197 -1.0434  0.9516 -1.2354
   14DOPE  H18Z 1806   0.853   4.855   6.320  0.6205 -1.8461  0.5491
   15DOPE     N 1807   1.320   2.788   8.325  0.5732 -0.2922 -0.1906
   15DOPE   HN1 1808   1.235   2.753   8.375  1.4778 -2.4409 -0.0338
   15DOPE   HN2 1809   1.309   2.763   8.225 -1.0200 -1.0793  0.1460
   15DOPE   HN3 1810   1.400   2.735   8.365  0.5250 -0.6267 -0.5355
   15DOPE   C12 1811   1.346   2.933   8.354 -1.3292 -0.2529  0.0090
   15DOPE  H12A 1812   1.281   2.966   8.438 -1.0005  1.0649 -0.2353
   15DOPE  H12B 1813   1.316   2.986   8.262  1.0503 -0.0691 -0.7412
   15DOPE   C11 1814   1.494   2.963   8.359 -0.2342  0.1328 -0.3041
   15DOPE  H11A 1815   1.505   3.073   8.369  0.9269 -0.0865  1.3188
   15DOPE  H11B 1816   1.553   2.945   8.266  1.0209  0.0483  0.4815
   15DOPE     P 1817   1.640   2.776   8.476 -0.6342  0.2058  0.2908
   15DOPE   O13 1818   1.565   2.673   8.404 -0.2743 -0.2175  0.3661
   15DOPE   O14 1819   1.680   2.747   8.615 -0.7885 -0.1024  0.3827
   15DOPE   O11 1820   1.768   2.817   8.386  0.4472  0.0124  0.7366
   15DOPE   O12 1821   1.553   2.911   8.479 -0.5083 -0.0314 -0.2176
   15DOPE    C1 1822   1.892   2.861   8.434  0.3193 -0.2586  0.4798
   15DOPE    HA 1823   1.910   2.858   8.543  2.0997 -1.8032  0.2125
   15DOPE    HB 1824   1.906   2.966   8.400 -0.2349 -0.1546  0.5621
   15DOPE    C2 1825   2.019   2.784   8.381 -0.2888  0.2173  1.0875
   15DOPE    HS 1826   2.105   2.853   8.389  0.4554 -0.8233  2.3154
   15DOPE   O21 1827   2.000   2.741   8.246  0.1514  0.5691  0.1798
   15DOPE   C21 1828   1.989   2.832   8.152  0.2657  0.3928 -0.7856
   15DOPE   O22 1829   2.010   2.948   8.164  0.0619  0.3414 -0.4989
   15DOPE   C22 1830   1.971   2.759   8.013  0.3586 -0.2622 -0.1949
   15DOPE   H2R 1831   1.875   2.804   7.978 -0.2055  1.8911  3.5973
   15DOPE   H2S 1832   1.951   2.652   8.033 -1.1529 -0.0073 -0.1843
   15DOPE    C3 1833   2.051   2.671   8.470 -0.1117  0.5119  0.5470
   15DOPE    HX 1834   1.956   2.620   8.492  0.4677 -0.0503  1.8409
   15DOPE    HY 1835   2.094   2.698   8.568 -1.4361  2.5355  0.6260
   15DOPE   O31 1836   2.127   2.574   8.395  0.6472 -0.2141 -0.0132
   15DOPE   C31 1837   2.236   2.532   8.437 -0.0015  0.2148 -0.0126
   15DOPE   O32 1838   2.300   2.565   8.535 -0.2968 -0.1718  0.0777
   15DOPE   C32 1839   2.287   2.427   8.342 -0.2563 -0.0325 -0.4600
   15DOPE   H2X 1840   2.387   2.392   8.375  0.5766  1.0204 -1.7523
   15DOPE   H2Y 1841   2.224   2.336   8.335 -1.6447  0.7728  0.8513
   15DOPE   C23 1842   2.080   2.790   7.913  0.4886 -0.1229  0.1944
   15DOPE   H3R 1843   2.174   2.758   7.963  0.3946 -0.5401  0.1070
   15DOPE   H3S 1844   2.081   2.899   7.893 -1.1057 -0.1815 -0.3846
   15DOPE   C24 1845   2.068   2.694   7.781 -0.0122  0.1090 -0.1872
   15DOPE   H4R 1846   1.966   2.705   7.738 -0.8172 -0.0998  1.5918
   15DOPE   H4S 1847   2.078   2.593   7.827  0.8823  1.7452  3.6223
   15DOPE   C25 1848   2.189   2.720   7.688 -0.0133 -0.2439  0.3523
   15DOPE   H5R 1849   2.285   2.699   7.739  0.1671  1.0205  0.5749
   15DOPE   H5S 1850   2.190   2.830   7.673  1.5853  0.0230  2.0395
   15DOPE   C26 1851   2.183   2.658   7.557  0.5149  0.4250 -0.0861
   15DOPE   H6R 1852   2.080   2.623   7.531  1.0211 -0.6032 -0.7788
   15DOPE   H6S 1853   2.246   2.567   7.555 -0.5777 -0.4936  2.4809
   15DOPE   C27 1854   2.243   2.750   7.449  0.1109  0.5951 -0.5268
   15DOPE   H7R 1855   2.340   2.785   7.490 -0.8717  1.7029  0.9600
   15DOPE   H7S 1856   2.180   2.840   7.432  0.2886  0.8794  0.2707
   15DOPE   C28 1857   2.258   2.671   7.319  0.1503 -0.8705 -0.0325
   15DOPE   H8R 1858   2.182   2.591   7.315  0.7457 -1.4905  0.6791
   15DOPE   H8S 1859   2.352   2.614   7.335  1.2355  0.3668 -1.6215
   15DOPE   C29 1860   2.266   2.755   7.194 -0.6725 -0.5854  0.0017
   15DOPE   H9R 1861   2.202   2.844   7.200  2.1567  1.8661 -2.7709
   15DOPE  C210 1862   2.331   2.726   7.083 -0.5986  0.9111  0.4941
   15DOPE  H10R 1863   2.335   2.795   6.997 -1.9559  0.1618 -0.2115
   15DOPE  C211 1864   2.411   2.597   7.059 -0.5862  0.9921 -0.0410
   15DOPE  H11R 1865   2.339   2.513   7.049  0.7362  0.0385 -2.2096
   15DOPE  H11S 1866   2.481   2.590   7.146 -1.0706  0.0567  0.2768
   15DOPE  C212 1867   2.502   2.610   6.932 -0.5584  0.3844  0.0634
   15DOPE  H12R 1868   2.572   2.524   6.933  1.7561  2.0212  4.1811
   15DOPE  H12S 1869   2.566   2.701   6.948  0.1790 -0.3524  1.5390
   15DOPE  C213 1870   2.426   2.601   6.796 -0.8521 -0.4857  0.0582
   15DOPE  H13R 1871   2.338   2.668   6.791 -1.1972 -0.9988 -0.8251
   15DOPE  H13S 1872   2.394   2.495   6.784 -0.4205 -0.8210  1.5964
   15DOPE  C214 1873   2.514   2.635   6.673 -0.1193 -0.5571  0.6452
   15DOPE  H14R 1874   2.531   2.744   6.668  0.5647 -0.7283 -2.3410
   15DOPE  H14S 1875   2.457   2.609   6.582  0.9056  1.1010 -0.5211
   15DOPE  C215 1876   2.648   2.564   6.667 -0.2226  0.1945 -0.3923
   15DOPE  H15R 1877   2.637   2.458   6.698 -0.6148  0.5931  0.8759
   15DOPE  H15S 1878   2.711   2.608   6.748 -2.4104  1.0112  0.9512
   15DOPE  C216 1879   2.710   2.568   6.524  0.1410  0.3421 -0.5120
   15DOPE  H16R 1880   2.658   2.505   6.449  1.9442 -0.6391 -0.9747
   15DOPE  H16S 1881   2.811   2.524   6.537 -0.0073 -0.2531 -1.3136
   15DOPE  C217 1882   2.720   2.704   6.448  0.2899 -0.0569  0.5367
   15DOPE  H17R 1883   2.619   2.750   6.441  0.4015 -0.0968 -2.1138
   15DOPE  H17S 1884   2.742   2.671   6.344  0.6443 -0.1028  0.6238
   15DOPE  C218 1885   2.814   2.808   6.489 -0.7249  0.0352  0.5222
   15DOPE  H18R 1886   2.915   2.776   6.456 -1.3570 -1.0185 -0.4585
   15DOPE  H18S 1887   2.822   2.808   6.600 -1.0579  0.5399  0.5498
   15DOPE  H18T 1888   2.794   2.913   6.457  1.2987 -0.0945 -1.4146
   15DOPE   C33 1889   2.311   2.476   8.197 -0.1388  0.3537  0.4079
   15DOPE   H3X 1890   2.361   2.575   8.189  2.9904 -1.1957 -1.0192
   15DOPE   H3Y 1891   2.214   2.482   8.144  1.1405  1.0864 -1.9929
   15DOPE   C34 1892   2.398   2.387   8.104 -0.2942  0.1535  0.4133
   15DOPE   H4X 1893   2.497   2.393   8.155  0.2200 -0.5883 -0.4442
   15DOPE   H4Y 1894   2.375   2.278   8.107  0.2315 -0.3242 -4.1893
   15DOPE   C35 1895   2.414   2.445   7.965  0.1878 -0.0342  0.3849
   15DOPE   H5X 1896   2.466   2.542   7.977 -0.2395  0.4124 -1.1439
   15DOPE   H5Y 1897   2.316   2.476   7.923  0.1788 -0.1606  0.3132
   15DOPE   C36 1898   2.486   2.352   7.873 -0.2240  0.2175  0.5332
   15DOPE   H6X 1899   2.425   2.264   7.845  0.8844 -0.7037  0.9007
   15DOPE   H6Y 1900   2.588   2.337   7.915  0.1606  1.9769  0.3192
   15DOPE   C37 1901   2.502   2.425   7.737  0.1603 -0.1115  0.1572
   15DOPE   H7X 1902   2.404   2.468   7.707 -1.0142 -0.1065  3.5364
   15DOPE   H7Y 1903   2.572   2.506   7.766 -1.0082  1.2827 -0.7837
   15DOPE   C38 1904   2.556   2.330   7.626  0.2546 -0.2236  0.3669
   15DOPE   H8X 1905   2.476   2.256   7.605 -0.2929  0.9940 -2.1717
   15DOPE   H8Y 1906   2.643   2.266   7.651  0.6504  0.0505 -0.2996
   15DOPE   C39 1907   2.585   2.415   7.501  0.5638  0.3372 -0.1301
   15DOPE   H9X 1908   2.611   2.522   7.506  0.3944  0.5667 -2.6653
   15DOPE  C310 1909   2.580   2.365   7.374 -0.2417 -0.0661  0.0557
   15DOPE  H10X 1910   2.583   2.433   7.288 -0.9506  1.0654  0.8965
   15DOPE  C311 1911   2.553   2.213   7.352  0.2597  0.4108 -0.4362
   15DOPE  H11X 1912   2.576   2.154   7.443  1.2300 -0.7001 -1.3591
   15DOPE  H11Y 1913   2.447   2.188   7.330  0.6344 -0.6517 -1.1027
   15DOPE  C312 1914   2.637   2.141   7.240  0.3609 -0.0007 -0.5285
   15DOPE  H12X 1915   2.614   2.033   7.245 -0.1711  0.1680  1.1106
   15DOPE  H12Y 1916   2.746   2.155   7.258  0.1045  0.2810  0.8833
   15DOPE  C313 1917   2.599   2.193   7.100 -0.5065 -0.3541 -0.0232
   15DOPE  H13X 1918   2.536   2.285   7.097 -1.9331 -1.2995 -0.2790
   15DOPE  H13Y 1919   2.697   2.235   7.067  1.3875 -1.7604  3.3081
   15DOPE  C314 1920   2.548   2.090   6.998  0.2654  0.0959  0.1386
   15DOPE  H14X 1921   2.615   2.003   6.977 -2.4013 -1.8507 -0.9092
   15DOPE  H14Y 1922   2.545   2.149   6.904  1.4704  0.4037  0.2816
   15DOPE  C315 1923   2.411   2.035   7.043 -0.3387  0.1149  0.0003
   15DOPE  H15X 1924   2.439   1.983   7.137 -0.4064  2.7765  1.5732
   15DOPE  H15Y 1925   2.382   1.954   6.973 -0.5565  0.6779 -0.5656
   15DOPE  C316 1926   2.291   2.136   7.067  0.2409  0.0142  0.0998
   15DOPE  H16X 1927   2.311   2.211   7.146 -0.6426  1.1209 -0.6934
   15DOPE  H16Y 1928   2.204   2.076   7.100  0.4520 -1.9647 -2.6266
   15DOPE  C317 1929   2.255   2.224   6.947 -0.7758 -0.2818 -0.2941
   15DOPE  H17X 1930   2.339   2.285   6.907 -0.8566  0.7125  0.9807
   15DOPE  H17Y 1931   2.226   2.166   6.857  1.1802  1.5912 -2.2640
   15DOPE  C318 1932   2.140   2.326   6.968 -0.3433 -0.0380 -0.1283
   15DOPE  H18X 1933   2.152   2.395   7.054 -2.0405  0.4071 -0.2135
   15DOPE  H18Y 1934   2.129   2.384   6.874 -2.1795 -0.9766 -0.5416
   15DOPE  H18Z 1935   2.039   2.285   6.988 -0.5547  1.0503  1.1677
   16DOPE     N 1936   1.649   3.929   8.940 -0.3198 -0.5334 -0.1276
   16DOPE   HN1 1937   1.753   3.922   8.940 -0.4175 -2.5759 -0.6155
   16DOPE   HN2 1938   1.623   4.025   8.913  0.7074 -0.4255 -0.7767
   16DOPE   HN3 1939   1.611   3.919   9.037  0.9440  0.1605  0.4601
   16DOPE   C12 1940   1.591   3.835   8.832 -0.4082 -0.2431 -0.1336
   16DOPE  H12A 1941   1.480   3.841   8.843 -0.5260 -1.3142 -0.6310
   16DOPE  H12B 1942   1.628   3.731   8.847 -1.4445 -0.8839 -1.7118
   16DOPE   C11 1943   1.620   3.870   8.685 -0.0476 -1.1457 -0.3544
   16DOPE  H11A 1944   1.571   3.796   8.619  0.8978 -0.6851 -1.6188
   16DOPE  H11B 1945   1.730   3.860   8.671  0.0549 -2.0919  0.8969
   16DOPE     P 1946   1.450   4.035   8.581 -0.2441 -0.1241 -0.1802
   16DOPE   O13 1947   1.456   4.171   8.524 -0.3115 -0.0726 -0.8242
   16DOPE   O14 1948   1.330   4.008   8.656  0.0238  0.5962  0.2067
   16DOPE   O11 1949   1.462   3.925   8.458 -0.5640 -0.5343 -0.7888
   16DOPE   O12 1950   1.576   4.007   8.677 -0.2122  0.1739 -0.0407
   16DOPE    C1 1951   1.555   3.955   8.351  1.0211  0.1160 -0.4520
   16DOPE    HA 1952   1.613   3.862   8.333  0.9410  0.3074 -1.8206
   16DOPE    HB 1953   1.622   4.041   8.370  1.1686 -0.2862  0.9565
   16DOPE    C2 1954   1.473   3.985   8.227 -0.0465  0.4315 -0.4005
   16DOPE    HS 1955   1.413   4.077   8.246  2.6698  2.1745  0.3807
   16DOPE   O21 1956   1.405   3.867   8.200 -0.0256  0.6283 -0.1710
   16DOPE   C21 1957   1.270   3.865   8.232 -0.0070  0.1348 -0.1984
   16DOPE   O22 1958   1.212   3.947   8.300  0.0133 -0.5602 -0.2301
   16DOPE   C22 1959   1.208   3.741   8.183  0.2081 -0.0519 -0.0235
   16DOPE   H2R 1960   1.216   3.673   8.270 -1.4395  0.8998  0.9177
   16DOPE   H2S 1961   1.272   3.700   8.102 -0.2503 -2.4066  0.7454
   16DOPE    C3 1962   1.561   4.018   8.105  0.5646 -0.2495  0.2239
   16DOPE    HX 1963   1.501   4.026   8.012  0.4964  2.7569  0.4450
   16DOPE    HY 1964   1.637   3.938   8.095  1.5969  0.6998  0.3512
   16DOPE   O31 1965   1.612   4.145   8.135 -0.2099 -0.0086 -0.2428
   16DOPE   C31 1966   1.695   4.193   8.044  0.0906 -0.9902 -0.0334
   16DOPE   O32 1967   1.738   4.127   7.951  0.2374 -0.0095 -0.5591
   16DOPE   C32 1968   1.741   4.333   8.080 -0.3914  0.1276 -0.2096
   16DOPE   H2X 1969   1.651   4.394   8.102  0.7927  1.6194  0.7067
   16DOPE   H2Y 1970   1.806   4.335   8.169 -1.9205  0.2119  0.9509
   16DOPE   C23 1971   1.060   3.752   8.151 -0.1365 -1.2767  0.3521
   16DOPE   H3R 1972   1.002   3.784   8.241 -1.0710 -0.6659 -0.4383
   16DOPE   H3S 1973   1.027   3.648   8.129 -1.1818 -0.7553 -0.6825
   16DOPE   C24 1974   1.025   3.841   8.033  0.2977 -0.2999 -0.1860
   16DOPE   H4R 1975   1.049   3.946   8.057  0.8380 -0.1068 -1.4879
   16DOPE   H4S 1976   0.916   3.828   8.018  0.0860  1.1344  0.0633
   16DOPE   C25 1977   1.106   3.800   7.907  0.2765  0.1341 -0.3571
   16DOPE   H5R 1978   1.098   3.690   7.898  0.9968  0.0618 -0.1563
   16DOPE   H5S 1979   1.212   3.834   7.912  0.2464  0.1118  0.4109
   16DOPE   C26 1980   1.050   3.862   7.784  0.0079 -1.0274  0.5145
   16DOPE   H6R 1981   1.035   3.971   7.800  1.1265 -0.7675 -0.0653
   16DOPE   H6S 1982   0.955   3.808   7.766  0.4991 -1.0781 -2.5197
   16DOPE   C27 1983   1.124   3.834   7.647  0.5507  0.1356 -0.2892
   16DOPE   H7R 1984   1.146   3.725   7.639  1.1312  0.2645 -0.4829
   16DOPE   H7S 1985   1.223   3.884   7.660  0.1904  0.5031  1.3390
   16DOPE   C28 1986   1.047   3.882   7.526 -0.7707 -0.1785 -0.2528
   16DOPE   H8R 1987   1.123   3.896   7.446  0.3018 -1.8691  0.4089
   16DOPE   H8S 1988   1.011   3.986   7.543 -0.0094 -0.0384  0.5878
   16DOPE   C29 1989   0.948   3.783   7.476  0.2072  0.1527 -0.9215
   16DOPE   H9R 1990   0.898   3.718   7.549  0.0043  0.7722 -0.5033
   16DOPE  C210 1991   0.924   3.752   7.350 -0.0744 -0.1263 -0.1674
   16DOPE  H10R 1992   0.833   3.696   7.323 -0.8849  0.4335  1.2938
   16DOPE  C211 1993   0.990   3.823   7.233  0.2968 -0.0318 -0.4291
   16DOPE  H11R 1994   1.093   3.783   7.221  0.2596  0.0271 -0.9874
   16DOPE  H11S 1995   1.003   3.931   7.255  0.0410  0.0365 -0.6059
   16DOPE  C212 1996   0.926   3.794   7.096  0.1223 -0.6137 -0.6278
   16DOPE  H12R 1997   0.818   3.822   7.096  0.0560 -0.3678  3.1297
   16DOPE  H12S 1998   0.943   3.685   7.077 -0.3001 -0.8558  0.3370
   16DOPE  C213 1999   0.986   3.873   6.973 -0.2587  1.0136  0.1886
   16DOPE  H13R 2000   1.080   3.816   6.955 -0.4070 -0.0500  2.5051
   16DOPE  H13S 2001   1.015   3.978   6.998  0.4428  0.7746  0.4035
   16DOPE  C214 2002   0.879   3.869   6.865 -0.3746  0.4075  0.0591
   16DOPE  H14R 2003   0.796   3.938   6.889 -1.4990 -0.1560 -1.9831
   16DOPE  H14S 2004   0.834   3.768   6.873 -1.2756  0.7991  0.0562
   16DOPE  C215 2005   0.931   3.898   6.725  0.2491  0.3538  0.5982
   16DOPE  H15R 2006   0.989   3.812   6.685 -0.6149  0.8752 -1.9470
   16DOPE  H15S 2007   1.004   3.982   6.717 -0.3964  0.7826 -1.1635
   16DOPE  C216 2008   0.810   3.928   6.632 -0.7522  0.6918 -0.3736
   16DOPE  H16R 2009   0.849   3.914   6.529  0.6513  0.7500  0.1263
   16DOPE  H16S 2010   0.780   4.032   6.657 -2.4953 -0.2212  1.5996
   16DOPE  C217 2011   0.688   3.836   6.645 -0.2149  0.5468 -0.3596
   16DOPE  H17R 2012   0.646   3.841   6.748  0.7344  1.0180  0.0167
   16DOPE  H17S 2013   0.715   3.731   6.619  1.9723  0.6412  1.2397
   16DOPE  C218 2014   0.576   3.904   6.557  0.0106  0.1509 -0.1954
   16DOPE  H18R 2015   0.574   4.014   6.569 -0.0148  0.0638  0.6065
   16DOPE  H18S 2016   0.479   3.856   6.583  0.1834  0.0772  0.3157
   16DOPE  H18T 2017   0.583   3.866   6.452 -1.3986  0.0090 -0.2659
   16DOPE   C33 2018   1.822   4.405   7.966  0.1971 -0.1867  0.4367
   16DOPE   H3X 2019   1.915   4.354   7.934  0.1082 -0.1233  0.0750
   16DOPE   H3Y 2020   1.846   4.508   8.001 -3.0529  2.5107 -4.0633
   16DOPE   C34 2021   1.729   4.434   7.847 -0.1137 -0.1693  0.2533
   16DOPE   H4X 2022   1.700   4.332   7.811  0.7652 -0.6013  0.7463
   16DOPE   H4Y 2023   1.638   4.488   7.880 -0.3093 -0.8389  0.8519
   16DOPE   C35 2024   1.809   4.520   7.742  0.3442  0.6018  0.3142
   16DOPE   H5X 2025   1.919   4.508   7.743  0.3516  0.1136 -1.6532
   16DOPE   H5Y 2026   1.794   4.626   7.772 -0.3769  0.4922  0.3594
   16DOPE   C36 2027   1.760   4.520   7.593  0.5854  0.7755  0.4797
   16DOPE   H6X 2028   1.660   4.567   7.586  0.8055  0.9789 -3.8275
   16DOPE   H6Y 2029   1.755   4.417   7.552 -0.2863  1.1016 -0.2783
   16DOPE   C37 2030   1.854   4.595   7.497 -0.0220 -0.5379  0.9768
   16DOPE   H7X 2031   1.878   4.699   7.529 -1.2167  0.1926 -0.3695
   16DOPE   H7Y 2032   1.955   4.548   7.501  0.3999  0.4402  2.6543
   16DOPE   C38 2033   1.798   4.613   7.355 -0.2418 -0.0585  0.1842
   16DOPE   H8X 2034   1.762   4.518   7.311  1.3609 -1.0346  0.9190
   16DOPE   H8Y 2035   1.879   4.663   7.298 -0.7554  1.5673  0.7906
   16DOPE   C39 2036   1.678   4.706   7.360 -0.0595 -0.2118 -0.1665
   16DOPE   H9X 2037   1.597   4.663   7.421  0.9400  0.6218  1.8556
   16DOPE  C310 2038   1.669   4.834   7.316  0.6755 -0.1756  0.1433
   16DOPE  H10X 2039   1.571   4.882   7.326 -0.3119 -1.8615 -1.0426
   16DOPE  C311 2040   1.772   4.923   7.258  0.1498  0.3722  0.0089
   16DOPE  H11X 2041   1.772   5.027   7.297  1.7124  0.1705  0.6215
   16DOPE  H11Y 2042   1.868   4.879   7.293 -0.1239  0.2708  0.6340
   16DOPE  C312 2043   1.767   4.921   7.104  0.5561  0.2991  0.2089
   16DOPE  H12X 2044   1.670   4.970   7.081  0.0286 -1.5122 -1.8141
   16DOPE  H12Y 2045   1.765   4.813   7.081 -0.0970  0.3207  0.1489
   16DOPE  C313 2046   1.887   4.988   7.030  0.6653  0.0929 -0.0458
   16DOPE  H13X 2047   1.888   5.092   7.068 -0.4636 -0.0561  0.4123
   16DOPE  H13Y 2048   1.983   4.937   7.055  0.5544 -0.1787 -0.1736
   16DOPE  C314 2049   1.870   4.991   6.875 -0.5340 -0.3316  0.5437
   16DOPE  H14X 2050   1.953   5.038   6.817 -1.4772  0.3852 -0.2744
   16DOPE  H14Y 2051   1.786   5.063   6.860  0.5942  0.9844  0.3331
   16DOPE  C315 2052   1.841   4.859   6.799  0.5566 -0.4847  0.4200
   16DOPE  H15X 2053   1.815   4.872   6.691  0.2946 -1.2803  0.3823
   16DOPE  H15Y 2054   1.758   4.810   6.854 -0.5296  0.9260  0.1165
   16DOPE  C316 2055   1.950   4.748   6.808 -0.1574  0.1821  0.4126
   16DOPE  H16X 2056   1.945   4.724   6.917 -3.0274  4.4250  1.4593
   16DOPE  H16Y 2057   2.050   4.789   6.781 -0.9157  1.9541  0.1515
   16DOPE  C317 2058   1.917   4.625   6.718 -0.5580  0.7116 -0.9518
   16DOPE  H17X 2059   2.001   4.560   6.752 -1.4081 -0.1776 -0.4830
   16DOPE  H17Y 2060   1.829   4.571   6.759 -0.2615  1.0780  0.2059
   16DOPE  C318 2061   1.912   4.647   6.566  0.5159 -0.4557  0.7679
   16DOPE  H18X 2062   2.006   4.680   6.518  0.5527 -0.6755  0.6861
   16DOPE  H18Y 2063   1.882   4.553   6.514  1.2944 -0.3350  0.0858
   16DOPE  H18Z 2064   1.834   4.725   6.551  0.1676 -0.1026  3.8980
   17DOPE     N 2065   1.940   1.294   8.839 -0.5540 -0.5396 -1.0104
   17DOPE   HN1 2066   2.028   1.349   8.837 -0.7083  0.0101  2.0483
   17DOPE   HN2 2067   1.857   1.357   8.840  0.8104  1.3704 -1.5090
   17DOPE   HN3 2068   1.944   1.234   8.924  3.4858  1.2960  0.3602
   17DOPE   C12 2069   1.933   1.212   8.716 -0.0232 -0.2932 -0.1161
   17DOPE  H12A 2070   1.948   1.284   8.633  0.1952  1.4724  1.3925
   17DOPE  H12B 2071   1.835   1.161   8.718 -0.3011  0.2427 -0.0095
   17DOPE   C11 2072   2.045   1.111   8.707 -0.2545  0.4702 -0.5949
   17DOPE  H11A 2073   2.047   1.069   8.604 -0.8948 -1.6330  0.1929
   17DOPE  H11B 2074   2.042   1.027   8.780  0.5214  0.3858 -0.6466
   17DOPE     P 2075   2.304   1.143   8.661  0.0676  0.3766 -0.1497
   17DOPE   O13 2076   2.368   1.057   8.761 -0.7537 -0.3383  0.4770
   17DOPE   O14 2077   2.373   1.268   8.614 -0.2885 -0.3810  0.1760
   17DOPE   O11 2078   2.275   1.052   8.536  0.2283  0.1520  0.6662
   17DOPE   O12 2079   2.165   1.185   8.723  0.4302  0.1880  0.4939
   17DOPE    C1 2080   2.317   0.916   8.524 -0.1186  0.3654 -0.4019
   17DOPE    HA 2081   2.278   0.853   8.607  1.0948  0.5433  0.3274
   17DOPE    HB 2082   2.428   0.909   8.527 -0.0032  1.8308 -0.6139
   17DOPE    C2 2083   2.288   0.852   8.390 -0.5620  0.0805 -0.6842
   17DOPE    HS 2084   2.335   0.751   8.389  1.9278  1.1705 -0.3691
   17DOPE   O21 2085   2.327   0.930   8.280 -0.7967 -0.3463 -0.0141
   17DOPE   C21 2086   2.459   0.942   8.266  0.0732 -0.0250  0.5809
   17DOPE   O22 2087   2.539   0.868   8.316 -0.0796  0.0347  0.4008
   17DOPE   C22 2088   2.485   1.049   8.152 -0.0465  0.3057 -0.0796
   17DOPE   H2R 2089   2.460   1.144   8.203  0.0895 -0.1832  0.9319
   17DOPE   H2S 2090   2.405   1.023   8.079  2.0966 -0.4772 -2.2920
   17DOPE    C3 2091   2.135   0.820   8.367 -0.4110  0.0954 -0.1093
   17DOPE    HX 2092   2.099   0.915   8.323  1.3380  1.3350  1.0165
   17DOPE    HY 2093   2.098   0.798   8.469  0.5332 -2.6630 -0.2619
   17DOPE   O31 2094   2.127   0.711   8.275  0.6519  0.2847 -0.3763
   17DOPE   C31 2095   1.998   0.700   8.231  0.1068 -0.3236  0.2957
   17DOPE   O32 2096   1.911   0.772   8.280  0.8381  0.2327  0.1727
   17DOPE   C32 2097   1.995   0.596   8.117 -0.2713 -0.1354 -0.2057
   17DOPE   H2X 2098   2.085   0.600   8.052  1.6641 -2.0635  2.1000
   17DOPE   H2Y 2099   1.983   0.496   8.164 -4.1712 -0.0038 -0.6338
   17DOPE   C23 2100   2.628   1.036   8.091  0.7497  0.7321  0.0483
   17DOPE   H3R 2101   2.630   0.935   8.046 -0.8242  0.5089  0.4015
   17DOPE   H3S 2102   2.712   1.046   8.163  0.4984 -0.1563  0.4824
   17DOPE   C24 2103   2.643   1.142   7.987 -0.6518 -0.0560 -0.0773
   17DOPE   H4R 2104   2.665   1.236   8.042  0.1069 -1.3436  1.9628
   17DOPE   H4S 2105   2.546   1.147   7.932 -1.9821 -0.7959  2.0576
   17DOPE   C25 2106   2.752   1.121   7.875 -0.1352 -0.0632 -0.8114
   17DOPE   H5R 2107   2.847   1.109   7.932 -1.0396  3.0401  1.6379
   17DOPE   H5S 2108   2.765   1.219   7.823  1.2128  0.4002  0.3186
   17DOPE   C26 2109   2.728   1.006   7.785 -0.0423 -0.2938 -0.1278
   17DOPE   H6R 2110   2.618   0.992   7.786 -0.0769 -0.0118  0.9381
   17DOPE   H6S 2111   2.779   0.909   7.807  2.3399 -0.3196 -4.6553
   17DOPE   C27 2112   2.752   1.047   7.641 -0.0622  0.7403  0.2797
   17DOPE   H7R 2113   2.859   1.075   7.631 -0.2389  0.9339 -1.3431
   17DOPE   H7S 2114   2.705   1.145   7.615  2.0809  1.7559 -0.0223
   17DOPE   C28 2115   2.689   0.951   7.545 -0.2043 -0.1089 -0.6848
   17DOPE   H8R 2116   2.660   1.010   7.456 -2.1075  0.1451  0.0512
   17DOPE   H8S 2117   2.593   0.911   7.586 -0.2258  0.6550  0.0406
   17DOPE   C29 2118   2.766   0.828   7.518  0.1698 -0.3873  0.5770
   17DOPE   H9R 2119   2.705   0.747   7.559 -1.4283 -0.1706 -1.2248
   17DOPE  C210 2120   2.866   0.799   7.435 -0.0361  0.4871  0.0643
   17DOPE  H10R 2121   2.895   0.693   7.438 -0.0506  0.4741  2.4922
   17DOPE  C211 2122   2.939   0.892   7.342 -0.9909 -0.1841  0.7580
   17DOPE  H11R 2123   3.043   0.910   7.375 -0.4365 -1.5685 -0.1615
   17DOPE  H11S 2124   2.887   0.988   7.325 -2.2342 -1.0363 -0.4412
   17DOPE  C212 2125   2.950   0.835   7.200 -0.4027  0.1650  0.6829
   17DOPE  H12R 2126   2.846   0.810   7.173 -0.4970  1.3650 -0.1851
   17DOPE  H12S 2127   3.003   0.738   7.200 -1.3220 -0.3506  0.0937
   17DOPE  C213 2128   3.019   0.925   7.097  0.4564  0.4089  0.8644
   17DOPE  H13R 2129   3.119   0.878   7.087 -0.3011 -0.7021 -3.5156
   17DOPE  H13S 2130   3.041   1.028   7.132 -2.5384  1.7125 -0.6938
   17DOPE  C214 2131   2.956   0.945   6.959  0.3955  0.2919  0.6589
   17DOPE  H14R 2132   3.030   1.009   6.906  3.3485 -2.7672  0.7935
   17DOPE  H14S 2133   2.860   1.000   6.972 -0.7770 -1.4277 -0.3038
   17DOPE  C215 2134   2.930   0.801   6.898 -0.0610 -0.6122 -0.0995
   17DOPE  H15R 2135   2.841   0.762   6.951 -0.4401  0.5204  0.1194
   17DOPE  H15S 2136   3.018   0.733   6.899  0.3704 -0.0537  1.0835
   17DOPE  C216 2137   2.899   0.801   6.741 -0.2474  0.1614 -0.2059
   17DOPE  H16R 2138   2.810   0.865   6.723 -1.6544 -1.6263  0.1942
   17DOPE  H16S 2139   2.869   0.701   6.703 -0.5551  0.5637 -1.0552
   17DOPE  C217 2140   3.015   0.843   6.662 -0.0586 -0.3806  0.0410
   17DOPE  H17R 2141   3.098   0.773   6.686  3.0034  2.8306 -0.3841
   17DOPE  H17S 2142   3.058   0.941   6.690 -0.2954 -0.8203  2.0775
   17DOPE  C218 2143   3.003   0.841   6.510 -0.3078  0.2025 -0.4813
   17DOPE  H18R 2144   2.949   0.930   6.468  0.3698  1.6380  1.5225
   17DOPE  H18S 2145   2.950   0.746   6.486 -0.3104 -0.7634  2.7989
   17DOPE  H18T 2146   3.105   0.835   6.467 -0.2573 -0.3600 -0.2860
   17DOPE   C33 2147   1.864   0.605   8.041 -0.1560  0.0345  0.5304
   17DOPE   H3X 2148   1.854   0.706   7.996  0.1453  0.6584  1.8301
   17DOPE   H3Y 2149   1.766   0.594   8.093 -0.9030 -1.9371 -1.1114
   17DOPE   C34 2150   1.854   0.508   7.925  0.4073 -0.6305 -0.1554
   17DOPE   H4X 2151   1.836   0.411   7.976  0.0345 -1.4628 -1.8231
   17DOPE   H4Y 2152   1.770   0.541   7.860  0.0336  0.0227  0.6409
   17DOPE   C35 2153   1.984   0.488   7.843  0.7462 -0.0807 -0.0182
   17DOPE   H5X 2154   2.064   0.439   7.902 -0.2845  0.1205  1.6113
   17DOPE   H5Y 2155   2.022   0.585   7.803 -0.4550 -0.8871 -3.4500
   17DOPE   C36 2156   1.972   0.390   7.728  0.6905  0.1841 -0.6362
   17DOPE   H6X 2157   1.899   0.431   7.655  0.9498 -0.1892 -1.1090
   17DOPE   H6Y 2158   1.927   0.295   7.765  2.1416 -0.9884 -1.7411
   17DOPE   C37 2159   2.100   0.353   7.650  0.0157  0.4564 -1.2874
   17DOPE   H7X 2160   2.119   0.437   7.581 -0.0707  2.0950  0.5933
   17DOPE   H7Y 2161   2.180   0.335   7.725 -1.5685  0.7309  0.5531
   17DOPE   C38 2162   2.082   0.220   7.562  0.1860 -0.6005  0.7046
   17DOPE   H8X 2163   1.986   0.235   7.509  0.5336 -1.2785 -0.1343
   17DOPE   H8Y 2164   2.065   0.136   7.633  1.7977 -1.3170  0.2873
   17DOPE   C39 2165   2.203   0.191   7.473 -0.3990  0.1768 -0.6019
   17DOPE   H9X 2166   2.280   0.122   7.512 -2.4646 -0.8651  1.9383
   17DOPE  C310 2167   2.223   0.225   7.344 -0.4976 -0.2125 -0.0189
   17DOPE  H10X 2168   2.321   0.195   7.304 -0.8025 -2.2019  0.6037
   17DOPE  C311 2169   2.122   0.295   7.256 -0.2379  0.3912 -0.5768
   17DOPE  H11X 2170   2.040   0.335   7.319  0.0419  1.5659 -0.9378
   17DOPE  H11Y 2171   2.161   0.385   7.203 -1.4168  1.0963 -0.2818
   17DOPE  C312 2172   2.053   0.198   7.163 -0.1339  0.5274 -0.0305
   17DOPE  H12X 2173   1.998   0.252   7.083  0.9236  1.8148  0.0771
   17DOPE  H12Y 2174   1.983   0.137   7.224 -0.5919  2.1428  1.1397
   17DOPE  C313 2175   2.154   0.127   7.074  0.1252  0.4025  0.7023
   17DOPE  H13X 2176   2.246   0.102   7.132 -0.9103 -1.8535  1.4986
   17DOPE  H13Y 2177   2.102   0.032   7.049 -1.4826  1.4254 -0.0114
   17DOPE  C314 2178   2.194   0.208   6.948  0.2720  0.6262 -0.9532
   17DOPE  H14X 2179   2.236   0.299   6.996  2.5645 -1.4700  1.3232
   17DOPE  H14Y 2180   2.104   0.241   6.892 -1.4154 -0.9409  0.6812
   17DOPE  C315 2181   2.292   0.138   6.852  0.2322 -0.2902 -0.2314
   17DOPE  H15X 2182   2.242   0.054   6.800 -1.3579  0.0216  0.7450
   17DOPE  H15Y 2183   2.377   0.087   6.903 -0.8211 -0.4380  1.4453
   17DOPE  C316 2184   2.335   0.238   6.743  0.0093 -0.4077  0.3413
   17DOPE  H16X 2185   2.241   0.287   6.708 -0.3937 -0.5848  1.1605
   17DOPE  H16Y 2186   2.377   0.187   6.653  0.7573  1.5074 -0.4393
   17DOPE  C317 2187   2.442   0.332   6.779 -0.4503 -0.2001 -0.7352
   17DOPE  H17X 2188   2.427   0.385   6.875 -1.0135 -2.6491  0.6106
   17DOPE  H17Y 2189   2.529   0.267   6.802 -0.5476  0.0294  0.3148
   17DOPE  C318 2190   2.473   0.438   6.670 -0.1891  0.3775 -0.1906
   17DOPE  H18X 2191   2.379   0.485   6.636  0.7396  1.5476 -1.2131
   17DOPE  H18Y 2192   2.538   0.517   6.713 -0.5662  0.2493  0.6329
   17DOPE  H18Z 2193   2.525   0.401   6.579  0.3987 -2.0527  1.0398
   18DOPE     N 2194   6.425   5.522   8.684 -0.1966 -0.4703 -0.0159
   18DOPE   HN1 2195   6.332   5.538   8.640  0.5376 -0.8184 -1.7837
   18DOPE   HN2 2196   6.427   5.516   8.787  2.0575 -1.9231 -0.0693
   18DOPE   HN3 2197   6.481   5.606   8.662  1.0844 -1.1611  0.5080
   18DOPE   C12 2198   6.492   5.398   8.626 -0.3074  0.1475 -0.2885
   18DOPE  H12A 2199   6.515   5.419   8.519  0.8126  0.1576 -0.0605
   18DOPE  H12B 2200   6.419   5.317   8.652  0.9704 -0.7481  0.6499
   18DOPE   C11 2201   6.614   5.359   8.714 -0.6156 -0.0112 -0.0345
   18DOPE  H11A 2202   6.593   5.358   8.823 -1.4489 -1.7160 -0.1688
   18DOPE  H11B 2203   6.699   5.430   8.706 -0.7417 -0.0139 -1.7483
   18DOPE     P 2204   6.806   5.180   8.645  0.2007 -0.3933  0.0307
   18DOPE   O13 2205   6.816   5.038   8.682 -0.4306 -0.1464 -0.3890
   18DOPE   O14 2206   6.916   5.264   8.694  0.4858 -0.6999 -0.1166
   18DOPE   O11 2207   6.817   5.183   8.489  0.0582  0.4577  0.1067
   18DOPE   O12 2208   6.664   5.233   8.691  0.2385  0.4178 -0.6156
   18DOPE    C1 2209   6.721   5.235   8.405 -0.2079 -0.2759  0.4621
   18DOPE    HA 2210   6.690   5.340   8.423 -0.4253 -0.0950 -0.8413
   18DOPE    HB 2211   6.636   5.165   8.420  0.1706 -0.7803  0.2888
   18DOPE    C2 2212   6.761   5.226   8.248  0.0447  0.6347 -0.1588
   18DOPE    HS 2213   6.687   5.279   8.183  1.3082  0.5984 -1.6795
   18DOPE   O21 2214   6.774   5.088   8.203  0.3021 -0.2964 -0.0879
   18DOPE   C21 2215   6.662   5.015   8.199  0.1605 -0.0157 -0.4675
   18DOPE   O22 2216   6.544   5.053   8.198  0.1748  0.0939 -0.6029
   18DOPE   C22 2217   6.697   4.864   8.188  0.3154 -0.7103  0.0741
   18DOPE   H2R 2218   6.609   4.797   8.199  1.5035 -2.5769 -1.1316
   18DOPE   H2S 2219   6.764   4.824   8.266 -2.6861  0.2491  3.3983
   18DOPE    C3 2220   6.894   5.303   8.223 -0.0168  0.4796  0.2645
   18DOPE    HX 2221   6.983   5.277   8.283  0.5742  0.9024 -0.4123
   18DOPE    HY 2222   6.885   5.406   8.262  1.9856  1.1010 -0.7636
   18DOPE   O31 2223   6.925   5.315   8.080 -0.0786 -0.1856 -0.2156
   18DOPE   C31 2224   7.025   5.228   8.046 -0.1871  0.1972 -0.0311
   18DOPE   O32 2225   7.080   5.155   8.127  0.0126  0.4667  0.4521
   18DOPE   C32 2226   7.057   5.241   7.895 -0.1246 -0.1013 -0.1426
   18DOPE   H2X 2227   6.979   5.198   7.829  0.3988 -1.1735 -0.0794
   18DOPE   H2Y 2228   7.044   5.350   7.877 -2.6405 -0.3819 -0.3580
   18DOPE   C23 2229   6.751   4.825   8.045  0.3820  0.4382 -0.0274
   18DOPE   H3R 2230   6.756   4.714   8.033  0.1740  0.4927 -0.6581
   18DOPE   H3S 2231   6.849   4.874   8.030  0.9915 -1.1413 -1.5372
   18DOPE   C24 2232   6.664   4.873   7.934  0.4347  0.5662 -0.3161
   18DOPE   H4R 2233   6.637   4.980   7.950  0.9994  0.8721 -1.3158
   18DOPE   H4S 2234   6.564   4.827   7.923  1.1406 -1.1739  0.2267
   18DOPE   C25 2235   6.732   4.866   7.799 -0.4758  0.7168  0.1321
   18DOPE   H5R 2236   6.735   4.762   7.760 -0.7195  1.2322 -1.3487
   18DOPE   H5S 2237   6.840   4.889   7.812 -0.6968  1.7695  0.1893
   18DOPE   C26 2238   6.669   4.957   7.694 -0.5724  0.0180  0.7641
   18DOPE   H6R 2239   6.689   5.056   7.739 -0.8079 -0.5547  2.2100
   18DOPE   H6S 2240   6.559   4.940   7.702 -0.4204 -0.7074  1.5570
   18DOPE   C27 2241   6.727   4.944   7.559 -0.3528 -0.0297 -0.6577
   18DOPE   H7R 2242   6.656   4.954   7.474  0.4170 -0.3882 -1.3544
   18DOPE   H7S 2243   6.770   4.843   7.543 -1.1870 -0.5209  0.1233
   18DOPE   C28 2244   6.856   5.034   7.546  0.1861  0.0016  0.2730
   18DOPE   H8R 2245   6.922   5.043   7.635  1.3161  2.6715 -0.7375
   18DOPE   H8S 2246   6.830   5.141   7.537 -1.2434 -0.3537 -0.0818
   18DOPE   C29 2247   6.939   4.996   7.431  0.6974 -0.0982 -0.1651
   18DOPE   H9R 2248   6.999   4.903   7.434  0.0879 -0.5561 -1.4528
   18DOPE  C210 2249   6.927   5.046   7.304  0.4227 -0.0049 -0.8030
   18DOPE  H10R 2250   6.992   5.008   7.224  0.6987 -1.8217  0.2124
   18DOPE  C211 2251   6.830   5.155   7.265  0.4480 -0.1536 -0.7223
   18DOPE  H11R 2252   6.867   5.254   7.299  1.3780 -1.2306  1.5689
   18DOPE  H11S 2253   6.745   5.139   7.335  0.1556  0.0954 -1.0154
   18DOPE  C212 2254   6.790   5.162   7.121 -0.3965 -0.0744 -0.3826
   18DOPE  H12R 2255   6.728   5.253   7.137 -0.8830 -0.2842 -1.0057
   18DOPE  H12S 2256   6.728   5.074   7.093 -1.7679  0.6583  0.2103
   18DOPE  C213 2257   6.902   5.181   7.021 -1.0066 -1.0456  0.3258
   18DOPE  H13R 2258   6.969   5.093   7.031 -1.4612 -1.2551  1.8723
   18DOPE  H13S 2259   6.960   5.273   7.042  0.1032 -0.8164 -3.1368
   18DOPE  C214 2260   6.852   5.192   6.877  0.0356 -0.2464  0.0243
   18DOPE  H14R 2261   6.772   5.269   6.864  0.3220 -0.1281 -1.1043
   18DOPE  H14S 2262   6.797   5.101   6.846 -2.2898  1.2626 -0.6066
   18DOPE  C215 2263   6.964   5.215   6.771  0.8287 -0.0160  0.1100
   18DOPE  H15R 2264   7.033   5.128   6.775  0.2004 -0.5220  0.0267
   18DOPE  H15S 2265   7.028   5.299   6.807  4.7107 -2.6882  0.0100
   18DOPE  C216 2266   6.925   5.251   6.625  0.6225  0.5334 -0.0627
   18DOPE  H16R 2267   7.013   5.277   6.562  1.0368 -0.7964 -0.0558
   18DOPE  H16S 2268   6.856   5.339   6.623 -1.4715 -0.8939  2.5176
   18DOPE  C217 2269   6.876   5.127   6.544  0.0425 -1.1808  0.0056
   18DOPE  H17R 2270   6.789   5.084   6.599  0.5999 -1.1533  0.9184
   18DOPE  H17S 2271   6.953   5.048   6.533  1.1852 -0.0648 -0.1907
   18DOPE  C218 2272   6.813   5.164   6.404 -0.1005  0.2964  0.8460
   18DOPE  H18R 2273   6.885   5.224   6.344 -2.9154  2.3132 -0.7278
   18DOPE  H18S 2274   6.719   5.220   6.424 -0.2304 -0.4265  2.3920
   18DOPE  H18T 2275   6.783   5.072   6.350 -2.3059  0.4387  1.7590
   18DOPE   C33 2276   7.201   5.202   7.861 -0.3845  0.0536 -0.4343
   18DOPE   H3X 2277   7.225   5.097   7.836  0.9954  0.7131 -2.1050
   18DOPE   H3Y 2278   7.276   5.238   7.935  0.6178 -0.0997 -1.3461
   18DOPE   C34 2279   7.255   5.289   7.741 -0.1885 -0.1195  0.0681
   18DOPE   H4X 2280   7.228   5.393   7.770  0.7357 -0.5521  2.7843
   18DOPE   H4Y 2281   7.366   5.287   7.735 -0.1436  2.5855 -1.7842
   18DOPE   C35 2282   7.201   5.238   7.605  0.6562  0.2461  0.6194
   18DOPE   H5X 2283   7.096   5.218   7.635  1.1628  1.9607  3.9706
   18DOPE   H5Y 2284   7.248   5.145   7.567  0.0879  0.5269 -0.8189
   18DOPE   C36 2285   7.227   5.345   7.504 -0.2783  0.1375  0.1093
   18DOPE   H6X 2286   7.330   5.386   7.508 -0.4068  0.6270 -1.0828
   18DOPE   H6Y 2287   7.174   5.437   7.535  2.7702  3.1017 -2.7447
   18DOPE   C37 2288   7.191   5.310   7.362 -0.5815 -0.1293  0.7281
   18DOPE   H7X 2289   7.243   5.217   7.331  1.4571  0.7045  1.4978
   18DOPE   H7Y 2290   7.082   5.291   7.362 -0.5395 -0.4053  1.5729
   18DOPE   C38 2291   7.226   5.417   7.258 -0.0309 -0.3643  0.6692
   18DOPE   H8X 2292   7.190   5.511   7.304  2.0291  0.1842  1.2746
   18DOPE   H8Y 2293   7.161   5.408   7.169  1.1157  1.9400 -0.4806
   18DOPE   C39 2294   7.375   5.435   7.238  0.2293 -0.2635  0.1092
   18DOPE   H9X 2295   7.418   5.477   7.330 -0.8316  0.4380  0.3061
   18DOPE  C310 2296   7.447   5.422   7.124 -0.0619 -0.2671 -0.1931
   18DOPE  H10X 2297   7.556   5.434   7.117  0.1882 -1.8914  0.3016
   18DOPE  C311 2298   7.370   5.386   7.003  0.3394  0.0971 -0.0363
   18DOPE  H11X 2299   7.294   5.311   7.034 -0.5201  1.6096  1.6703
   18DOPE  H11Y 2300   7.312   5.477   6.976  1.3777  1.0786  0.9421
   18DOPE  C312 2301   7.462   5.344   6.888 -0.3992  0.8020  0.1050
   18DOPE  H12X 2302   7.505   5.243   6.902 -0.2993  0.9060  0.5406
   18DOPE  H12Y 2303   7.546   5.416   6.884 -0.3286  0.7899  1.1036
   18DOPE  C313 2304   7.391   5.339   6.749  0.1607  0.3905  0.7966
   18DOPE  H13X 2305   7.310   5.267   6.772  0.8947 -0.2865  1.2910
   18DOPE  H13Y 2306   7.354   5.443   6.733 -1.2591  0.0718  1.7963
   18DOPE  C314 2307   7.485   5.286   6.633  0.1786  0.5506 -0.2621
   18DOPE  H14X 2308   7.526   5.187   6.664 -3.7416 -1.0701  0.3311
   18DOPE  H14Y 2309   7.571   5.354   6.616  1.1116 -0.6608 -0.5439
   18DOPE  C315 2310   7.413   5.269   6.498  0.5525 -0.8694 -0.1896
   18DOPE  H15X 2311   7.483   5.263   6.412 -0.0518 -1.1820 -0.6693
   18DOPE  H15Y 2312   7.359   5.362   6.473  0.5537 -0.7157  0.3724
   18DOPE  C316 2313   7.321   5.148   6.489 -0.2162 -0.3258 -0.2606
   18DOPE  H16X 2314   7.258   5.132   6.580  3.5653 -0.5071  2.5703
   18DOPE  H16Y 2315   7.391   5.062   6.487  0.5904 -0.0075  4.1577
   18DOPE  C317 2316   7.242   5.157   6.356  0.8978 -0.2222 -0.1845
   18DOPE  H17X 2317   7.193   5.058   6.341 -4.6228  1.9225  1.2981
   18DOPE  H17Y 2318   7.156   5.224   6.376  0.2473 -0.4931 -1.9004
   18DOPE  C318 2319   7.303   5.205   6.231  0.3880 -0.2385  0.6659
   18DOPE  H18X 2320   7.395   5.151   6.200  0.4444  0.3741 -0.2921
   18DOPE  H18Y 2321   7.237   5.212   6.143  1.3096 -1.1219 -0.1226
   18DOPE  H18Z 2322   7.325   5.314   6.244 -0.5864  0.0237  0.2125
   19DOPE     N 2323   0.795   4.124   8.468  0.3871  1.1280  0.5709
   19DOPE   HN1 2324   0.771   4.104   8.369  1.1656  0.3652  0.5230
   19DOPE   HN2 2325   0.895   4.098   8.479 -0.0257 -0.0491  1.8438
   19DOPE   HN3 2326   0.735   4.051   8.510  1.1299 -0.1801 -0.5792
   19DOPE   C12 2327   0.764   4.265   8.515  0.2062  0.5177  0.6865
   19DOPE  H12A 2328   0.789   4.264   8.624  0.4657  0.3809  0.6258
   19DOPE  H12B 2329   0.655   4.280   8.502 -0.2256 -0.9400  2.1848
   19DOPE   C11 2330   0.833   4.379   8.448 -0.2121  0.3359 -0.3478
   19DOPE  H11A 2331   0.816   4.372   8.339  1.3562 -2.1207 -0.5084
   19DOPE  H11B 2332   0.943   4.375   8.467 -0.2471  0.0700 -0.1988
   19DOPE     P 2333   0.724   4.614   8.450  0.1392 -0.3226  0.3321
   19DOPE   O13 2334   0.725   4.725   8.541 -0.3347 -0.2815  0.0848
   19DOPE   O14 2335   0.590   4.574   8.408 -0.7082  0.3353  0.5237
   19DOPE   O11 2336   0.809   4.637   8.323  0.0667 -0.2236 -0.2505
   19DOPE   O12 2337   0.799   4.498   8.517 -0.1319  0.0563  0.3415
   19DOPE    C1 2338   0.945   4.674   8.347  0.9976  0.8046 -0.9632
   19DOPE    HA 2339   0.992   4.615   8.429 -0.3118  1.7913  0.5387
   19DOPE    HB 2340   0.960   4.780   8.376  0.2878  1.0905 -1.6207
   19DOPE    C2 2341   1.034   4.659   8.216 -0.0081  0.3325 -0.1517
   19DOPE    HS 2342   1.127   4.718   8.229  0.3941 -0.1571 -0.7100
   19DOPE   O21 2343   0.966   4.705   8.103 -0.3253  0.6694  0.1589
   19DOPE   C21 2344   0.949   4.828   8.085 -0.5483 -0.4685 -0.2054
   19DOPE   O22 2345   0.986   4.923   8.153  0.0458  0.4446  0.3969
   19DOPE   C22 2346   0.854   4.847   7.962 -0.2465 -0.9737 -0.3222
   19DOPE   H2R 2347   0.751   4.864   8.001 -1.0136  1.7845 -3.1205
   19DOPE   H2S 2348   0.854   4.756   7.898 -2.9787  0.2082 -2.1843
   19DOPE    C3 2349   1.080   4.509   8.202 -0.5371  0.0565  0.1521
   19DOPE    HX 2350   0.991   4.442   8.199  0.0997 -0.8232  0.5742
   19DOPE    HY 2351   1.139   4.493   8.294  0.4700 -1.3146 -0.6864
   19DOPE   O31 2352   1.173   4.494   8.089 -0.3212  0.0868  0.4454
   19DOPE   C31 2353   1.203   4.363   8.062  0.9210  0.4268  0.0896
   19DOPE   O32 2354   1.144   4.268   8.110 -0.3237  0.0116  0.0302
   19DOPE   C32 2355   1.300   4.354   7.944  0.1814 -0.2150 -0.2709
   19DOPE   H2X 2356   1.267   4.437   7.880 -0.9304  0.1352  0.7231
   19DOPE   H2Y 2357   1.398   4.380   7.990 -0.3088 -0.6264  1.0728
   19DOPE   C23 2358   0.904   4.969   7.886  0.1018  0.2728 -0.2125
   19DOPE   H3R 2359   1.012   4.965   7.861  0.1590 -0.2230  0.0998
   19DOPE   H3S 2360   0.887   5.066   7.938  0.0877 -0.6815  1.6548
   19DOPE   C24 2361   0.834   4.978   7.748 -0.0810  0.7150  0.5079
   19DOPE   H4R 2362   0.724   4.986   7.764 -0.5626  0.1772 -2.0939
   19DOPE   H4S 2363   0.848   4.879   7.699 -1.4827  0.3528  0.7748
   19DOPE   C25 2364   0.876   5.097   7.661  0.0627  0.3432 -0.1279
   19DOPE   H5R 2365   0.985   5.090   7.639  0.0899  0.4499 -0.0252
   19DOPE   H5S 2366   0.854   5.187   7.723 -0.4347  1.4422 -1.8222
   19DOPE   C26 2367   0.788   5.108   7.534  0.6585 -0.4275 -0.1612
   19DOPE   H6R 2368   0.678   5.109   7.553  0.7707 -0.5157  0.5048
   19DOPE   H6S 2369   0.808   5.023   7.466  0.4687  0.8706 -1.9275
   19DOPE   C27 2370   0.807   5.237   7.449  1.1900  0.6634  0.2096
   19DOPE   H7R 2371   0.778   5.321   7.516  0.6263  0.2224  0.5232
   19DOPE   H7S 2372   0.736   5.229   7.364  0.4102  1.9012  0.7184
   19DOPE   C28 2373   0.950   5.259   7.401 -0.4692 -0.0358  0.2741
   19DOPE   H8R 2374   1.010   5.280   7.492 -0.9975 -1.8341  1.0746
   19DOPE   H8S 2375   0.941   5.348   7.335  1.7917 -0.4269 -0.6390
   19DOPE   C29 2376   1.009   5.137   7.327 -0.3999 -0.3172  0.1160
   19DOPE   H9R 2377   1.028   5.052   7.393 -0.1212 -0.9423 -0.7536
   19DOPE  C210 2378   1.038   5.138   7.193  0.1457  0.1560 -0.4091
   19DOPE  H10R 2379   1.067   5.040   7.153  0.6081  0.5605 -1.0713
   19DOPE  C211 2380   0.997   5.247   7.093  0.0176 -0.6610 -0.5545
   19DOPE  H11R 2381   1.039   5.347   7.112 -1.7199 -0.1876  1.1659
   19DOPE  H11S 2382   0.886   5.256   7.104  0.0268 -0.9297 -0.2277
   19DOPE  C212 2383   1.010   5.209   6.943 -0.3972 -0.3493 -0.3335
   19DOPE  H12R 2384   0.952   5.277   6.877 -2.6256 -1.6155  0.2157
   19DOPE  H12S 2385   0.964   5.111   6.917 -0.8799 -0.0542 -0.5967
   19DOPE  C213 2386   1.157   5.214   6.915 -0.4910 -0.6316  0.7087
   19DOPE  H13R 2387   1.223   5.163   6.988  0.4400 -0.2977  0.1161
   19DOPE  H13S 2388   1.193   5.319   6.919 -0.3559 -0.5042 -1.9018
   19DOPE  C214 2389   1.195   5.163   6.769  0.2380 -0.0786 -0.4202
   19DOPE  H14R 2390   1.175   5.054   6.760 -0.7337  0.0662 -0.1525
   19DOPE  H14S 2391   1.300   5.194   6.752 -0.2566  2.5982  0.8174
   19DOPE  C215 2392   1.108   5.232   6.660  0.5951  0.2336 -0.2999
   19DOPE  H15R 2393   1.007   5.187   6.648  1.4882 -1.9195 -0.1116
   19DOPE  H15S 2394   1.153   5.201   6.563 -0.1995 -1.0244 -0.2875
   19DOPE  C216 2395   1.100   5.379   6.658 -0.7488 -0.5457  0.2308
   19DOPE  H16R 2396   1.195   5.416   6.704 -1.0832  1.6784 -0.7426
   19DOPE  H16S 2397   1.011   5.412   6.715 -2.0955 -0.9930 -1.5498
   19DOPE  C217 2398   1.090   5.437   6.514 -0.0070 -0.3761 -0.4875
   19DOPE  H17R 2399   0.996   5.411   6.459  0.0981 -0.0252 -0.8361
   19DOPE  H17S 2400   1.175   5.398   6.453  0.0591  0.8703 -1.2148
   19DOPE  C218 2401   1.090   5.591   6.502 -0.4944  0.4782  1.2410
   19DOPE  H18R 2402   1.006   5.633   6.562 -1.4974 -2.5314  2.1125
   19DOPE  H18S 2403   1.086   5.624   6.396 -0.6225 -1.7641  0.4945
   19DOPE  H18T 2404   1.186   5.632   6.542 -0.4286  0.7683  0.7870
   19DOPE   C33 2405   1.291   4.225   7.859  0.2757  0.1279  0.5027
   19DOPE   H3X 2406   1.185   4.230   7.826  0.0923 -1.1404  0.8666
   19DOPE   H3Y 2407   1.299   4.135   7.923  1.4175  1.9487  3.0976
   19DOPE   C34 2408   1.380   4.197   7.745 -0.0224  0.0425  0.3440
   19DOPE   H4X 2409   1.476   4.182   7.798  0.0884  2.7152  1.0073
   19DOPE   H4Y 2410   1.347   4.112   7.681  1.5657  0.7386 -1.5231
   19DOPE   C35 2411   1.386   4.325   7.660 -0.1857 -0.0518  0.1682
   19DOPE   H5X 2412   1.460   4.397   7.700  0.4568 -0.7294  0.2340
   19DOPE   H5Y 2413   1.281   4.361   7.653 -1.3000 -3.1720 -1.5867
   19DOPE   C36 2414   1.426   4.293   7.514 -0.7883 -0.2837  0.5468
   19DOPE   H6X 2415   1.349   4.224   7.474  1.2776 -2.7299  0.5220
   19DOPE   H6Y 2416   1.525   4.243   7.517 -1.0284 -0.8558 -0.5295
   19DOPE   C37 2417   1.440   4.414   7.423  0.7500 -0.0872 -0.9737
   19DOPE   H7X 2418   1.338   4.458   7.417  0.1469 -0.3998  3.6142
   19DOPE   H7Y 2419   1.491   4.492   7.484  0.8792 -1.7424  1.1359
   19DOPE   C38 2420   1.493   4.391   7.284  0.7279  0.1493 -0.3167
   19DOPE   H8X 2421   1.600   4.363   7.294  1.2823  1.9517 -0.8813
   19DOPE   H8Y 2422   1.495   4.490   7.234  1.1243  0.1136 -0.3722
   19DOPE   C39 2423   1.416   4.282   7.211  0.1991  0.1294 -0.0792
   19DOPE   H9X 2424   1.399   4.193   7.273 -1.3643 -0.9473 -1.9505
   19DOPE  C310 2425   1.370   4.290   7.086  0.0865 -0.5663 -0.1063
   19DOPE  H10X 2426   1.329   4.196   7.047  1.7861 -1.9670  1.3217
   19DOPE  C311 2427   1.379   4.401   6.983  0.2055 -0.8129 -0.4229
   19DOPE  H11X 2428   1.280   4.437   6.947  0.1314  1.5812  1.8787
   19DOPE  H11Y 2429   1.425   4.492   7.027 -0.6838 -0.0700 -0.9965
   19DOPE  C312 2430   1.455   4.369   6.845  0.4698 -0.3032 -0.3900
   19DOPE  H12X 2431   1.412   4.276   6.800 -0.6233 -0.0271  0.0481
   19DOPE  H12Y 2432   1.564   4.363   6.864  0.4731 -2.0812 -0.7879
   19DOPE  C313 2433   1.435   4.478   6.738 -0.4917 -1.0584  0.1052
   19DOPE  H13X 2434   1.332   4.461   6.700 -0.8111 -0.3138  0.6112
   19DOPE  H13Y 2435   1.431   4.573   6.796  2.0346  0.4800 -2.0287
   19DOPE  C314 2436   1.538   4.463   6.626  0.4432  0.3680 -0.2033
   19DOPE  H14X 2437   1.523   4.371   6.566  1.8079  0.7423 -1.1642
   19DOPE  H14Y 2438   1.636   4.468   6.677 -0.4131  1.0093  1.4556
   19DOPE  C315 2439   1.527   4.582   6.524  0.1531 -0.8744  0.3245
   19DOPE  H15X 2440   1.433   4.579   6.465 -0.6008 -0.8402  1.5073
   19DOPE  H15Y 2441   1.615   4.574   6.456  0.3329  0.4763  0.3627
   19DOPE  C316 2442   1.516   4.735   6.577  0.0664  1.0218  0.3616
   19DOPE  H16X 2443   1.594   4.743   6.655  0.5555  0.5324 -0.0721
   19DOPE  H16Y 2444   1.418   4.744   6.629  0.8156 -0.4125  2.1115
   19DOPE  C317 2445   1.550   4.845   6.474  0.7184 -0.2868 -0.1220
   19DOPE  H17X 2446   1.653   4.829   6.437  0.3274  0.1765 -1.4729
   19DOPE  H17Y 2447   1.498   4.825   6.378  3.4565 -0.7832 -1.5831
   19DOPE  C318 2448   1.515   4.991   6.507 -0.2551  0.2087 -0.2449
   19DOPE  H18X 2449   1.593   5.045   6.566  0.3197  2.5350 -2.9034
   19DOPE  H18Y 2450   1.496   5.050   6.414 -1.3307  0.9206  0.4000
   19DOPE  H18Z 2451   1.421   4.998   6.565  0.2434  0.1921  0.5818
   20DOPE     N 2452   5.576   0.475   8.485 -0.0962  0.1342  0.1367
   20DOPE   HN1 2453   5.526   0.426   8.562 -1.9778  2.1256  0.2759
   20DOPE   HN2 2454   5.621   0.402   8.426  0.0151  0.2813  0.0371
   20DOPE   HN3 2455   5.655   0.537   8.514 -0.7198  2.2917 -2.4135
   20DOPE   C12 2456   5.479   0.541   8.391 -0.0251  0.0299 -0.4527
   20DOPE  H12A 2457   5.454   0.643   8.428  0.9387  0.2543 -0.3855
   20DOPE  H12B 2458   5.388   0.478   8.384  0.0055 -0.1259  0.4565
   20DOPE   C11 2459   5.545   0.571   8.254  0.1848  0.1080  0.0093
   20DOPE  H11A 2460   5.464   0.608   8.188  0.7735 -0.6455 -1.1784
   20DOPE  H11B 2461   5.574   0.471   8.214 -2.1342 -0.9528  0.7560
   20DOPE     P 2462   5.625   0.822   8.248  0.3436 -0.0558  0.3508
   20DOPE   O13 2463   5.756   0.890   8.279  0.2414 -0.5465  0.1920
   20DOPE   O14 2464   5.511   0.870   8.331  0.5735  0.6399  0.1653
   20DOPE   O11 2465   5.588   0.843   8.094 -0.2770  0.3376 -0.1802
   20DOPE   O12 2466   5.651   0.669   8.265 -0.6600  0.0519 -0.1937
   20DOPE    C1 2467   5.668   0.766   7.997  0.4399 -0.0062 -0.3122
   20DOPE    HA 2468   5.697   0.662   8.020 -1.4908 -0.7837 -1.2064
   20DOPE    HB 2469   5.767   0.816   7.980 -0.5175  2.3072  0.4236
   20DOPE    C2 2470   5.602   0.766   7.859 -0.4263 -0.1416  0.0940
   20DOPE    HS 2471   5.594   0.868   7.816  1.1879 -0.4585 -1.0268
   20DOPE   O21 2472   5.477   0.698   7.869 -0.6373  0.2922 -0.5391
   20DOPE   C21 2473   5.381   0.740   7.794 -0.3653  0.5921 -0.2170
   20DOPE   O22 2474   5.388   0.834   7.715  0.3917 -0.1175 -0.0168
   20DOPE   C22 2475   5.247   0.663   7.822  0.6019 -0.0586 -0.3178
   20DOPE   H2R 2476   5.166   0.738   7.828  1.1217  0.5309 -0.5332
   20DOPE   H2S 2477   5.261   0.617   7.923  1.6083  1.0787  0.0893
   20DOPE    C3 2478   5.685   0.689   7.742 -0.1529  0.2012 -0.5080
   20DOPE    HX 2479   5.705   0.593   7.794 -1.4378  0.4898  0.5806
   20DOPE    HY 2480   5.784   0.739   7.732  1.4695 -2.8936 -0.9775
   20DOPE   O31 2481   5.620   0.676   7.614  0.4142 -0.5071  0.3669
   20DOPE   C31 2482   5.622   0.788   7.534  0.1253 -0.0315 -0.5709
   20DOPE   O32 2483   5.680   0.889   7.566  0.1570  0.1255 -0.6943
   20DOPE   C32 2484   5.548   0.757   7.401  0.1293 -0.1671 -0.1646
   20DOPE   H2X 2485   5.584   0.655   7.377 -1.0900 -0.6412 -0.0496
   20DOPE   H2Y 2486   5.437   0.756   7.415 -0.0229  1.4856 -1.0080
   20DOPE   C23 2487   5.212   0.562   7.711  0.1154 -0.5918  0.3273
   20DOPE   H3R 2488   5.116   0.510   7.732  0.4871 -2.2094 -1.6504
   20DOPE   H3S 2489   5.285   0.479   7.706 -1.2601 -1.9031  1.0995
   20DOPE   C24 2490   5.192   0.630   7.575 -0.1488 -0.2830  0.0201
   20DOPE   H4R 2491   5.264   0.712   7.557 -1.6315  1.4131  1.4173
   20DOPE   H4S 2492   5.093   0.681   7.574  0.3193  0.7037 -2.1690
   20DOPE   C25 2493   5.187   0.523   7.462 -0.0205  0.3467 -0.2850
   20DOPE   H5R 2494   5.124   0.433   7.479  2.5529 -1.1083  2.5943
   20DOPE   H5S 2495   5.288   0.476   7.458  0.1760  0.8306 -3.0017
   20DOPE   C26 2496   5.143   0.590   7.335  0.0198  0.0279 -0.0325
   20DOPE   H6R 2497   5.216   0.670   7.309  1.0219 -1.3066 -1.4486
   20DOPE   H6S 2498   5.040   0.624   7.358  0.4276  0.4109  1.3418
   20DOPE   C27 2499   5.137   0.495   7.214  0.2335 -0.5132  0.7614
   20DOPE   H7R 2500   5.059   0.419   7.238  0.4833 -0.5475  1.4839
   20DOPE   H7S 2501   5.229   0.434   7.205  1.2076  1.1186 -1.0183
   20DOPE   C28 2502   5.113   0.564   7.073  0.3648  0.1915  0.3697
   20DOPE   H8R 2503   5.192   0.641   7.060  0.9872  0.4453  4.4176
   20DOPE   H8S 2504   5.014   0.614   7.068 -0.6603 -1.7323  0.5968
   20DOPE   C29 2505   5.103   0.459   6.967 -0.1153  0.2089 -0.1507
   20DOPE   H9R 2506   5.010   0.399   6.970  1.3586 -2.1630  0.4996
   20DOPE  C210 2507   5.187   0.427   6.879  0.5682  0.0104  0.3196
   20DOPE  H10R 2508   5.160   0.351   6.804 -0.5712 -0.0665  0.7898
   20DOPE  C211 2509   5.322   0.478   6.850 -0.8483  0.5105  0.3574
   20DOPE  H11R 2510   5.348   0.568   6.911 -1.2998 -0.9559  2.8458
   20DOPE  H11S 2511   5.331   0.497   6.741 -1.0779 -0.3081  0.1887
   20DOPE  C212 2512   5.429   0.368   6.883 -0.6008  0.3154  0.1764
   20DOPE  H12R 2513   5.404   0.274   6.829  2.7256 -0.6521  0.1132
   20DOPE  H12S 2514   5.423   0.346   6.992 -1.0798 -1.4034 -0.1667
   20DOPE  C213 2515   5.562   0.404   6.829  0.7996  0.0207 -0.2858
   20DOPE  H13R 2516   5.605   0.492   6.882 -0.0019  2.6458 -3.6328
   20DOPE  H13S 2517   5.558   0.424   6.720 -3.0961  0.1222 -0.2678
   20DOPE  C214 2518   5.664   0.285   6.830 -0.2757  0.2617  0.0074
   20DOPE  H14R 2519   5.765   0.316   6.794  0.1673 -0.8164  0.2696
   20DOPE  H14S 2520   5.633   0.208   6.756  0.8932  1.1785 -1.4998
   20DOPE  C215 2521   5.686   0.221   6.963  0.0193  0.4140 -0.6823
   20DOPE  H15R 2522   5.780   0.164   6.954 -0.8511 -1.2312  0.1803
   20DOPE  H15S 2523   5.599   0.154   6.984 -1.0828  1.6861 -1.0447
   20DOPE  C216 2524   5.703   0.317   7.083  0.4804 -0.3667  0.0770
   20DOPE  H16R 2525   5.606   0.358   7.118  0.7966 -0.1800  0.7666
   20DOPE  H16S 2526   5.766   0.401   7.047 -0.9541 -0.1784 -2.1732
   20DOPE  C217 2527   5.774   0.257   7.205 -0.1723  0.4697 -0.0691
   20DOPE  H17R 2528   5.863   0.196   7.178 -1.3252 -0.8410 -1.0553
   20DOPE  H17S 2529   5.701   0.186   7.250  1.4803  0.1049  2.2217
   20DOPE  C218 2530   5.818   0.364   7.308  0.8758  0.3158 -0.5859
   20DOPE  H18R 2531   5.851   0.457   7.256 -2.8356  2.9894  1.3936
   20DOPE  H18S 2532   5.904   0.330   7.369 -0.5351 -2.4314  0.0061
   20DOPE  H18T 2533   5.733   0.393   7.372 -0.1599  0.0204 -1.7909
   20DOPE   C33 2534   5.599   0.846   7.281  0.6169 -0.1204 -0.9350
   20DOPE   H3X 2535   5.664   0.925   7.324  1.5748 -1.8128  0.9212
   20DOPE   H3Y 2536   5.510   0.907   7.257 -1.2584  0.0739  4.9231
   20DOPE   C34 2537   5.666   0.777   7.159 -0.3909 -0.5121  0.7547
   20DOPE   H4X 2538   5.750   0.713   7.194  0.5590 -1.9733 -3.5784
   20DOPE   H4Y 2539   5.595   0.711   7.104  1.9225  0.7563 -4.4396
   20DOPE   C35 2540   5.712   0.880   7.056 -0.0286  0.2605 -0.3119
   20DOPE   H5X 2541   5.770   0.944   7.125 -0.5805 -0.3721  0.7559
   20DOPE   H5Y 2542   5.619   0.928   7.018 -0.4247 -0.7908 -0.7044
   20DOPE   C36 2543   5.787   0.816   6.938  0.1745 -0.6270  0.2727
   20DOPE   H6X 2544   5.833   0.897   6.877 -0.5071 -0.3034  0.1826
   20DOPE   H6Y 2545   5.710   0.767   6.875 -2.4445  2.0153  1.1778
   20DOPE   C37 2546   5.908   0.729   6.991  0.2549  0.0639 -0.0017
   20DOPE   H7X 2547   5.976   0.794   7.052 -0.9955  1.0270  0.3990
   20DOPE   H7Y 2548   5.865   0.645   7.049 -0.3464  1.2069  1.2712
   20DOPE   C38 2549   6.004   0.684   6.876  1.0881 -0.4589  0.7089
   20DOPE   H8X 2550   6.090   0.639   6.932  2.4904  1.6353  0.3774
   20DOPE   H8Y 2551   6.040   0.779   6.831  0.2506  0.4092  1.8086
   20DOPE   C39 2552   5.922   0.601   6.787 -0.5420  0.3226  0.4966
   20DOPE   H9X 2553   5.845   0.542   6.838 -0.5990  2.1494  2.6518
   20DOPE  C310 2554   5.908   0.602   6.653 -0.7927 -0.3350 -0.7576
   20DOPE  H10X 2555   5.843   0.527   6.606 -0.6783 -1.9318  1.4824
   20DOPE  C311 2556   6.012   0.682   6.572 -0.1511  0.2863  0.2139
   20DOPE  H11X 2557   5.978   0.781   6.534 -0.1146  1.2514  2.4800
   20DOPE  H11Y 2558   6.100   0.710   6.633 -0.8616  2.4022  0.3446
   20DOPE  C312 2559   6.054   0.592   6.452  0.0153 -0.2783 -0.2657
   20DOPE  H12X 2560   6.052   0.484   6.480  0.6655 -0.0090  0.8602
   20DOPE  H12Y 2561   6.157   0.613   6.416  1.1451 -0.3811  2.6224
   20DOPE  C313 2562   5.964   0.614   6.332  0.1109 -0.0390  0.7682
   20DOPE  H13X 2563   5.979   0.535   6.256 -0.5472 -0.4320  1.0404
   20DOPE  H13Y 2564   5.860   0.622   6.369 -0.9112  2.0584 -2.1705
   20DOPE  C314 2565   5.984   0.747   6.254 -0.4611 -0.3053 -0.3181
   20DOPE  H14X 2566   6.050   0.747   6.165 -3.8072  1.3502 -3.0199
   20DOPE  H14Y 2567   6.022   0.830   6.317 -0.0811  1.1156 -2.3373
   20DOPE  C315 2568   5.853   0.797   6.191 -0.2089  0.2680  0.4883
   20DOPE  H15X 2569   5.780   0.805   6.274  1.2293  0.6377  1.7344
   20DOPE  H15Y 2570   5.824   0.711   6.126  1.2112  0.8445 -0.9629
   20DOPE  C316 2571   5.858   0.913   6.095 -0.2471  0.6106 -0.6912
   20DOPE  H16X 2572   5.786   0.894   6.013  0.0588 -0.5408 -0.7182
   20DOPE  H16Y 2573   5.961   0.913   6.052 -0.6361  2.6719 -1.6775
   20DOPE  C317 2574   5.840   1.041   6.173  0.1875  0.2840  0.3185
   20DOPE  H17X 2575   5.748   1.038   6.234  1.4484 -0.6680  2.2439
   20DOPE  H17Y 2576   5.930   1.044   6.237 -0.2160 -0.5088  0.9339
   20DOPE  C318 2577   5.852   1.159   6.077  0.3889 -0.6787  0.2261
   20DOPE  H18X 2578   5.814   1.254   6.121 -2.4957 -1.5137 -0.2122
   20DOPE  H18Y 2579   5.959   1.170   6.049  0.6801 -0.1375  1.5012
   20DOPE  H18Z 2580   5.781   1.128   5.997 -0.4036 -1.8764  1.3492
   21DOPE     N 2581   3.328   1.649   8.739  0.1557 -0.4048 -0.8968
   21DOPE   HN1 2582   3.269   1.614   8.817 -0.1481  2.2072  0.1379
   21DOPE   HN2 2583   3.300   1.592   8.657  1.1764 -1.3527 -0.6144
   21DOPE   HN3 2584   3.432   1.656   8.749 -0.1670  2.3280  2.1972
   21DOPE   C12 2585   3.290   1.798   8.708 -0.6746  1.0393  0.3839
   21DOPE  H12A 2586   3.330   1.819   8.606 -0.4420 -1.5261 -0.1126
   21DOPE  H12B 2587   3.333   1.859   8.790 -1.0236  1.4351  0.2825
   21DOPE   C11 2588   3.138   1.817   8.689 -0.6886 -0.0181  0.4250
   21DOPE  H11A 2589   3.101   1.759   8.602 -1.4637  4.0680 -2.2960
   21DOPE  H11B 2590   3.116   1.923   8.664  1.9716  0.8168  1.3181
   21DOPE     P 2591   2.995   1.667   8.859 -0.2630 -0.1178  0.3756
   21DOPE   O13 2592   2.905   1.706   8.972 -0.0041  0.2217 -0.2153
   21DOPE   O14 2593   3.109   1.581   8.897 -0.5920  0.3904  0.4673
   21DOPE   O11 2594   2.917   1.631   8.732 -0.1258  0.8063  0.5591
   21DOPE   O12 2595   3.061   1.798   8.811  0.5444  0.8389 -0.4287
   21DOPE    C1 2596   2.785   1.693   8.702 -0.3910  0.0030  0.2631
   21DOPE    HA 2597   2.756   1.781   8.763  1.7919  1.0687 -0.1188
   21DOPE    HB 2598   2.711   1.611   8.715  0.3601 -0.7613 -0.0937
   21DOPE    C2 2599   2.773   1.739   8.548  0.0638 -0.1725  0.2114
   21DOPE    HS 2600   2.819   1.648   8.504  1.6930  0.6739  0.0915
   21DOPE   O21 2601   2.843   1.865   8.523 -0.0550  0.3818  0.1631
   21DOPE   C21 2602   2.896   1.872   8.402 -0.3286  0.2050 -0.5692
   21DOPE   O22 2603   2.881   1.786   8.317 -0.0754  0.5765 -0.4729
   21DOPE   C22 2604   2.962   2.003   8.387  0.5270  0.4594 -0.6675
   21DOPE   H2R 2605   2.976   2.063   8.479  1.0669  1.4124 -1.3514
   21DOPE   H2S 2606   2.883   2.051   8.325  0.5538  0.5957 -0.5965
   21DOPE    C3 2607   2.625   1.740   8.510  0.3403  0.3884 -0.2616
   21DOPE    HX 2608   2.581   1.831   8.558  0.4810  0.4328 -0.2172
   21DOPE    HY 2609   2.576   1.651   8.556  1.6999 -0.0688  0.3392
   21DOPE   O31 2610   2.609   1.748   8.366 -0.2520 -0.1746  0.3431
   21DOPE   C31 2611   2.633   1.637   8.297  0.6359  0.7312 -0.2356
   21DOPE   O32 2612   2.650   1.525   8.346  0.1577  0.9352  0.0743
   21DOPE   C32 2613   2.633   1.671   8.154 -0.3964 -0.1411  0.0389
   21DOPE   H2X 2614   2.540   1.731   8.144  0.2610  0.7293 -1.1920
   21DOPE   H2Y 2615   2.711   1.748   8.134  0.9281 -1.3662  0.3067
   21DOPE   C23 2616   3.098   2.001   8.305  0.6000 -0.0423 -0.1660
   21DOPE   H3R 2617   3.091   1.930   8.220 -1.1060  0.1527 -0.2311
   21DOPE   H3S 2618   3.168   1.966   8.384  0.2011 -2.8025 -0.9285
   21DOPE   C24 2619   3.138   2.144   8.260 -1.0102 -0.1815 -0.5749
   21DOPE   H4R 2620   3.131   2.212   8.348  0.9623  0.2831 -0.7347
   21DOPE   H4S 2621   3.065   2.183   8.186  0.9932  0.4954 -2.2702
   21DOPE   C25 2622   3.270   2.138   8.182 -0.3591 -0.0529 -0.0526
   21DOPE   H5R 2623   3.262   2.088   8.083 -0.8374  1.8678 -1.0496
   21DOPE   H5S 2624   3.349   2.092   8.245 -1.4194 -0.2497  1.1755
   21DOPE   C26 2625   3.318   2.281   8.157 -1.1046 -0.0664  0.2732
   21DOPE   H6R 2626   3.331   2.321   8.259  0.6141 -0.0758  0.0929
   21DOPE   H6S 2627   3.246   2.334   8.090  0.6345  0.9000 -0.9383
   21DOPE   C27 2628   3.456   2.293   8.078 -0.1031 -0.1117  0.3386
   21DOPE   H7R 2629   3.534   2.224   8.117  1.2406  1.4871  0.5492
   21DOPE   H7S 2630   3.503   2.392   8.094  2.5099 -0.8642 -1.9230
   21DOPE   C28 2631   3.460   2.256   7.923  0.2592  0.3294  0.5862
   21DOPE   H8R 2632   3.416   2.154   7.921 -0.8634  0.8081 -0.4344
   21DOPE   H8S 2633   3.565   2.247   7.889 -0.3579 -0.7431 -1.1422
   21DOPE   C29 2634   3.379   2.349   7.830 -0.1285 -0.0046 -0.6364
   21DOPE   H9R 2635   3.276   2.368   7.863 -0.2893 -1.8569  0.0090
   21DOPE  C210 2636   3.429   2.429   7.729  0.5423 -0.0481 -0.8533
   21DOPE  H10R 2637   3.363   2.496   7.672  1.2276  1.6287  0.2563
   21DOPE  C211 2638   3.575   2.450   7.688  0.3273  0.0230 -0.8128
   21DOPE  H11R 2639   3.650   2.372   7.715  1.1303  0.7941 -0.7585
   21DOPE  H11S 2640   3.609   2.548   7.729  1.6126 -0.1788 -1.3493
   21DOPE  C212 2641   3.580   2.461   7.532  0.3356 -0.1241 -0.3223
   21DOPE  H12R 2642   3.504   2.395   7.484  0.3458  0.0536 -0.5849
   21DOPE  H12S 2643   3.682   2.436   7.495  0.7806 -0.5100  1.0996
   21DOPE  C213 2644   3.543   2.600   7.493 -0.4403 -0.1814  0.9596
   21DOPE  H13R 2645   3.620   2.664   7.541  0.0412  1.0160 -1.2491
   21DOPE  H13S 2646   3.445   2.633   7.534 -0.5422  1.1129 -0.2358
   21DOPE  C214 2647   3.548   2.630   7.343  0.8379  0.3619 -0.6875
   21DOPE  H14R 2648   3.654   2.609   7.319  0.8219 -1.2128  0.4775
   21DOPE  H14S 2649   3.527   2.738   7.329 -2.3436  0.0273  0.5724
   21DOPE  C215 2650   3.451   2.551   7.260 -0.5643  0.2304 -0.4319
   21DOPE  H15R 2651   3.377   2.619   7.213 -2.0821 -0.1150  1.3281
   21DOPE  H15S 2652   3.398   2.477   7.325  0.7491  0.2393  0.6823
   21DOPE  C216 2653   3.507   2.469   7.136  0.3003  0.4005 -0.3240
   21DOPE  H16R 2654   3.421   2.418   7.089  0.6865 -0.3790 -0.2198
   21DOPE  H16S 2655   3.578   2.390   7.171 -1.6328 -0.6836  1.3273
   21DOPE  C217 2656   3.561   2.566   7.032  0.4415  0.1971 -0.7251
   21DOPE  H17R 2657   3.667   2.587   7.058  0.5413  1.1919 -1.8529
   21DOPE  H17S 2658   3.503   2.661   7.029  0.0730  0.0949  1.4992
   21DOPE  C218 2659   3.549   2.514   6.886 -0.4465  0.1540  0.6696
   21DOPE  H18R 2660   3.594   2.413   6.876  1.3835  0.9670  0.2152
   21DOPE  H18S 2661   3.606   2.581   6.818  1.3734 -1.1370  0.8205
   21DOPE  H18T 2662   3.445   2.510   6.848 -0.6765 -1.0374  1.3937
   21DOPE   C33 2663   2.649   1.552   8.057 -0.1024 -0.3966  1.0134
   21DOPE   H3X 2664   2.581   1.470   8.086 -1.0200 -0.5110 -1.3111
   21DOPE   H3Y 2665   2.757   1.525   8.063  0.1754  0.2627 -0.5642
   21DOPE   C34 2666   2.618   1.606   7.915 -0.0165  0.0673 -0.6132
   21DOPE   H4X 2667   2.511   1.633   7.896  0.1232  1.5752  0.5270
   21DOPE   H4Y 2668   2.676   1.695   7.884 -1.4747  1.0233 -0.7195
   21DOPE   C35 2669   2.654   1.492   7.819  0.8738  0.2955  0.4016
   21DOPE   H5X 2670   2.575   1.415   7.825  0.4525  0.8332  2.7180
   21DOPE   H5Y 2671   2.749   1.443   7.851  1.9695  1.9758 -0.1577
   21DOPE   C36 2672   2.664   1.525   7.667  0.3938  0.3212 -1.1985
   21DOPE   H6X 2673   2.747   1.598   7.657  1.1131 -0.6897 -2.8847
   21DOPE   H6Y 2674   2.580   1.585   7.626 -0.9977 -1.9254 -1.8084
   21DOPE   C37 2675   2.681   1.403   7.578  0.3105 -0.1521 -0.1253
   21DOPE   H7X 2676   2.761   1.340   7.623  0.3519 -0.2385 -0.3165
   21DOPE   H7Y 2677   2.586   1.345   7.573 -0.7683  1.1473  2.9347
   21DOPE   C38 2678   2.728   1.451   7.439  0.2521  0.4957 -0.2156
   21DOPE   H8X 2679   2.817   1.511   7.464  1.6238 -1.2529 -0.6440
   21DOPE   H8Y 2680   2.645   1.500   7.384  0.6215 -0.9351 -2.1658
   21DOPE   C39 2681   2.783   1.338   7.354 -0.0987  1.1103 -0.1907
   21DOPE   H9X 2682   2.850   1.265   7.402  0.0153  1.1520 -0.2866
   21DOPE  C310 2683   2.779   1.326   7.220  0.6056 -0.3879  0.4332
   21DOPE  H10X 2684   2.846   1.253   7.173  0.1349 -0.1658 -0.6078
   21DOPE  C311 2685   2.714   1.425   7.124 -0.7128 -0.5422 -0.1555
   21DOPE  H11X 2686   2.617   1.389   7.084 -0.6410 -0.7748 -0.1162
   21DOPE  H11Y 2687   2.691   1.519   7.180 -2.4151  0.6430 -2.6707
   21DOPE  C312 2688   2.820   1.466   7.008  0.3603 -0.1585  0.4052
   21DOPE  H12X 2689   2.916   1.503   7.050  0.5880 -0.0736 -0.1823
   21DOPE  H12Y 2690   2.772   1.557   6.968 -0.6164 -0.6176  0.5095
   21DOPE  C313 2691   2.860   1.368   6.895 -0.2040  0.0384 -0.0566
   21DOPE  H13X 2692   2.924   1.289   6.939  1.4743  0.7834 -1.0383
   21DOPE  H13Y 2693   2.771   1.318   6.850 -1.7648  3.4116 -1.0273
   21DOPE  C314 2694   2.939   1.441   6.780  0.2088 -0.4404 -0.1243
   21DOPE  H14X 2695   3.012   1.519   6.810 -1.0654  1.5656 -1.9055
   21DOPE  H14Y 2696   2.863   1.489   6.714 -2.2957 -0.9622  2.2131
   21DOPE  C315 2697   3.008   1.337   6.697  0.3519 -0.5865 -0.8445
   21DOPE  H15X 2698   2.938   1.257   6.665 -2.4265  0.2121  2.5923
   21DOPE  H15Y 2699   3.080   1.290   6.767 -2.7978 -2.1534  1.6130
   21DOPE  C316 2700   3.084   1.388   6.574 -0.2477  0.9668 -0.0425
   21DOPE  H16X 2701   3.119   1.492   6.593  0.0049  0.6896  1.0762
   21DOPE  H16Y 2702   3.014   1.386   6.487  1.6275  0.8154 -1.6258
   21DOPE  C317 2703   3.215   1.298   6.541 -0.1827  0.5136 -0.1588
   21DOPE  H17X 2704   3.257   1.333   6.444 -1.9122  1.7718 -0.4954
   21DOPE  H17Y 2705   3.293   1.308   6.619  0.9694 -0.8227 -1.0868
   21DOPE  C318 2706   3.178   1.156   6.519 -0.4756  0.1986  0.3855
   21DOPE  H18X 2707   3.118   1.107   6.600 -2.1124  0.2587 -0.7391
   21DOPE  H18Y 2708   3.103   1.141   6.439 -0.6225 -2.7639  0.9642
   21DOPE  H18Z 2709   3.265   1.088   6.507  0.1674  1.1376 -0.3563
   22DOPE     N 2710   2.183   5.573   9.106  0.4172  0.0558 -0.1804
   22DOPE   HN1 2711   2.260   5.624   9.058  0.3886  1.6586  1.3617
   22DOPE   HN2 2712   2.134   5.513   9.037 -0.9555 -3.0063  3.1152
   22DOPE   HN3 2713   2.122   5.647   9.147 -0.4619  0.1602 -1.5892
   22DOPE   C12 2714   2.224   5.479   9.217  0.7405  0.5008 -0.6156
   22DOPE  H12A 2715   2.272   5.540   9.297  0.9179 -0.5123  0.0781
   22DOPE  H12B 2716   2.301   5.409   9.178  1.1914 -0.2151  1.4341
   22DOPE   C11 2717   2.097   5.414   9.274  0.1606 -0.3096 -0.4622
   22DOPE  H11A 2718   2.025   5.492   9.306 -0.0916 -0.0575 -1.6031
   22DOPE  H11B 2719   2.130   5.354   9.362 -1.4520  1.3560  1.3591
   22DOPE     P 2720   1.903   5.254   9.222 -0.4124  0.0498 -0.3812
   22DOPE   O13 2721   1.807   5.369   9.249  0.7751 -0.4506 -0.8413
   22DOPE   O14 2722   1.936   5.160   9.333 -0.4113 -0.5085  0.1199
   22DOPE   O11 2723   1.855   5.171   9.096  0.5780 -0.2143 -0.3207
   22DOPE   O12 2724   2.042   5.321   9.181 -0.2000 -0.0134  0.1017
   22DOPE    C1 2725   1.961   5.112   9.015 -0.2812  0.0570 -0.6172
   22DOPE    HA 2726   1.920   5.020   8.968 -0.0049 -0.3746 -0.0380
   22DOPE    HB 2727   2.041   5.075   9.083 -1.2718  1.4258  1.3970
   22DOPE    C2 2728   2.016   5.209   8.909 -0.2736 -0.3219  0.3210
   22DOPE    HS 2729   2.091   5.272   8.960 -2.1153  3.0607 -0.7883
   22DOPE   O21 2730   1.912   5.286   8.849  0.8201  0.1345  0.8299
   22DOPE   C21 2731   1.923   5.426   8.862  0.7362 -0.2684 -0.1243
   22DOPE   O22 2732   2.019   5.476   8.908  0.3552  0.3576  0.1140
   22DOPE   C22 2733   1.809   5.500   8.778 -0.2134  0.1071  0.1487
   22DOPE   H2R 2734   1.786   5.590   8.839  1.2189  0.7175 -0.1544
   22DOPE   H2S 2735   1.724   5.430   8.768 -0.2508  0.0688  0.6984
   22DOPE    C3 2736   2.085   5.130   8.793  0.6731  0.1514  0.0157
   22DOPE    HX 2737   2.006   5.080   8.734 -0.2587  1.5225  0.0324
   22DOPE    HY 2738   2.158   5.056   8.832  0.0023 -1.9080 -2.4256
   22DOPE   O31 2739   2.143   5.227   8.707  0.5237 -0.0630 -0.0896
   22DOPE   C31 2740   2.218   5.183   8.607 -0.0844 -0.5522 -0.3290
   22DOPE   O32 2741   2.247   5.066   8.594  0.0724 -0.3569  0.1351
   22DOPE   C32 2742   2.267   5.295   8.512 -0.2739  0.1010 -0.7464
   22DOPE   H2X 2743   2.192   5.377   8.512 -0.4129 -0.0047  0.2246
   22DOPE   H2Y 2744   2.350   5.347   8.565 -1.7312 -1.0098  2.9512
   22DOPE   C23 2745   1.842   5.535   8.630  0.3010  0.1936 -0.0615
   22DOPE   H3R 2746   1.908   5.455   8.588  2.8556  3.0288 -1.8711
   22DOPE   H3S 2747   1.908   5.624   8.636  0.1192  0.2772  0.7998
   22DOPE   C24 2748   1.714   5.536   8.533 -0.9605  0.1391 -0.3659
   22DOPE   H4R 2749   1.653   5.625   8.562  2.3187  1.9026  1.7176
   22DOPE   H4S 2750   1.667   5.436   8.539  1.4009 -0.9843  0.3860
   22DOPE   C25 2751   1.748   5.541   8.386 -0.2429 -0.0116  0.5518
   22DOPE   H5R 2752   1.822   5.461   8.368  0.3246  0.6433 -0.1153
   22DOPE   H5S 2753   1.793   5.642   8.378  1.9727 -1.0669 -1.0335
   22DOPE   C26 2754   1.627   5.515   8.298  0.0069  0.6354  0.8273
   22DOPE   H6R 2755   1.543   5.583   8.324  0.0383  0.3646  1.6799
   22DOPE   H6S 2756   1.596   5.409   8.302  2.1463 -0.0603  0.1783
   22DOPE   C27 2757   1.660   5.546   8.147 -0.4544  0.4486  0.1457
   22DOPE   H7R 2758   1.757   5.495   8.125  1.4503  3.6294  0.4050
   22DOPE   H7S 2759   1.688   5.654   8.141 -2.8674  1.0624 -1.5175
   22DOPE   C28 2760   1.557   5.517   8.036  0.1346 -0.0888 -0.3780
   22DOPE   H8R 2761   1.536   5.411   8.062  1.5984 -0.2780  0.1137
   22DOPE   H8S 2762   1.605   5.518   7.936 -2.3986 -0.9273 -1.7072
   22DOPE   C29 2763   1.435   5.602   8.047  0.9745 -0.6032 -0.3350
   22DOPE   H9R 2764   1.432   5.661   8.140  2.6694 -0.8059 -0.1367
   22DOPE  C210 2765   1.361   5.632   7.945 -0.2705  0.5659  0.4979
   22DOPE  H10R 2766   1.272   5.691   7.971 -0.4009  1.8768 -2.5069
   22DOPE  C211 2767   1.369   5.582   7.804 -0.4260  0.0311 -0.0965
   22DOPE  H11R 2768   1.273   5.547   7.762 -1.1306  0.2460  1.2836
   22DOPE  H11S 2769   1.437   5.494   7.801 -0.4445  0.0360 -0.9427
   22DOPE  C212 2770   1.455   5.675   7.719 -0.3742 -0.4316 -1.0619
   22DOPE  H12R 2771   1.544   5.717   7.769  1.3248 -2.7502 -2.0083
   22DOPE  H12S 2772   1.396   5.767   7.697 -0.5479 -0.5947 -1.2877
   22DOPE  C213 2773   1.491   5.616   7.581  0.1988  0.7228  0.5659
   22DOPE  H13R 2774   1.403   5.574   7.528  1.0280  1.1867 -1.2933
   22DOPE  H13S 2775   1.561   5.530   7.590  0.1580  0.6933  0.5985
   22DOPE  C214 2776   1.552   5.713   7.486  0.7322  0.4307 -0.0389
   22DOPE  H14R 2777   1.629   5.779   7.532  0.4377  2.0619 -1.7473
   22DOPE  H14S 2778   1.467   5.782   7.464  0.3127  1.2160  3.3947
   22DOPE  C215 2779   1.611   5.639   7.364 -0.4656 -0.1263  0.1558
   22DOPE  H15R 2780   1.540   5.569   7.314  0.0897 -0.7157  0.1765
   22DOPE  H15S 2781   1.700   5.578   7.391  0.3928  0.7054 -0.7388
   22DOPE  C216 2782   1.646   5.740   7.248  0.4436  0.3234 -0.7861
   22DOPE  H16R 2783   1.724   5.808   7.290  0.3593  0.2133 -0.4508
   22DOPE  H16S 2784   1.561   5.807   7.226 -1.0442 -0.7044  1.4653
   22DOPE  C217 2785   1.710   5.677   7.127  0.2175  0.7809  0.1917
   22DOPE  H17R 2786   1.636   5.605   7.086  1.1439  0.2201 -0.5405
   22DOPE  H17S 2787   1.800   5.617   7.151  0.8879  1.3386 -0.8375
   22DOPE  C218 2788   1.744   5.784   7.022  0.5325  0.3380  0.6026
   22DOPE  H18R 2789   1.837   5.839   7.047  0.4955  0.7171 -0.0572
   22DOPE  H18S 2790   1.657   5.851   7.007  0.5672  0.2010 -0.2919
   22DOPE  H18T 2791   1.764   5.743   6.920 -1.1531  1.6852 -0.3144
   22DOPE   C33 2792   2.306   5.257   8.374 -0.0991 -0.3249  0.1860
   22DOPE   H3X 2793   2.374   5.169   8.379  0.5299 -0.0034 -1.7635
   22DOPE   H3Y 2794   2.370   5.337   8.332  1.1763 -1.0717  0.6454
   22DOPE   C34 2795   2.175   5.233   8.297 -0.8478  0.6870  0.2018
   22DOPE   H4X 2796   2.118   5.171   8.369  1.2474  1.8306  3.0434
   22DOPE   H4Y 2797   2.117   5.323   8.269  0.4818  1.6001  0.3060
   22DOPE   C35 2798   2.203   5.134   8.174 -0.5454  0.1688  0.5635
   22DOPE   H5X 2799   2.102   5.108   8.136 -1.2627  0.1158  2.3990
   22DOPE   H5Y 2800   2.251   5.043   8.216 -0.1070  0.3218  0.4015
   22DOPE   C36 2801   2.296   5.196   8.071  0.5251 -0.0320  0.2240
   22DOPE   H6X 2802   2.397   5.218   8.112  0.9872 -0.9402 -0.3842
   22DOPE   H6Y 2803   2.251   5.291   8.036 -3.0803 -1.9685 -0.8339
   22DOPE   C37 2804   2.329   5.095   7.956  0.1877 -0.5556 -0.2662
   22DOPE   H7X 2805   2.380   5.010   8.007 -0.3643  0.6030  2.3753
   22DOPE   H7Y 2806   2.235   5.059   7.909  1.3746 -2.2424 -1.4532
   22DOPE   C38 2807   2.419   5.158   7.853 -0.1514  0.3143 -0.0954
   22DOPE   H8X 2808   2.510   5.209   7.890  0.2318  1.4423 -2.3536
   22DOPE   H8Y 2809   2.358   5.231   7.795 -1.6766 -2.6057 -2.4513
   22DOPE   C39 2810   2.464   5.054   7.755  0.0338  0.0313 -0.8421
   22DOPE   H9X 2811   2.477   4.954   7.800  1.2002  0.6348  0.2352
   22DOPE  C310 2812   2.496   5.073   7.627 -0.0591 -0.1175 -1.1011
   22DOPE  H10X 2813   2.531   4.985   7.571 -2.0515 -0.0675 -2.5029
   22DOPE  C311 2814   2.496   5.208   7.555  0.3831  0.3063 -0.8261
   22DOPE  H11X 2815   2.439   5.282   7.616 -0.7449 -0.7386 -0.5797
   22DOPE  H11Y 2816   2.599   5.244   7.535  1.1372 -0.4927  1.3480
   22DOPE  C312 2817   2.426   5.199   7.426 -0.1239  0.7449  0.2717
   22DOPE  H12X 2818   2.421   5.301   7.384  2.1696  0.4185 -0.9473
   22DOPE  H12Y 2819   2.324   5.162   7.450 -0.5410  1.5216 -0.2796
   22DOPE  C313 2820   2.491   5.105   7.327 -1.9289  0.6609 -0.3536
   22DOPE  H13X 2821   2.600   5.127   7.322 -1.8337  0.0543 -1.0413
   22DOPE  H13Y 2822   2.470   5.000   7.358 -2.5323  0.0268 -2.7442
   22DOPE  C314 2823   2.427   5.123   7.191  0.6361 -0.8796  0.0042
   22DOPE  H14X 2824   2.437   5.227   7.154 -1.6784 -1.2132 -1.7879
   22DOPE  H14Y 2825   2.317   5.108   7.196  0.5017  0.0145 -0.1546
   22DOPE  C315 2826   2.486   5.044   7.077  0.4356  0.1963 -0.4553
   22DOPE  H15X 2827   2.483   4.933   7.086 -0.4056  0.0810 -1.7992
   22DOPE  H15Y 2828   2.592   5.074   7.064  0.3442  0.6978 -0.0475
   22DOPE  C316 2829   2.432   5.069   6.935 -0.5053 -0.2069 -0.0326
   22DOPE  H16X 2830   2.427   5.178   6.913  0.6296 -0.4193 -1.4884
   22DOPE  H16Y 2831   2.329   5.027   6.934 -0.6138  0.0648 -0.3627
   22DOPE  C317 2832   2.519   4.993   6.832 -0.2033 -0.1095 -1.4811
   22DOPE  H17X 2833   2.613   5.048   6.814 -0.4614  0.6865 -0.4761
   22DOPE  H17Y 2834   2.555   4.895   6.872  1.6013  1.3996  0.8579
   22DOPE  C318 2835   2.439   4.971   6.704  0.6049 -0.0471 -0.0263
   22DOPE  H18X 2836   2.506   4.913   6.636  0.3979  0.8006 -0.9791
   22DOPE  H18Y 2837   2.352   4.904   6.723 -0.3663  0.9375 -0.8738
   22DOPE  H18Z 2838   2.417   5.067   6.653 -1.0294 -0.0582  0.5966
   23DOPE     N 2839   4.332   1.908   9.105 -0.0060 -0.2984  0.7320
   23DOPE   HN1 2840   4.393   1.838   9.060  1.4152  1.3799 -0.0435
   23DOPE   HN2 2841   4.395   1.948   9.177  1.1132  0.0887 -0.4410
   23DOPE   HN3 2842   4.254   1.853   9.148  0.2802 -2.2869 -1.1336
   23DOPE   C12 2843   4.279   2.007   9.005  0.0959 -1.5454 -0.2634
   23DOPE  H12A 2844   4.240   2.093   9.063 -0.0741 -0.4843 -1.8841
   23DOPE  H12B 2845   4.195   1.966   8.944 -0.4220 -1.6715  0.5233
   23DOPE   C11 2846   4.393   2.044   8.912  1.1367  0.6184 -0.1142
   23DOPE  H11A 2847   4.350   2.104   8.829 -3.6387 -1.3272  0.6356
   23DOPE  H11B 2848   4.423   1.952   8.857  1.4083  0.5692  0.1134
   23DOPE     P 2849   4.537   2.248   8.968  0.1289  0.1977 -0.1978
   23DOPE   O13 2850   4.665   2.273   9.044  0.0390 -0.3337  0.5072
   23DOPE   O14 2851   4.415   2.324   9.012  0.1943  0.4231  0.4253
   23DOPE   O11 2852   4.571   2.274   8.817  0.2483  0.2666 -0.1334
   23DOPE   O12 2853   4.502   2.098   8.981  0.4055  0.2562 -0.0880
   23DOPE    C1 2854   4.626   2.179   8.725 -0.1846  0.4152 -0.6310
   23DOPE    HA 2855   4.591   2.077   8.751 -2.2444  1.7841  2.5272
   23DOPE    HB 2856   4.735   2.172   8.746  0.0726  4.6568  0.3350
   23DOPE    C2 2857   4.580   2.195   8.576 -0.1170 -0.3353  0.1614
   23DOPE    HS 2858   4.619   2.291   8.537 -0.8388  0.1960  0.7201
   23DOPE   O21 2859   4.440   2.205   8.571  0.6711  0.1873 -0.1501
   23DOPE   C21 2860   4.393   2.268   8.473 -0.7003  0.2250  0.0123
   23DOPE   O22 2861   4.461   2.322   8.383 -0.1121  0.0674  0.9272
   23DOPE   C22 2862   4.238   2.259   8.474  0.0523  0.1354 -0.2563
   23DOPE   H2R 2863   4.196   2.352   8.516 -0.8604  1.1917 -3.2469
   23DOPE   H2S 2864   4.205   2.175   8.538 -0.5128  0.0362 -0.6670
   23DOPE    C3 2865   4.632   2.074   8.500 -0.0833 -0.2560  0.2294
   23DOPE    HX 2866   4.560   1.991   8.520 -1.5391  0.3260 -2.1597
   23DOPE    HY 2867   4.729   2.049   8.548  1.0424 -0.7151 -2.1553
   23DOPE   O31 2868   4.651   2.100   8.361 -0.3831 -0.4720  0.1633
   23DOPE   C31 2869   4.557   2.055   8.283  0.3803 -0.0092  0.1472
   23DOPE   O32 2870   4.459   1.990   8.320  0.1068  0.2911 -0.2191
   23DOPE   C32 2871   4.571   2.089   8.130  0.0354 -0.1942  0.0724
   23DOPE   H2X 2872   4.647   2.167   8.108  1.8229 -2.3753 -1.9022
   23DOPE   H2Y 2873   4.608   1.995   8.086 -0.9272 -0.8466  0.6071
   23DOPE   C23 2874   4.166   2.240   8.330  0.5076  0.6013 -0.3811
   23DOPE   H3R 2875   4.194   2.136   8.305 -0.0777 -0.1063  1.6522
   23DOPE   H3S 2876   4.207   2.303   8.249 -0.5888  1.1516 -0.5402
   23DOPE   C24 2877   4.014   2.250   8.336  0.0852  0.1466  0.1419
   23DOPE   H4R 2878   3.986   2.351   8.374  3.2004  1.3003 -0.3174
   23DOPE   H4S 2879   3.983   2.172   8.408 -1.8175  0.3505 -0.4090
   23DOPE   C25 2880   3.957   2.242   8.195  0.2234 -0.2942 -0.0085
   23DOPE   H5R 2881   3.850   2.264   8.216  1.0811  2.6136  2.0992
   23DOPE   H5S 2882   3.963   2.137   8.160  1.2249 -0.6659  1.2043
   23DOPE   C26 2883   4.015   2.346   8.096  0.2168  0.7804  1.0747
   23DOPE   H6R 2884   4.119   2.323   8.064  0.5469  2.9065  0.4608
   23DOPE   H6S 2885   4.026   2.444   8.148  3.0413  0.7932  0.6185
   23DOPE   C27 2886   3.929   2.350   7.969 -0.7945  0.1842  0.1317
   23DOPE   H7R 2887   3.832   2.299   7.990 -1.3771  1.5839  1.0071
   23DOPE   H7S 2888   3.985   2.282   7.901 -0.1338 -2.6262  3.2267
   23DOPE   C28 2889   3.906   2.490   7.899 -0.7890 -0.5240  0.1154
   23DOPE   H8R 2890   3.853   2.561   7.965 -0.8604  0.0576 -0.5600
   23DOPE   H8S 2891   3.850   2.457   7.809  0.7901 -2.0397 -0.3763
   23DOPE   C29 2892   4.032   2.558   7.859  0.2783  0.0717 -0.0473
   23DOPE   H9R 2893   4.087   2.600   7.944  0.0646  1.0155 -0.3661
   23DOPE  C210 2894   4.090   2.569   7.740  0.4510  0.0233  0.6792
   23DOPE  H10R 2895   4.176   2.637   7.728  0.2963  0.4779  1.9210
   23DOPE  C211 2896   4.030   2.514   7.606  0.2224  0.1424  0.2763
   23DOPE  H11R 2897   3.934   2.460   7.619  1.3118 -1.6549  1.3238
   23DOPE  H11S 2898   4.094   2.439   7.553  0.1482 -0.1505  0.5949
   23DOPE  C212 2899   4.003   2.622   7.502 -0.1491 -0.4128 -0.1674
   23DOPE  H12R 2900   4.094   2.682   7.483 -0.0287 -0.1828  1.0234
   23DOPE  H12S 2901   3.933   2.701   7.538 -0.4218 -2.3384  4.1315
   23DOPE  C213 2902   3.971   2.558   7.372  0.2568 -0.0066  0.7194
   23DOPE  H13R 2903   3.870   2.512   7.373 -0.3581  1.1742 -1.4100
   23DOPE  H13S 2904   4.051   2.483   7.353  1.1544  0.3452  2.7624
   23DOPE  C214 2905   3.982   2.650   7.251 -0.0939  0.8329 -0.5377
   23DOPE  H14R 2906   4.073   2.713   7.262  0.7221 -0.3645 -0.2154
   23DOPE  H14S 2907   3.893   2.717   7.248 -1.6483 -1.0929  0.6306
   23DOPE  C215 2908   3.991   2.564   7.122 -0.0653 -0.6766 -0.4018
   23DOPE  H15R 2909   3.907   2.492   7.124 -1.5864  1.0460 -0.0400
   23DOPE  H15S 2910   4.086   2.507   7.110  0.1701 -0.6466  1.1165
   23DOPE  C216 2911   3.970   2.650   7.000 -0.1945 -0.2542 -0.0825
   23DOPE  H16R 2912   4.062   2.710   6.980 -0.4509 -0.2657 -1.4446
   23DOPE  H16S 2913   3.885   2.718   7.024 -0.8913 -0.5115 -1.6611
   23DOPE  C217 2914   3.932   2.570   6.877 -0.1191 -0.1760 -0.6228
   23DOPE  H17R 2915   3.848   2.498   6.886  0.1643 -0.6316 -1.5121
   23DOPE  H17S 2916   4.019   2.506   6.848  0.7283  1.0403 -0.8396
   23DOPE  C218 2917   3.893   2.661   6.751 -0.1199  0.1427 -1.0292
   23DOPE  H18R 2918   3.970   2.739   6.732 -0.8582  0.7472 -1.6074
   23DOPE  H18S 2919   3.800   2.716   6.776 -0.4203 -1.0838  0.7969
   23DOPE  H18T 2920   3.870   2.589   6.669  0.8741 -0.6513 -0.6397
   23DOPE   C33 2921   4.432   2.111   8.064 -0.3798 -0.1823 -0.4431
   23DOPE   H3X 2922   4.375   2.195   8.108  0.1925  0.8341 -1.5743
   23DOPE   H3Y 2923   4.383   2.012   8.061 -1.2138  0.2352 -0.9935
   23DOPE   C34 2924   4.451   2.160   7.918  0.1299 -0.0848 -0.0098
   23DOPE   H4X 2925   4.494   2.263   7.917  1.3999 -0.5343  1.6994
   23DOPE   H4Y 2926   4.531   2.101   7.868  2.7820  2.5487  0.8419
   23DOPE   C35 2927   4.309   2.161   7.852 -0.6473 -0.0304 -0.4740
   23DOPE   H5X 2928   4.235   2.214   7.917  0.0413  1.0808 -0.5642
   23DOPE   H5Y 2929   4.261   2.064   7.827 -0.9125  0.2946 -1.2618
   23DOPE   C36 2930   4.309   2.241   7.727 -0.0018 -0.4029 -0.0997
   23DOPE   H6X 2931   4.344   2.342   7.758  0.3774 -0.1525 -1.2715
   23DOPE   H6Y 2932   4.208   2.254   7.683 -0.6358 -1.5442  0.9768
   23DOPE   C37 2933   4.405   2.182   7.618  0.4299  0.4845  0.4191
   23DOPE   H7X 2934   4.508   2.201   7.655  0.0958  1.6133  0.8259
   23DOPE   H7Y 2935   4.393   2.072   7.612 -2.5836  0.7039  0.6993
   23DOPE   C38 2936   4.389   2.250   7.477  0.0091  0.7319  0.5980
   23DOPE   H8X 2937   4.475   2.223   7.412  0.7404 -0.2127  1.9149
   23DOPE   H8Y 2938   4.394   2.358   7.504  0.8113  0.5183  1.3701
   23DOPE   C39 2939   4.255   2.228   7.408  0.0862 -0.4673 -1.0189
   23DOPE   H9X 2940   4.165   2.255   7.465  1.1949  0.1988  0.4915
   23DOPE  C310 2941   4.237   2.184   7.281 -0.2501  0.1070  0.2545
   23DOPE  H10X 2942   4.135   2.194   7.242 -0.5915  1.4241  1.3896
   23DOPE  C311 2943   4.342   2.164   7.177  0.1633 -0.4838 -0.4832
   23DOPE  H11X 2944   4.444   2.170   7.220 -0.0463  1.0175 -0.1586
   23DOPE  H11Y 2945   4.329   2.058   7.145 -0.2505 -1.2312  1.9186
   23DOPE  C312 2946   4.330   2.265   7.066  0.3266  0.0914  0.1940
   23DOPE  H12X 2947   4.224   2.285   7.041  0.5953  3.1026  1.1466
   23DOPE  H12Y 2948   4.361   2.210   6.974 -1.4543 -1.5134  0.4737
   23DOPE  C313 2949   4.377   2.405   7.098 -0.1413 -0.3408 -0.4838
   23DOPE  H13X 2950   4.332   2.440   7.193 -1.2661 -1.7936 -0.4467
   23DOPE  H13Y 2951   4.484   2.387   7.123  0.2351  1.3216 -0.7425
   23DOPE  C314 2952   4.362   2.498   6.974  0.0761 -0.0814 -0.7194
   23DOPE  H14X 2953   4.259   2.497   6.932  0.4442 -1.4531 -1.6761
   23DOPE  H14Y 2954   4.431   2.468   6.892  2.6175  0.0580  1.2689
   23DOPE  C315 2955   4.388   2.644   7.000 -0.4828  0.2396  0.4398
   23DOPE  H15X 2956   4.484   2.654   7.054  1.1018  0.7076 -2.2853
   23DOPE  H15Y 2957   4.302   2.689   7.054  0.8425 -0.9906  3.8049
   23DOPE  C316 2958   4.402   2.714   6.866 -0.8690 -0.7980  0.3812
   23DOPE  H16X 2959   4.494   2.676   6.817 -1.2517  0.7321 -1.6654
   23DOPE  H16Y 2960   4.423   2.821   6.885 -2.3638 -0.0857 -1.6058
   23DOPE  C317 2961   4.285   2.713   6.767 -0.0669 -0.2682  0.2260
   23DOPE  H17X 2962   4.279   2.608   6.729  2.0089 -0.5213  0.4694
   23DOPE  H17Y 2963   4.192   2.732   6.825  1.4134  0.5258  2.4789
   23DOPE  C318 2964   4.309   2.797   6.640  0.0956 -0.0838  0.2504
   23DOPE  H18X 2965   4.400   2.757   6.589  0.4304  0.6892  0.2357
   23DOPE  H18Y 2966   4.219   2.784   6.576  0.9990  0.1542 -1.1062
   23DOPE  H18Z 2967   4.329   2.904   6.663 -1.9101  0.4843 -0.4358
   24DOPE     N 2968   6.269   6.619   8.379  0.4546  0.5196  0.1902
   24DOPE   HN1 2969   6.211   6.549   8.430 -1.9318 -1.6983 -4.8498
   24DOPE   HN2 2970   6.205   6.666   8.311  1.9044  0.3173 -1.3835
   24DOPE   HN3 2971   6.333   6.569   8.313 -0.0679  1.1266 -0.7905
   24DOPE   C12 2972   6.346   6.714   8.463 -0.3199  0.0785  0.2389
   24DOPE  H12A 2973   6.270   6.761   8.528 -1.3804 -0.6870 -0.4252
   24DOPE  H12B 2974   6.393   6.791   8.397  0.3984  0.1237  0.7876
   24DOPE   C11 2975   6.447   6.644   8.550  0.3031  0.7029  0.3333
   24DOPE  H11A 2976   6.401   6.553   8.595 -0.3266  0.2614 -1.1330
   24DOPE  H11B 2977   6.478   6.719   8.625 -2.7860  2.4840 -0.0490
   24DOPE     P 2978   6.688   6.534   8.534  0.1022 -0.1202 -0.2732
   24DOPE   O13 2979   6.697   6.389   8.501  0.1075 -0.5392  0.4326
   24DOPE   O14 2980   6.698   6.567   8.682  0.6012 -0.3186  0.0283
   24DOPE   O11 2981   6.793   6.617   8.452  0.3224 -0.0210  0.2345
   24DOPE   O12 2982   6.552   6.588   8.472  0.5823 -0.1794 -0.0696
   24DOPE    C1 2983   6.763   6.742   8.384 -0.2937 -0.4401 -0.4795
   24DOPE    HA 2984   6.844   6.818   8.383  0.4398 -1.2010 -1.5090
   24DOPE    HB 2985   6.685   6.797   8.441  1.5740  0.9489  0.8448
   24DOPE    C2 2986   6.704   6.725   8.241 -0.9636 -0.0186 -0.1660
   24DOPE    HS 2987   6.620   6.653   8.246 -2.0612  1.2511  0.4531
   24DOPE   O21 2988   6.806   6.675   8.159 -0.0407  0.3822 -0.1816
   24DOPE   C21 2989   6.787   6.579   8.072  0.6981  0.0913  0.0832
   24DOPE   O22 2990   6.678   6.524   8.064 -0.8772  0.1154  0.2975
   24DOPE   C22 2991   6.908   6.556   7.984  0.8677 -0.3761  1.3840
   24DOPE   H2R 2992   6.904   6.454   7.941  1.7781  0.0258  0.2988
   24DOPE   H2S 2993   7.003   6.558   8.042  1.1874  0.3680  0.8589
   24DOPE    C3 2994   6.666   6.866   8.191  0.5831  0.1172  0.2943
   24DOPE    HX 2995   6.759   6.920   8.163 -1.2313  1.4905 -3.8931
   24DOPE    HY 2996   6.607   6.925   8.264  0.7479  1.1587 -0.3947
   24DOPE   O31 2997   6.594   6.864   8.071  0.4085 -0.1962  0.3412
   24DOPE   C31 2998   6.476   6.804   8.074  0.6944 -0.1416 -0.4806
   24DOPE   O32 2999   6.418   6.764   8.174  0.0289 -0.4626 -0.5718
   24DOPE   C32 3000   6.422   6.787   7.937 -0.3770  0.6728 -0.1581
   24DOPE   H2X 3001   6.319   6.747   7.947 -0.1770  0.3696  0.8264
   24DOPE   H2Y 3002   6.412   6.889   7.894 -1.6065  0.7571  0.2861
   24DOPE   C23 3003   6.906   6.645   7.849  0.3802  0.1034 -0.8177
   24DOPE   H3R 3004   6.905   6.753   7.872 -0.6493 -0.0531 -0.0655
   24DOPE   H3S 3005   6.818   6.622   7.785  0.1570 -2.7614  0.3539
   24DOPE   C24 3006   7.039   6.644   7.767  0.0326 -0.2649  0.6480
   24DOPE   H4R 3007   7.050   6.535   7.752 -1.5060 -0.4493  0.6620
   24DOPE   H4S 3008   7.124   6.673   7.832  1.8697 -3.2830 -0.2027
   24DOPE   C25 3009   7.057   6.722   7.636 -0.3403 -0.9661  0.6302
   24DOPE   H5R 3010   7.157   6.715   7.588 -0.5251 -0.7766  0.2181
   24DOPE   H5S 3011   7.045   6.828   7.665  0.8051 -0.5951 -0.1731
   24DOPE   C26 3012   6.955   6.673   7.530 -0.0531  0.0435 -0.6881
   24DOPE   H6R 3013   6.849   6.685   7.560  0.0804 -0.4381  0.0182
   24DOPE   H6S 3014   6.986   6.569   7.506  1.1008 -0.3646  2.1513
   24DOPE   C27 3015   6.978   6.759   7.405  0.5874  0.1906  0.7267
   24DOPE   H7R 3016   7.085   6.746   7.378  0.7774 -1.3456  1.9883
   24DOPE   H7S 3017   6.962   6.864   7.437  1.1711 -0.3624  3.0272
   24DOPE   C28 3018   6.891   6.715   7.283  0.3501 -0.2716  0.0461
   24DOPE   H8R 3019   6.920   6.787   7.204  0.2302 -0.6711 -0.3700
   24DOPE   H8S 3020   6.783   6.724   7.309  0.5609 -0.7823  1.1701
   24DOPE   C29 3021   6.920   6.566   7.252  0.0848 -1.1862 -0.3976
   24DOPE   H9R 3022   6.883   6.491   7.323  0.2115 -1.3484 -0.5018
   24DOPE  C210 3023   6.995   6.526   7.145  0.4257 -0.5529 -0.2849
   24DOPE  H10R 3024   7.012   6.417   7.140  0.0742 -0.6040 -0.4057
   24DOPE  C211 3025   7.045   6.599   7.022 -0.4632 -0.1768  0.5815
   24DOPE  H11R 3026   7.154   6.616   7.030 -0.5003  0.8557 -0.6994
   24DOPE  H11S 3027   7.009   6.704   7.029 -2.5122 -0.5940 -2.0728
   24DOPE  C212 3028   7.006   6.535   6.885  0.5658 -0.8132  0.1013
   24DOPE  H12R 3029   6.909   6.585   6.862  0.7054 -1.0611 -1.1238
   24DOPE  H12S 3030   6.978   6.428   6.898 -1.5085 -0.7350 -2.7821
   24DOPE  C213 3031   7.097   6.558   6.760  0.0958 -0.2915 -0.5017
   24DOPE  H13R 3032   7.191   6.506   6.788  0.4158 -0.0773 -1.1702
   24DOPE  H13S 3033   7.120   6.666   6.750 -1.1744 -0.1419 -2.2139
   24DOPE  C214 3034   7.050   6.515   6.622  0.4060  0.2891  0.1694
   24DOPE  H14R 3035   6.944   6.544   6.606 -0.1431 -1.8361 -0.4997
   24DOPE  H14S 3036   7.047   6.404   6.624 -3.1205  0.2409  3.0221
   24DOPE  C215 3037   7.134   6.578   6.503  0.5808  0.5785  0.0352
   24DOPE  H15R 3038   7.238   6.547   6.526 -0.1257 -0.9960  1.3402
   24DOPE  H15S 3039   7.129   6.686   6.525  2.5827  0.3156  2.2050
   24DOPE  C216 3040   7.089   6.544   6.363  0.2062  0.0491 -0.6153
   24DOPE  H16R 3041   7.129   6.628   6.302 -1.4829  1.8457  0.6136
   24DOPE  H16S 3042   6.979   6.554   6.363  0.1255 -0.0572  2.2862
   24DOPE  C217 3043   7.133   6.402   6.329  0.4239  0.1711  0.5192
   24DOPE  H17R 3044   7.085   6.335   6.404  0.7297 -1.3405 -0.5963
   24DOPE  H17S 3045   7.241   6.404   6.357  0.7991 -1.3370 -0.7166
   24DOPE  C218 3046   7.102   6.342   6.189  1.0854  0.0518 -0.6736
   24DOPE  H18R 3047   6.994   6.320   6.174  0.5423  0.7669  1.8116
   24DOPE  H18S 3048   7.162   6.252   6.163 -0.3371 -1.2093  0.2437
   24DOPE  H18T 3049   7.138   6.417   6.115  0.4900  1.1889  0.1542
   24DOPE   C33 3050   6.502   6.689   7.846 -0.1378 -0.2329  0.5039
   24DOPE   H3X 3051   6.497   6.587   7.891 -1.3408  1.1741  3.9053
   24DOPE   H3Y 3052   6.609   6.718   7.844 -0.1052 -0.2800  1.3743
   24DOPE   C34 3053   6.459   6.703   7.699 -0.2456  0.0182 -0.5266
   24DOPE   H4X 3054   6.356   6.661   7.700 -0.4085  0.2326  2.6007
   24DOPE   H4Y 3055   6.461   6.812   7.677 -1.6071  0.5261  1.5405
   24DOPE   C35 3056   6.554   6.612   7.621  0.4785  0.1576 -0.2611
   24DOPE   H5X 3057   6.541   6.514   7.672  1.6581  1.1968  2.2283
   24DOPE   H5Y 3058   6.661   6.643   7.620  0.5474 -0.0938 -0.7285
   24DOPE   C36 3059   6.501   6.601   7.480 -0.1778  0.4800 -0.3331
   24DOPE   H6X 3060   6.514   6.690   7.415  1.9918 -0.4414 -1.2333
   24DOPE   H6Y 3061   6.394   6.574   7.467 -0.0353  0.6756 -2.1808
   24DOPE   C37 3062   6.568   6.483   7.404  0.4149 -0.2274 -0.0942
   24DOPE   H7X 3063   6.678   6.500   7.399  0.2923  0.4621 -0.4914
   24DOPE   H7Y 3064   6.552   6.390   7.464 -0.5222  0.6158  1.0123
   24DOPE   C38 3065   6.516   6.462   7.261 -0.5255  0.1170  0.3370
   24DOPE   H8X 3066   6.405   6.461   7.253 -0.4633 -1.7986 -1.0416
   24DOPE   H8Y 3067   6.534   6.358   7.229 -2.0211 -0.5871  1.6268
   24DOPE   C39 3068   6.588   6.553   7.162 -0.6199 -0.1512 -0.0142
   24DOPE   H9X 3069   6.621   6.653   7.194 -0.0583 -0.3592  0.0597
   24DOPE  C310 3070   6.635   6.514   7.040  0.3027 -0.3681 -0.1789
   24DOPE  H10X 3071   6.697   6.590   6.990  1.8007 -0.9086  0.7766
   24DOPE  C311 3072   6.618   6.385   6.961 -0.0357 -0.2327  0.1072
   24DOPE  H11X 3073   6.701   6.312   6.975 -1.5427 -2.4531 -1.8410
   24DOPE  H11Y 3074   6.522   6.339   6.992  0.8991 -2.7049 -0.4192
   24DOPE  C312 3075   6.607   6.416   6.806  0.4869 -0.3891 -0.2657
   24DOPE  H12X 3076   6.710   6.452   6.786  0.9536 -1.3909  0.2291
   24DOPE  H12Y 3077   6.520   6.483   6.795  0.3272 -0.1502  1.9431
   24DOPE  C313 3078   6.592   6.279   6.735 -0.0734 -0.2967  0.6202
   24DOPE  H13X 3079   6.656   6.201   6.781  0.9028  1.4675  2.3951
   24DOPE  H13Y 3080   6.489   6.238   6.728  0.4183 -1.2655 -3.8286
   24DOPE  C314 3081   6.642   6.291   6.592  0.1305  0.4944  0.3500
   24DOPE  H14X 3082   6.750   6.315   6.592  0.6557 -1.6174 -0.0999
   24DOPE  H14Y 3083   6.588   6.371   6.536  0.6618  0.6582  0.0692
   24DOPE  C315 3084   6.627   6.154   6.514  0.3078  0.1531 -0.4617
   24DOPE  H15X 3085   6.519   6.135   6.493  0.3287  0.7175 -1.1435
   24DOPE  H15Y 3086   6.665   6.083   6.590 -2.4916  0.0983  1.0087
   24DOPE  C316 3087   6.712   6.133   6.388 -0.2841 -0.3717  0.0932
   24DOPE  H16X 3088   6.679   6.215   6.320 -1.8208 -0.8314  0.2354
   24DOPE  H16Y 3089   6.698   6.033   6.342  2.1331 -1.5607  1.7391
   24DOPE  C317 3090   6.868   6.135   6.404  1.1685  0.0620 -0.5579
   24DOPE  H17X 3091   6.880   6.245   6.397 -4.0220  0.7561 -3.6957
   24DOPE  H17Y 3092   6.897   6.110   6.509 -1.6173  0.1758  0.3172
   24DOPE  C318 3093   6.948   6.049   6.304 -0.3303  0.4957  0.0398
   24DOPE  H18X 3094   6.933   5.939   6.314 -0.5188  0.1473 -3.1523
   24DOPE  H18Y 3095   6.929   6.093   6.204  2.4124  2.1522  0.1363
   24DOPE  H18Z 3096   7.055   6.071   6.325 -0.2257  0.0653 -0.0225
   25DOPE     N 3097   2.968   6.182   9.254 -0.3284 -0.2502 -0.5923
   25DOPE   HN1 3098   3.065   6.197   9.289 -0.8309  0.0621  0.7128
   25DOPE   HN2 3099   2.933   6.089   9.284  2.3047 -0.8022  1.1788
   25DOPE   HN3 3100   2.974   6.184   9.150 -0.9107  1.6616 -0.6219
   25DOPE   C12 3101   2.859   6.282   9.283 -0.5388 -0.6658 -0.0258
   25DOPE  H12A 3102   2.893   6.373   9.228  0.9441 -1.4678 -0.4754
   25DOPE  H12B 3103   2.857   6.312   9.390  0.1188 -2.9311  0.6633
   25DOPE   C11 3104   2.715   6.248   9.234  0.2946  0.2707 -0.2945
   25DOPE  H11A 3105   2.718   6.245   9.123  0.6179 -1.3206 -0.2645
   25DOPE  H11B 3106   2.648   6.328   9.272  0.1207 -0.5530  1.1785
   25DOPE     P 3107   2.579   6.081   9.396 -0.3204 -0.2077 -0.1756
   25DOPE   O13 3108   2.645   6.123   9.526  0.0565  0.1598 -0.3138
   25DOPE   O14 3109   2.540   5.936   9.387 -0.1395  0.1272 -0.0969
   25DOPE   O11 3110   2.459   6.174   9.371 -0.0551  0.3932 -0.2449
   25DOPE   O12 3111   2.685   6.113   9.274 -0.1382  0.3675 -0.0270
   25DOPE    C1 3112   2.346   6.117   9.296  0.0805  0.1787  0.5313
   25DOPE    HA 3113   2.264   6.191   9.294  2.2234  2.6813  0.4911
   25DOPE    HB 3114   2.310   6.028   9.352  0.5244  0.7517  1.7502
   25DOPE    C2 3115   2.386   6.072   9.148 -0.3052  0.2061 -0.8619
   25DOPE    HS 3116   2.457   5.986   9.152 -1.5546 -0.9399 -2.1298
   25DOPE   O21 3117   2.443   6.179   9.070 -0.9152  0.7769 -0.2446
   25DOPE   C21 3118   2.512   6.153   8.959 -0.1637  0.8474 -0.0615
   25DOPE   O22 3119   2.578   6.052   8.941  1.0513 -0.1545 -0.0092
   25DOPE   C22 3120   2.504   6.272   8.866 -0.6271  0.4221 -0.0350
   25DOPE   H2R 3121   2.548   6.363   8.912  1.7237 -0.3913 -0.5806
   25DOPE   H2S 3122   2.395   6.289   8.850 -1.3234 -3.0740  0.1814
   25DOPE    C3 3123   2.260   6.023   9.074 -0.6463  0.4223 -0.3940
   25DOPE    HX 3124   2.183   6.104   9.067  0.0715  1.0658 -1.1548
   25DOPE    HY 3125   2.215   5.943   9.136 -0.1954 -0.0045 -0.6112
   25DOPE   O31 3126   2.287   5.974   8.942 -0.5622 -0.0948 -0.1383
   25DOPE   C31 3127   2.333   5.851   8.930  0.1485 -0.5224  0.5822
   25DOPE   O32 3128   2.342   5.769   9.021 -0.0299 -0.2091 -0.1218
   25DOPE   C32 3129   2.356   5.830   8.785 -0.8658  0.1231 -0.5267
   25DOPE   H2X 3130   2.327   5.907   8.710  0.4180  1.6185  0.4547
   25DOPE   H2Y 3131   2.466   5.820   8.773 -0.7499 -0.8932  1.0550
   25DOPE   C23 3132   2.592   6.246   8.741  0.6095  0.4334  1.2118
   25DOPE   H3R 3133   2.696   6.212   8.765  0.8819  1.0179  0.8676
   25DOPE   H3S 3134   2.603   6.342   8.687 -1.1370  0.1527  0.3023
   25DOPE   C24 3135   2.507   6.165   8.647 -0.8328  0.2617 -0.2706
   25DOPE   H4R 3136   2.411   6.221   8.641  1.0601  4.0590  1.2753
   25DOPE   H4S 3137   2.474   6.066   8.683 -2.4087  0.6766 -0.5051
   25DOPE   C25 3138   2.565   6.153   8.505 -0.3830  0.0286  0.1257
   25DOPE   H5R 3139   2.657   6.091   8.508  0.1535  0.6791 -1.7910
   25DOPE   H5S 3140   2.598   6.254   8.470  1.7867 -0.1292  1.5002
   25DOPE   C26 3141   2.473   6.088   8.404  0.2621  0.0592 -0.2396
   25DOPE   H6R 3142   2.371   6.131   8.401  0.3367  0.2071 -1.4564
   25DOPE   H6S 3143   2.454   5.982   8.432 -3.6196  0.3881 -1.0796
   25DOPE   C27 3144   2.523   6.084   8.256  0.0432 -0.3359  0.1010
   25DOPE   H7R 3145   2.631   6.058   8.263  0.3635  0.7776 -0.4815
   25DOPE   H7S 3146   2.521   6.187   8.215  0.9333 -0.2909  0.1509
   25DOPE   C28 3147   2.455   5.985   8.154 -0.1370  0.5717 -0.3563
   25DOPE   H8R 3148   2.470   5.879   8.186 -0.2817 -0.0982 -2.3662
   25DOPE   H8S 3149   2.505   6.003   8.056  1.0751 -0.7675 -0.0200
   25DOPE   C29 3150   2.307   6.009   8.142 -0.2389 -0.2343 -0.4833
   25DOPE   H9R 3151   2.244   5.978   8.227 -0.8753  0.9098 -0.5221
   25DOPE  C210 3152   2.248   6.076   8.041 -0.1528  0.5382  0.3779
   25DOPE  H10R 3153   2.138   6.071   8.041 -0.1634 -0.2249 -1.9865
   25DOPE  C211 3154   2.316   6.142   7.917  0.2131  0.2790 -0.2530
   25DOPE  H11R 3155   2.411   6.191   7.944  0.9947 -1.0471 -0.4814
   25DOPE  H11S 3156   2.257   6.223   7.869 -0.2535  1.2054  1.7996
   25DOPE  C212 3157   2.348   6.047   7.801  0.6670 -0.0669 -0.5009
   25DOPE  H12R 3158   2.249   6.030   7.753  0.3394 -0.3588  0.2751
   25DOPE  H12S 3159   2.377   5.946   7.837  0.9037  0.7621  1.7712
   25DOPE  C213 3160   2.450   6.107   7.695 -0.2162 -0.6447  0.0170
   25DOPE  H13R 3161   2.552   6.102   7.741 -0.1440  0.0160 -0.0633
   25DOPE  H13S 3162   2.439   6.215   7.672  2.6184 -0.0785  0.9141
   25DOPE  C214 3163   2.456   6.025   7.559  0.4762 -0.1651 -0.0371
   25DOPE  H14R 3164   2.480   5.920   7.583  0.5648  0.1294  1.2543
   25DOPE  H14S 3165   2.541   6.060   7.498 -0.0905 -1.2667 -1.5236
   25DOPE  C215 3166   2.337   6.040   7.472  0.6451  0.4373  0.8037
   25DOPE  H15R 3167   2.320   6.149   7.462 -0.0674  0.2533 -0.1870
   25DOPE  H15S 3168   2.261   5.997   7.541  0.0300  1.9113  1.0974
   25DOPE  C216 3169   2.347   5.970   7.334 -0.0913  0.2531 -1.2479
   25DOPE  H16R 3170   2.249   5.953   7.286  0.4728 -1.4355 -1.8567
   25DOPE  H16S 3171   2.401   5.873   7.326  0.0832  0.3720 -1.5378
   25DOPE  C217 3172   2.421   6.059   7.234  0.1092 -0.3575  0.4854
   25DOPE  H17R 3173   2.517   6.102   7.271 -0.0187  0.6546 -0.3074
   25DOPE  H17S 3174   2.353   6.142   7.207  0.8082 -0.2770 -1.1613
   25DOPE  C218 3175   2.449   5.995   7.090  0.2256 -0.0749  0.2187
   25DOPE  H18R 3176   2.528   5.919   7.106  0.9953  0.4824 -0.7823
   25DOPE  H18S 3177   2.490   6.061   7.010 -0.3838 -1.1438 -1.0030
   25DOPE  H18T 3178   2.362   5.939   7.050  0.2426 -1.1521  1.6133
   25DOPE   C33 3179   2.275   5.706   8.746 -0.5352 -0.0936  0.4773
   25DOPE   H3X 3180   2.169   5.699   8.779 -1.7622 -0.6058 -3.1428
   25DOPE   H3Y 3181   2.325   5.618   8.791  0.5266 -0.4962 -1.3926
   25DOPE   C34 3182   2.255   5.676   8.598 -0.5272 -0.6512  0.7135
   25DOPE   H4X 3183   2.356   5.661   8.555 -0.6607  1.4724 -0.4678
   25DOPE   H4Y 3184   2.209   5.575   8.587  1.2095 -1.3491 -0.5430
   25DOPE   C35 3185   2.172   5.781   8.517 -0.5492  0.6320  0.2799
   25DOPE   H5X 3186   2.215   5.882   8.534  2.0674 -0.5489  1.2682
   25DOPE   H5Y 3187   2.068   5.786   8.557 -1.3069 -0.4090 -1.4555
   25DOPE   C36 3188   2.155   5.753   8.364  0.2672  0.2122 -0.1808
   25DOPE   H6X 3189   2.251   5.778   8.315 -0.1943 -0.0392 -1.2538
   25DOPE   H6Y 3190   2.073   5.819   8.326 -0.4517  0.6348  1.9609
   25DOPE   C37 3191   2.115   5.608   8.331  0.2829 -0.6689 -0.0475
   25DOPE   H7X 3192   2.214   5.558   8.344  0.2602 -0.3134  1.7696
   25DOPE   H7Y 3193   2.044   5.572   8.408 -0.5508 -1.0676 -0.9850
   25DOPE   C38 3194   2.055   5.595   8.191  0.0328  0.4620 -0.3625
   25DOPE   H8X 3195   1.980   5.674   8.173 -0.8644 -0.3988 -0.4928
   25DOPE   H8Y 3196   2.003   5.497   8.179 -1.7571  1.5174 -1.6503
   25DOPE   C39 3197   2.157   5.580   8.084  0.3664  0.0222 -0.4169
   25DOPE   H9X 3198   2.249   5.532   8.121  0.1830  1.9654  3.0326
   25DOPE  C310 3199   2.157   5.641   7.967  0.5134  0.0112 -0.4165
   25DOPE  H10X 3200   2.238   5.630   7.893  1.0540  2.9355 -0.3687
   25DOPE  C311 3201   2.052   5.732   7.906  0.2914 -0.0638  0.3866
   25DOPE  H11X 3202   1.960   5.738   7.968  0.7998  0.1985  1.1248
   25DOPE  H11Y 3203   2.093   5.834   7.893  1.5005 -0.5930 -0.0972
   25DOPE  C312 3204   1.995   5.677   7.766 -0.4977  0.0829 -0.0246
   25DOPE  H12X 3205   1.903   5.739   7.759  0.2406  1.3379  0.8714
   25DOPE  H12Y 3206   1.968   5.570   7.778 -2.1507  0.5270  0.6077
   25DOPE  C313 3207   2.089   5.708   7.651  0.6667 -0.1628 -0.0014
   25DOPE  H13X 3208   2.086   5.818   7.643  0.2111 -0.1695  0.0293
   25DOPE  H13Y 3209   2.193   5.668   7.659  1.2737  0.6882 -2.7348
   25DOPE  C314 3210   2.036   5.651   7.511  0.1875 -0.7881 -0.0623
   25DOPE  H14X 3211   1.942   5.704   7.482  0.5092  0.0234  0.3531
   25DOPE  H14Y 3212   2.014   5.543   7.523 -0.4275 -0.8826 -1.7658
   25DOPE  C315 3213   2.135   5.680   7.399  0.2034 -0.5575 -0.2226
   25DOPE  H15X 3214   2.215   5.604   7.405 -1.6990 -2.9029 -2.3643
   25DOPE  H15Y 3215   2.179   5.782   7.407  0.8508 -0.8113 -0.5409
   25DOPE  C316 3216   2.066   5.694   7.263  1.0719 -0.1413 -0.5591
   25DOPE  H16X 3217   2.006   5.786   7.279  0.4428 -0.6284 -0.0679
   25DOPE  H16Y 3218   1.988   5.620   7.237  0.9928  0.7705 -3.1565
   25DOPE  C317 3219   2.161   5.700   7.148  0.3602 -0.1493 -0.0114
   25DOPE  H17X 3220   2.230   5.781   7.182  0.1400 -1.0186  2.7880
   25DOPE  H17Y 3221   2.217   5.606   7.167 -1.6228 -1.3374  0.2452
   25DOPE  C318 3222   2.115   5.730   7.012 -0.6189 -0.4592 -0.1457
   25DOPE  H18X 3223   2.194   5.696   6.941  0.0148 -1.9709  1.2182
   25DOPE  H18Y 3224   2.025   5.668   6.992 -2.2685  1.4605  0.9456
   25DOPE  H18Z 3225   2.087   5.836   6.998  1.2260  0.1358  0.4141
   26DOPE     N 3226   0.851   0.405   8.470 -0.8477  0.2674  0.1256
   26DOPE   HN1 3227   0.873   0.353   8.558  2.8830 -0.4401 -1.0421
   26DOPE   HN2 3228   0.905   0.358   8.395 -0.9281  1.1463 -0.4936
   26DOPE   HN3 3229   0.877   0.505   8.483 -0.5753  0.1454  0.5256
   26DOPE   C12 3230   0.702   0.401   8.453  0.3066  0.0162 -0.3794
   26DOPE  H12A 3231   0.676   0.455   8.359 -0.6923  0.3593  0.0744
   26DOPE  H12B 3232   0.655   0.448   8.542  1.5837 -1.0729  0.9013
   26DOPE   C11 3233   0.656   0.249   8.449 -0.0735  0.2659  0.3108
   26DOPE  H11A 3234   0.698   0.198   8.360 -0.1296 -0.2568  0.5820
   26DOPE  H11B 3235   0.546   0.240   8.440  0.1232 -1.1438 -1.3030
   26DOPE     P 3236   0.698   0.043   8.606 -0.3288  0.1701 -0.0260
   26DOPE   O13 3237   0.565  -0.002   8.649 -0.9320 -0.2200  0.2588
   26DOPE   O14 3238   0.808   0.027   8.705  0.0503 -0.0653  0.1165
   26DOPE   O11 3239   0.734  -0.023   8.471 -0.1642 -0.1270 -0.7720
   26DOPE   O12 3240   0.692   0.197   8.576  0.0184  0.3428 -0.0573
   26DOPE    C1 3241   0.866  -0.038   8.411  0.4222  0.1201 -0.0008
   26DOPE    HA 3242   0.908  -0.138   8.434 -1.4864 -0.9548 -0.9866
   26DOPE    HB 3243   0.936   0.038   8.453  0.8952 -0.6984  0.7149
   26DOPE    C2 3244   0.876   0.001   8.254 -0.2154  0.0424 -0.6466
   26DOPE    HS 3245   0.874   0.112   8.263  2.6512  0.1881 -0.8212
   26DOPE   O21 3246   0.766  -0.070   8.196  0.1107  0.2467 -0.2872
   26DOPE   C21 3247   0.733  -0.014   8.082  0.3722  0.3898  0.1545
   26DOPE   O22 3248   0.752   0.101   8.049 -0.3085 -0.4710  0.0131
   26DOPE   C22 3249   0.646  -0.110   7.997 -0.1724  0.6823  0.3138
   26DOPE   H2R 3250   0.540  -0.077   7.999  0.3245  2.3644  0.5164
   26DOPE   H2S 3251   0.649  -0.203   8.058  0.0425 -1.0484 -2.1356
   26DOPE    C3 3252   1.014  -0.045   8.196 -0.1037  0.2746  0.0896
   26DOPE    HX 3253   1.043  -0.147   8.230 -0.0216  0.2844  0.0503
   26DOPE    HY 3254   1.098   0.021   8.227  0.6551 -0.1543 -1.0065
   26DOPE   O31 3255   1.021  -0.047   8.058 -0.1547  0.5042  0.7744
   26DOPE   C31 3256   1.050   0.072   7.999  0.5023 -0.2289 -0.1652
   26DOPE   O32 3257   1.063   0.177   8.066  0.4205  0.1249  0.9865
   26DOPE   C32 3258   1.056   0.062   7.850  0.9665 -0.0864 -0.2826
   26DOPE   H2X 3259   1.118  -0.027   7.825 -0.0207 -0.8320 -0.1423
   26DOPE   H2Y 3260   0.952   0.045   7.817  1.0286 -0.6616 -0.1882
   26DOPE   C23 3261   0.683  -0.141   7.849  0.2854 -0.1115  0.2203
   26DOPE   H3R 3262   0.631  -0.233   7.815  0.5194 -0.8571  1.8057
   26DOPE   H3S 3263   0.794  -0.146   7.847  0.3384  0.5735  0.8325
   26DOPE   C24 3264   0.653  -0.021   7.761  0.6614 -0.5361 -0.0433
   26DOPE   H4R 3265   0.692   0.075   7.802  0.5226 -0.7173  0.5118
   26DOPE   H4S 3266   0.546  -0.004   7.735  0.1927 -1.1957  1.3541
   26DOPE   C25 3267   0.719  -0.040   7.622  0.5049  0.7257  0.7506
   26DOPE   H5R 3268   0.695  -0.141   7.584  2.0700 -0.1669  2.0004
   26DOPE   H5S 3269   0.830  -0.041   7.635  0.8085 -2.6862 -1.1671
   26DOPE   C26 3270   0.682   0.066   7.517  0.8864 -0.6317 -0.1684
   26DOPE   H6R 3271   0.693   0.159   7.578 -1.0080 -0.5527  0.1103
   26DOPE   H6S 3272   0.574   0.067   7.489  0.7436  0.0180  0.3570
   26DOPE   C27 3273   0.768   0.072   7.389 -0.9274  0.1477  0.4486
   26DOPE   H7R 3274   0.878   0.071   7.406 -0.4364  1.6810 -2.1042
   26DOPE   H7S 3275   0.752   0.174   7.349  0.4111  0.4051  0.5016
   26DOPE   C28 3276   0.745  -0.046   7.296 -0.7388 -0.5749  0.6498
   26DOPE   H8R 3277   0.724  -0.141   7.349 -1.8384  0.4107  2.0463
   26DOPE   H8S 3278   0.834  -0.074   7.235 -0.2362 -0.2604  1.2207
   26DOPE   C29 3279   0.627  -0.031   7.205 -0.0843 -0.1110 -0.6019
   26DOPE   H9R 3280   0.533  -0.055   7.257 -0.5635  2.2156 -0.2555
   26DOPE  C210 3281   0.626  -0.018   7.072  0.5045 -0.6076 -0.6358
   26DOPE  H10R 3282   0.535   0.000   7.014  1.9231 -0.0460 -2.7750
   26DOPE  C211 3283   0.750  -0.007   6.985  0.3080 -0.2085 -0.3223
   26DOPE  H11R 3284   0.819  -0.092   7.006 -1.7482 -1.6966  0.6754
   26DOPE  H11S 3285   0.812   0.084   7.004 -0.8062  0.2340  1.4515
   26DOPE  C212 3286   0.714  -0.011   6.838  0.0697  0.8531 -0.3966
   26DOPE  H12R 3287   0.643   0.065   6.799  0.4855  1.5012  0.1016
   26DOPE  H12S 3288   0.670  -0.112   6.821  0.2866  0.7685 -0.4502
   26DOPE  C213 3289   0.838  -0.015   6.749 -0.0934  0.9375  0.7947
   26DOPE  H13R 3290   0.899  -0.100   6.786  1.0386  1.8597  1.0927
   26DOPE  H13S 3291   0.898   0.076   6.767  0.4319  0.8325 -0.3407
   26DOPE  C214 3292   0.814  -0.051   6.600  0.1010  0.1114  0.7491
   26DOPE  H14R 3293   0.779  -0.155   6.591 -0.0527  0.2651 -0.6506
   26DOPE  H14S 3294   0.913  -0.054   6.549  1.0949  3.2485  2.1688
   26DOPE  C215 3295   0.737   0.058   6.529 -0.6049 -0.0296 -0.1046
   26DOPE  H15R 3296   0.775   0.157   6.560 -0.7926  0.4696 -1.3979
   26DOPE  H15S 3297   0.630   0.053   6.559 -0.4476 -0.2447  0.4301
   26DOPE  C216 3298   0.745   0.041   6.374 -0.4717 -0.1540  0.1931
   26DOPE  H16R 3299   0.852   0.050   6.344 -0.7735  1.3862 -0.5138
   26DOPE  H16S 3300   0.692   0.136   6.350  2.1004  1.8391  1.7655
   26DOPE  C217 3301   0.674  -0.083   6.321  0.1945 -0.0119 -0.0212
   26DOPE  H17R 3302   0.569  -0.079   6.356 -0.6186 -0.9835 -2.2140
   26DOPE  H17S 3303   0.713  -0.180   6.360  0.2889 -0.5386 -1.3929
   26DOPE  C218 3304   0.672  -0.094   6.176 -0.1794 -0.7921  0.0618
   26DOPE  H18R 3305   0.604  -0.177   6.148 -1.8773  1.1655 -1.9501
   26DOPE  H18S 3306   0.778  -0.112   6.147  0.3389 -2.4038  2.6294
   26DOPE  H18T 3307   0.634  -0.000   6.130 -0.6750 -1.2024 -0.3819
   26DOPE   C33 3308   1.124   0.186   7.796 -0.3355  0.1143  0.1466
   26DOPE   H3X 3309   1.212   0.224   7.852  1.9681 -0.5019 -2.8384
   26DOPE   H3Y 3310   1.053   0.272   7.803 -0.6238 -0.1965  1.3643
   26DOPE   C34 3311   1.172   0.167   7.656 -0.3235  0.4959  0.0326
   26DOPE   H4X 3312   1.241   0.081   7.644 -0.7272 -0.1241  1.8733
   26DOPE   H4Y 3313   1.085   0.142   7.591 -0.2037 -0.3254  0.1739
   26DOPE   C35 3314   1.225   0.286   7.583 -0.1288 -0.1377 -0.1157
   26DOPE   H5X 3315   1.305   0.332   7.644  1.7362  0.0725 -2.5564
   26DOPE   H5Y 3316   1.148   0.365   7.575 -0.9481 -0.7170  1.5942
   26DOPE   C36 3317   1.284   0.246   7.445 -0.6171  0.1981 -0.1630
   26DOPE   H6X 3318   1.367   0.173   7.450 -0.4961  0.4356  2.1562
   26DOPE   H6Y 3319   1.327   0.338   7.398  1.8490 -0.0558  1.4375
   26DOPE   C37 3320   1.171   0.210   7.349 -0.8520 -0.0502 -0.4643
   26DOPE   H7X 3321   1.129   0.110   7.374 -0.9805  0.5484  2.0254
   26DOPE   H7Y 3322   1.089   0.285   7.359  0.5056  1.4506 -0.1068
   26DOPE   C38 3323   1.229   0.222   7.210  0.3985  0.5614  0.6531
   26DOPE   H8X 3324   1.314   0.153   7.189 -1.9088 -2.7423  1.5304
   26DOPE   H8Y 3325   1.276   0.323   7.202  4.2353 -1.0709  0.4547
   26DOPE   C39 3326   1.123   0.199   7.106  0.0278  0.2380 -0.2982
   26DOPE   H9X 3327   1.036   0.141   7.140  0.7996  0.5665  2.4796
   26DOPE  C310 3328   1.128   0.226   6.976  0.5723 -0.3832  0.0815
   26DOPE  H10X 3329   1.033   0.217   6.921  0.5193  1.8446 -0.2810
   26DOPE  C311 3330   1.235   0.303   6.897 -0.3318 -0.1301 -0.8217
   26DOPE  H11X 3331   1.300   0.364   6.962 -1.3705  1.1042 -0.9036
   26DOPE  H11Y 3332   1.306   0.236   6.843 -0.8655  0.9876 -3.0272
   26DOPE  C312 3333   1.177   0.396   6.789 -0.3830  0.2968  0.2640
   26DOPE  H12X 3334   1.262   0.457   6.751 -1.1311  0.7414 -0.7496
   26DOPE  H12Y 3335   1.116   0.470   6.845  0.2204  0.8497  0.2135
   26DOPE  C313 3336   1.103   0.333   6.669 -0.2814  0.4710 -0.1275
   26DOPE  H13X 3337   1.018   0.270   6.704  1.6051 -1.6164  0.9483
   26DOPE  H13Y 3338   1.056   0.417   6.613 -2.2998 -0.0290  0.7043
   26DOPE  C314 3339   1.194   0.246   6.584 -0.1337 -0.9447  0.2222
   26DOPE  H14X 3340   1.211   0.147   6.632  0.7375 -0.8539  0.1176
   26DOPE  H14Y 3341   1.292   0.297   6.572  0.0160 -0.8817  1.5745
   26DOPE  C315 3342   1.145   0.214   6.443 -0.2565  0.1186 -0.2353
   26DOPE  H15X 3343   1.053   0.153   6.434 -1.2400  1.7009 -1.7292
   26DOPE  H15Y 3344   1.227   0.164   6.388 -1.0835 -1.1320 -0.3777
   26DOPE  C316 3345   1.130   0.338   6.355  0.1678 -0.8176  0.0962
   26DOPE  H16X 3346   1.228   0.381   6.328 -0.0209  1.1510  2.2093
   26DOPE  H16Y 3347   1.065   0.416   6.401 -1.2479 -1.6290 -0.4518
   26DOPE  C317 3348   1.047   0.312   6.230  0.3360 -0.1948 -0.7883
   26DOPE  H17X 3349   1.096   0.223   6.185  0.5721 -1.1956  1.3247
   26DOPE  H17Y 3350   0.947   0.266   6.244  0.4974 -0.2598  0.2597
   26DOPE  C318 3351   1.033   0.431   6.139 -0.0528 -0.2597  0.0951
   26DOPE  H18X 3352   0.999   0.517   6.200 -1.5926  0.7531 -2.0782
   26DOPE  H18Y 3353   1.138   0.447   6.106 -0.4306 -0.0803 -1.0747
   26DOPE  H18Z 3354   0.973   0.408   6.049 -2.7029  0.6798  1.5360
   27DOPE     N 3355   6.549   0.949   8.034  0.6644 -0.0168 -0.4593
   27DOPE   HN1 3356   6.466   0.888   8.046 -0.8315  1.7917 -1.0418
   27DOPE   HN2 3357   6.636   0.893   8.044  0.6731  0.2989  1.6014
   27DOPE   HN3 3358   6.546   1.014   8.116  0.7665  3.2573 -2.8451
   27DOPE   C12 3359   6.503   1.025   7.914 -0.0185  0.4658 -0.5942
   27DOPE  H12A 3360   6.515   0.956   7.827  0.9783 -0.3450  0.1619
   27DOPE  H12B 3361   6.569   1.115   7.911 -0.5859  0.9586  0.7778
   27DOPE   C11 3362   6.358   1.067   7.934  0.6252 -0.5422 -0.5689
   27DOPE  H11A 3363   6.319   1.121   7.845 -0.4518 -1.6698 -0.8208
   27DOPE  H11B 3364   6.353   1.130   8.025 -0.7356 -1.4497  0.0163
   27DOPE     P 3365   6.116   0.965   7.991  0.2255  0.3720 -0.1615
   27DOPE   O13 3366   6.095   1.048   8.121 -0.2565 -0.6923 -0.1340
   27DOPE   O14 3367   6.057   0.833   7.999 -0.5122 -0.6584  0.2743
   27DOPE   O11 3368   6.050   1.045   7.872 -0.1211 -0.6234  0.1107
   27DOPE   O12 3369   6.269   0.950   7.958 -0.2546  0.1715  0.1139
   27DOPE    C1 3370   5.992   0.969   7.762  0.2898 -0.0887 -0.2681
   27DOPE    HA 3371   5.887   0.947   7.789  0.7463  1.1432  2.9404
   27DOPE    HB 3372   6.042   0.870   7.759  1.2480  0.3374  0.9330
   27DOPE    C2 3373   6.007   1.036   7.620 -0.1564  0.3319 -0.3980
   27DOPE    HS 3374   5.949   0.977   7.546 -1.3701  0.6518  0.2707
   27DOPE   O21 3375   6.150   1.046   7.597 -0.0401  0.0256  0.6374
   27DOPE   C21 3376   6.192   0.932   7.541  0.2708  0.9435  1.0294
   27DOPE   O22 3377   6.127   0.832   7.511  0.3668  0.1641  0.1632
   27DOPE   C22 3378   6.345   0.948   7.517  0.4458  0.3506  0.8027
   27DOPE   H2R 3379   6.394   0.904   7.606  1.8120  0.7775  0.2942
   27DOPE   H2S 3380   6.369   1.056   7.507  0.6522  0.3514  1.3164
   27DOPE    C3 3381   5.948   1.181   7.620  0.1589  0.7325  0.2438
   27DOPE    HX 3382   5.989   1.230   7.711 -0.8373 -2.6813  2.7133
   27DOPE    HY 3383   5.843   1.153   7.638  1.6711 -6.7632  0.6425
   27DOPE   O31 3384   5.966   1.253   7.498  0.1038  0.1553  0.2857
   27DOPE   C31 3385   5.887   1.357   7.493  0.5357 -0.6443  0.0792
   27DOPE   O32 3386   5.803   1.387   7.571 -0.2653 -0.1235 -0.1831
   27DOPE   C32 3387   5.938   1.449   7.381 -0.3339 -0.1183 -0.4152
   27DOPE   H2X 3388   6.008   1.516   7.436 -1.2234 -0.5176  1.2869
   27DOPE   H2Y 3389   5.997   1.385   7.312 -0.1184 -0.1863 -0.1730
   27DOPE   C23 3390   6.391   0.892   7.382 -0.2579 -0.0415 -0.0994
   27DOPE   H3R 3391   6.373   0.783   7.371  0.6760  0.0245 -3.1856
   27DOPE   H3S 3392   6.500   0.904   7.364 -0.4229 -0.9494 -1.9310
   27DOPE   C24 3393   6.327   0.967   7.268  0.4792 -0.3881 -0.2226
   27DOPE   H4R 3394   6.330   1.076   7.288  1.3012 -0.5081  0.3331
   27DOPE   H4S 3395   6.220   0.949   7.246  0.1974  0.3020  0.5585
   27DOPE   C25 3396   6.407   0.946   7.140 -0.4154 -0.4817 -0.2504
   27DOPE   H5R 3397   6.412   0.838   7.113  2.7644  0.0162 -2.1924
   27DOPE   H5S 3398   6.511   0.982   7.157 -0.5472 -0.7148  1.1421
   27DOPE   C26 3399   6.354   1.027   7.023 -0.7805  0.0810 -0.0439
   27DOPE   H6R 3400   6.334   1.130   7.057  0.7057  0.5541 -0.5463
   27DOPE   H6S 3401   6.262   0.974   6.989  1.0401 -2.9320 -0.6280
   27DOPE   C27 3402   6.455   1.050   6.908  0.6821  0.4606 -0.0529
   27DOPE   H7R 3403   6.507   0.952   6.908  0.7071  0.4710  0.4880
   27DOPE   H7S 3404   6.535   1.120   6.939  0.2166  0.5020  1.1035
   27DOPE   C28 3405   6.395   1.085   6.768  0.0429  0.1839 -0.9246
   27DOPE   H8R 3406   6.488   1.093   6.708 -0.2817 -0.0304 -1.4700
   27DOPE   H8S 3407   6.366   1.191   6.781  0.3134  0.1860 -0.3372
   27DOPE   C29 3408   6.284   0.993   6.714  0.4833  0.3512 -0.4619
   27DOPE   H9R 3409   6.191   0.989   6.772 -0.2837 -1.1890 -1.7225
   27DOPE  C210 3410   6.289   0.932   6.590  0.3246  0.1550  0.2673
   27DOPE  H10R 3411   6.212   0.857   6.568  1.3247 -0.6720 -0.5187
   27DOPE  C211 3412   6.395   0.941   6.480  0.0495  0.6385 -0.6383
   27DOPE  H11R 3413   6.454   0.847   6.478  0.3630  0.8046  0.2202
   27DOPE  H11S 3414   6.474   1.017   6.500  3.1573 -2.1193 -1.4618
   27DOPE  C212 3415   6.330   0.958   6.340 -0.1203  0.1846 -0.0674
   27DOPE  H12R 3416   6.259   0.876   6.313  2.8078 -1.6336 -3.0265
   27DOPE  H12S 3417   6.408   0.935   6.264 -2.3682 -0.3720 -2.3388
   27DOPE  C213 3418   6.273   1.092   6.306  0.1160 -0.2985  0.4044
   27DOPE  H13R 3419   6.355   1.165   6.323  0.4738 -0.4619 -0.5773
   27DOPE  H13S 3420   6.187   1.122   6.369  0.9544 -0.0684  1.4661
   27DOPE  C214 3421   6.237   1.104   6.150  0.1453 -0.6859  1.0973
   27DOPE  H14R 3422   6.200   1.208   6.137  1.2430 -0.1905  1.8116
   27DOPE  H14S 3423   6.152   1.037   6.122 -0.5559  0.3420  0.6999
   27DOPE  C215 3424   6.351   1.078   6.047 -0.7499 -0.7358 -0.1398
   27DOPE  H15R 3425   6.395   0.977   6.053  3.1516  0.8517  2.8914
   27DOPE  H15S 3426   6.442   1.135   6.075 -1.4033  0.1338  0.2858
   27DOPE  C216 3427   6.309   1.117   5.913  0.3820 -0.2351 -0.6950
   27DOPE  H16R 3428   6.291   1.227   5.909 -0.0356 -0.1530  1.6576
   27DOPE  H16S 3429   6.221   1.061   5.875  1.0928 -1.7813 -0.1673
   27DOPE  C217 3430   6.424   1.100   5.809  0.0020 -0.2882  1.1627
   27DOPE  H17R 3431   6.462   0.996   5.808  1.2405  0.1507  0.6827
   27DOPE  H17S 3432   6.517   1.156   5.834  0.2200 -1.1929  2.4909
   27DOPE  C218 3433   6.378   1.123   5.666 -0.0662  0.0534  0.0561
   27DOPE  H18R 3434   6.276   1.079   5.663  0.0146 -0.3125  1.7054
   27DOPE  H18S 3435   6.436   1.064   5.592  0.9181  1.0791 -0.0272
   27DOPE  H18T 3436   6.383   1.232   5.645  2.2409  0.0077  0.0409
   27DOPE   C33 3437   5.840   1.547   7.317 -0.6581 -0.2440 -0.1174
   27DOPE   H3X 3438   5.814   1.623   7.395  0.2640 -0.5633  0.5208
   27DOPE   H3Y 3439   5.750   1.486   7.297 -0.1008 -0.9970 -0.3995
   27DOPE   C34 3440   5.898   1.592   7.183 -0.2539  0.3084 -0.2570
   27DOPE   H4X 3441   5.998   1.634   7.204 -0.1527  0.0730 -0.2652
   27DOPE   H4Y 3442   5.920   1.499   7.126  0.7075  0.8680 -0.8130
   27DOPE   C35 3443   5.815   1.694   7.100  0.1173 -0.5607 -0.1013
   27DOPE   H5X 3444   5.803   1.785   7.163  0.4863 -0.8076  0.3384
   27DOPE   H5Y 3445   5.713   1.653   7.092 -0.6406  1.1645  0.2557
   27DOPE   C36 3446   5.880   1.735   6.965  0.2516 -0.5485  0.3705
   27DOPE   H6X 3447   5.800   1.757   6.891  2.4749  2.4369 -1.3858
   27DOPE   H6Y 3448   5.942   1.658   6.914  0.4200  0.8997 -1.7264
   27DOPE   C37 3449   5.960   1.867   6.965 -0.1236  0.4678  0.0228
   27DOPE   H7X 3450   5.908   1.945   7.025 -1.0617  1.1353 -1.5758
   27DOPE   H7Y 3451   6.056   1.853   7.020  0.2917  1.9152 -0.2793
   27DOPE   C38 3452   5.985   1.923   6.821 -0.4412  0.1974 -0.0735
   27DOPE   H8X 3453   6.029   2.024   6.834 -0.6139  0.1829  0.6546
   27DOPE   H8Y 3454   5.883   1.941   6.781 -1.1219 -0.4108  1.3194
   27DOPE   C39 3455   6.083   1.842   6.738  0.4082  0.1076 -0.3752
   27DOPE   H9X 3456   6.149   1.774   6.794 -2.1593 -3.6742 -1.4953
   27DOPE  C310 3457   6.089   1.849   6.603  0.1609  0.7715 -0.0880
   27DOPE  H10X 3458   6.156   1.779   6.550  0.3261  1.1455 -0.3743
   27DOPE  C311 3459   6.006   1.934   6.510  0.9900  0.2700  0.5283
   27DOPE  H11X 3460   5.980   1.873   6.421  2.0529  0.5566  0.0087
   27DOPE  H11Y 3461   5.908   1.972   6.548 -0.1215 -0.4105 -1.4678
   27DOPE  C312 3462   6.083   2.055   6.446  1.0478 -0.6286 -0.7417
   27DOPE  H12X 3463   6.179   2.023   6.400  1.0886 -1.2472 -0.2386
   27DOPE  H12Y 3464   6.102   2.115   6.537 -3.5238 -1.6455  1.1485
   27DOPE  C313 3465   5.993   2.134   6.351 -0.0647  0.4525  0.1094
   27DOPE  H13X 3466   5.941   2.060   6.286 -1.7974  2.9032 -1.4449
   27DOPE  H13Y 3467   5.914   2.178   6.415  2.0347 -0.7102  3.8016
   27DOPE  C314 3468   6.066   2.225   6.249 -0.1484  0.5811  0.0262
   27DOPE  H14X 3469   6.121   2.172   6.168  0.0904 -0.0243  0.5692
   27DOPE  H14Y 3470   6.146   2.284   6.300 -2.5110  1.5857  2.8616
   27DOPE  C315 3471   5.973   2.323   6.191 -0.2107  0.2559 -0.5638
   27DOPE  H15X 3472   5.911   2.370   6.271 -0.2689  0.1210 -0.5298
   27DOPE  H15Y 3473   5.898   2.275   6.125 -0.2463 -0.0076 -0.3328
   27DOPE  C316 3474   6.041   2.426   6.106  0.1579  0.1639  0.5191
   27DOPE  H16X 3475   6.097   2.378   6.023 -2.1034  1.8665 -2.1966
   27DOPE  H16Y 3476   6.118   2.479   6.166 -1.4041  1.3012  1.6012
   27DOPE  C317 3477   5.951   2.531   6.028  0.3977 -0.5941  0.5176
   27DOPE  H17X 3478   5.901   2.579   6.114  0.4767 -0.7878  0.6735
   27DOPE  H17Y 3479   6.014   2.610   5.984 -0.4942  0.1668  0.5808
   27DOPE  C318 3480   5.846   2.482   5.921  1.3171  0.2288  0.4322
   27DOPE  H18X 3481   5.773   2.560   5.891  0.4840 -0.1481  1.4258
   27DOPE  H18Y 3482   5.887   2.447   5.824  0.2742  2.4523 -0.8830
   27DOPE  H18Z 3483   5.796   2.392   5.964  2.1384 -0.4377  0.0233
   28DOPE     N 3484   5.994   0.729   8.289  0.4964 -0.2455 -0.1621
   28DOPE   HN1 3485   6.046   0.746   8.200 -1.4520 -0.5109 -1.4289
   28DOPE   HN2 3486   5.969   0.629   8.278  2.8943 -1.2842  2.7134
   28DOPE   HN3 3487   5.906   0.785   8.279 -1.8911 -3.3039  1.9032
   28DOPE   C12 3488   6.079   0.756   8.405 -0.2638  0.3077  0.4497
   28DOPE  H12A 3489   6.031   0.713   8.495  0.1556  2.1708  1.6180
   28DOPE  H12B 3490   6.093   0.864   8.429  0.8769  0.5598 -1.2140
   28DOPE   C11 3491   6.215   0.686   8.397  0.6059 -0.3268 -0.7950
   28DOPE  H11A 3492   6.201   0.576   8.391 -1.5991 -0.0441 -2.0789
   28DOPE  H11B 3493   6.268   0.709   8.492 -1.0296  1.4794 -0.2497
   28DOPE     P 3494   6.430   0.698   8.256 -0.0288  0.1151 -0.0276
   28DOPE   O13 3495   6.469   0.569   8.305 -0.6305  0.1492  0.0394
   28DOPE   O14 3496   6.509   0.810   8.310  0.1690  0.1122 -0.0534
   28DOPE   O11 3497   6.430   0.692   8.100 -0.0377 -0.6585 -0.1691
   28DOPE   O12 3498   6.280   0.730   8.283 -0.7011 -0.1615  0.2133
   28DOPE    C1 3499   6.342   0.607   8.035  0.1781  0.3464 -0.4793
   28DOPE    HA 3500   6.240   0.649   8.019  0.0471 -0.1057 -0.8780
   28DOPE    HB 3501   6.326   0.506   8.077  1.5224  0.0490 -0.6426
   28DOPE    C2 3502   6.394   0.581   7.890 -0.1560  0.1851  0.2313
   28DOPE    HS 3503   6.348   0.488   7.853 -0.8869  0.8928 -0.6992
   28DOPE   O21 3504   6.539   0.559   7.886  0.0684 -0.2563 -0.1399
   28DOPE   C21 3505   6.580   0.441   7.927  0.3510  0.1703 -0.2965
   28DOPE   O22 3506   6.507   0.353   7.969 -0.5441 -0.7718  0.0509
   28DOPE   C22 3507   6.723   0.421   7.879 -0.0879  0.4338  0.4540
   28DOPE   H2R 3508   6.791   0.463   7.956  0.4819  1.1292 -0.4109
   28DOPE   H2S 3509   6.736   0.492   7.794  1.2562  0.6135  0.7830
   28DOPE    C3 3510   6.355   0.685   7.787 -0.0994 -0.5646  0.3308
   28DOPE    HX 3511   6.408   0.781   7.808  1.1469 -1.0403 -0.5307
   28DOPE    HY 3512   6.250   0.720   7.783  0.3464  0.7137 -1.4757
   28DOPE   O31 3513   6.393   0.641   7.654  0.4716  0.0029  0.5178
   28DOPE   C31 3514   6.307   0.562   7.588  0.0249 -0.5578  0.2758
   28DOPE   O32 3515   6.197   0.529   7.627 -0.2517 -0.4954  0.7214
   28DOPE   C32 3516   6.376   0.516   7.460 -0.5441  0.6633 -0.5489
   28DOPE   H2X 3517   6.432   0.598   7.409  1.4473 -0.8665 -0.9483
   28DOPE   H2Y 3518   6.456   0.443   7.484 -0.1264  1.1765 -0.3629
   28DOPE   C23 3519   6.749   0.270   7.847  0.5118 -0.3969  0.2086
   28DOPE   H3R 3520   6.745   0.214   7.943 -0.8693  0.9397  0.9680
   28DOPE   H3S 3521   6.858   0.263   7.824  0.8222  1.7754  0.8086
   28DOPE   C24 3522   6.677   0.208   7.729 -0.2422  0.8168 -0.3397
   28DOPE   H4R 3523   6.572   0.180   7.752  0.6493 -2.3729  0.2837
   28DOPE   H4S 3524   6.712   0.103   7.721 -0.1369  0.1550  4.9900
   28DOPE   C25 3525   6.691   0.291   7.596 -0.4496  0.4950 -0.1774
   28DOPE   H5R 3526   6.801   0.287   7.578 -0.4688 -0.1538 -0.1706
   28DOPE   H5S 3527   6.652   0.394   7.610 -2.2558  0.3678 -3.2700
   28DOPE   C26 3528   6.650   0.225   7.464 -1.0714 -0.4948  0.1880
   28DOPE   H6R 3529   6.541   0.230   7.444 -1.1106  0.3649  0.5775
   28DOPE   H6S 3530   6.684   0.119   7.462  2.1784  0.4303 -2.0854
   28DOPE   C27 3531   6.719   0.290   7.343 -0.4467  0.8303  0.4974
   28DOPE   H7R 3532   6.830   0.291   7.341 -0.3960 -1.0559  0.9491
   28DOPE   H7S 3533   6.694   0.398   7.337 -0.0811  0.9204  0.5450
   28DOPE   C28 3534   6.679   0.225   7.216  0.5495 -0.6279 -0.3182
   28DOPE   H8R 3535   6.569   0.212   7.223  0.3847  0.5817 -0.4700
   28DOPE   H8S 3536   6.712   0.121   7.193 -0.3298 -0.6507 -1.5392
   28DOPE   C29 3537   6.695   0.313   7.096 -0.0445  0.3404  0.1391
   28DOPE   H9R 3538   6.707   0.420   7.119  1.1018  0.2435  0.0619
   28DOPE  C210 3539   6.712   0.266   6.980  0.5709  0.4964  0.1074
   28DOPE  H10R 3540   6.724   0.334   6.894 -1.7866 -0.6345 -1.2092
   28DOPE  C211 3541   6.709   0.126   6.926 -0.3414  0.1197  0.1873
   28DOPE  H11R 3542   6.681   0.039   6.988 -1.4318 -1.1430 -1.9479
   28DOPE  H11S 3543   6.805   0.091   6.881 -0.0314 -0.1406  1.0326
   28DOPE  C212 3544   6.599   0.117   6.818 -0.2546 -0.5244  0.3139
   28DOPE  H12R 3545   6.624   0.181   6.731 -0.5831  1.1849  1.4302
   28DOPE  H12S 3546   6.504   0.164   6.853  0.5843  1.6972 -0.2512
   28DOPE  C213 3547   6.584  -0.024   6.771  0.1347  0.5189  0.7014
   28DOPE  H13R 3548   6.557  -0.095   6.853 -2.3050 -0.4205 -0.7766
   28DOPE  H13S 3549   6.684  -0.049   6.729  0.6384  2.3311  0.7753
   28DOPE  C214 3550   6.468  -0.055   6.676 -0.3063 -0.1188 -0.2800
   28DOPE  H14R 3551   6.368  -0.028   6.715  0.0282  1.2636 -0.3130
   28DOPE  H14S 3552   6.466  -0.160   6.641  2.5437 -0.2493 -0.2752
   28DOPE  C215 3553   6.490   0.032   6.546  0.2185  0.3169 -0.1263
   28DOPE  H15R 3554   6.599   0.030   6.522 -0.1396 -3.7605 -2.3363
   28DOPE  H15S 3555   6.449   0.130   6.578 -2.5108  0.5978 -3.8164
   28DOPE  C216 3556   6.424  -0.023   6.419  0.0143 -0.1200  0.0932
   28DOPE  H16R 3557   6.316  -0.046   6.431  0.2413 -0.6218  1.2662
   28DOPE  H16S 3558   6.482  -0.114   6.395  0.3918  0.0168  0.4696
   28DOPE  C217 3559   6.424   0.074   6.296  0.1599 -0.9812  0.9827
   28DOPE  H17R 3560   6.380   0.170   6.328 -1.1336 -0.3331 -2.3438
   28DOPE  H17S 3561   6.354   0.039   6.218  0.5750 -1.3509  0.7676
   28DOPE  C218 3562   6.563   0.111   6.231 -0.7724 -0.3403  0.8095
   28DOPE  H18R 3563   6.651   0.127   6.297 -0.7778  0.7126  0.5816
   28DOPE  H18S 3564   6.556   0.196   6.159  1.6234 -0.4771  0.3095
   28DOPE  H18T 3565   6.596   0.033   6.159  0.4005  1.0704 -0.2696
   28DOPE   C33 3566   6.285   0.429   7.365 -0.1820  0.1566 -0.4580
   28DOPE   H3X 3567   6.209   0.369   7.419 -1.0725 -1.6182 -3.4717
   28DOPE   H3Y 3568   6.351   0.364   7.304  1.7242  2.1084 -0.5984
   28DOPE   C34 3569   6.213   0.519   7.264 -0.0541  0.5769 -0.3302
   28DOPE   H4X 3570   6.138   0.465   7.202  1.9795 -0.8914 -1.6286
   28DOPE   H4Y 3571   6.159   0.598   7.320  0.1587  1.7370 -1.7037
   28DOPE   C35 3572   6.302   0.584   7.159 -0.4975  0.0534 -0.3602
   28DOPE   H5X 3573   6.399   0.629   7.190 -1.2058  1.3014  0.1362
   28DOPE   H5Y 3574   6.246   0.671   7.119 -0.0345  0.7454  0.4578
   28DOPE   C36 3575   6.333   0.489   7.044  0.0431 -0.2421  0.3714
   28DOPE   H6X 3576   6.248   0.438   6.993  1.3646 -2.8778  0.6758
   28DOPE   H6Y 3577   6.416   0.420   7.069 -0.1242 -0.9202 -0.8288
   28DOPE   C37 3578   6.396   0.568   6.915 -0.1169  0.3169  0.1292
   28DOPE   H7X 3579   6.356   0.670   6.931  1.0040  0.7929 -0.0100
   28DOPE   H7Y 3580   6.506   0.566   6.929 -0.0640 -1.8402 -0.2504
   28DOPE   C38 3581   6.348   0.522   6.782  0.1901  0.6469  0.1626
   28DOPE   H8X 3582   6.238   0.532   6.776  0.3762  2.8992 -0.5970
   28DOPE   H8Y 3583   6.370   0.415   6.762 -0.0240  0.5385  0.5027
   28DOPE   C39 3584   6.411   0.612   6.678  0.0703  0.1398 -0.0407
   28DOPE   H9X 3585   6.375   0.716   6.678  0.7140  0.4037 -1.9758
   28DOPE  C310 3586   6.467   0.568   6.564  0.4138 -0.7868  0.3079
   28DOPE  H10X 3587   6.500   0.648   6.495  2.3816 -0.6484  1.3155
   28DOPE  C311 3588   6.497   0.434   6.513 -0.2614 -0.3128 -0.3998
   28DOPE  H11X 3589   6.481   0.363   6.597 -0.7658  0.6116  0.3045
   28DOPE  H11Y 3590   6.450   0.413   6.415  0.0392  3.7355 -1.5798
   28DOPE  C312 3591   6.646   0.405   6.475 -0.1178  0.9668 -0.1205
   28DOPE  H12X 3592   6.660   0.295   6.466 -1.1177  0.7627  0.6218
   28DOPE  H12Y 3593   6.719   0.430   6.555  1.8079 -1.0521 -1.1232
   28DOPE  C313 3594   6.685   0.480   6.347  0.2841  0.3012  0.7116
   28DOPE  H13X 3595   6.598   0.497   6.280  2.9766  0.1613 -3.1829
   28DOPE  H13Y 3596   6.717   0.583   6.375  1.6485 -0.1204  0.8152
   28DOPE  C314 3597   6.802   0.434   6.259 -0.5840 -0.6630 -0.6740
   28DOPE  H14X 3598   6.770   0.337   6.216 -0.0648 -0.4474 -1.5795
   28DOPE  H14Y 3599   6.893   0.415   6.321 -0.2848  0.2334 -0.8232
   28DOPE  C315 3600   6.843   0.528   6.145 -0.3786  0.3459  0.1652
   28DOPE  H15X 3601   6.881   0.621   6.193 -0.6075 -0.5878  2.2854
   28DOPE  H15Y 3602   6.760   0.554   6.077 -0.0398 -0.9695 -0.8001
   28DOPE  C316 3603   6.953   0.466   6.051 -0.0357 -0.2508 -0.2278
   28DOPE  H16X 3604   7.032   0.421   6.115  0.4159  0.2588 -0.4205
   28DOPE  H16Y 3605   7.005   0.544   5.992  0.9832 -1.6074 -1.1855
   28DOPE  C317 3606   6.904   0.360   5.953 -0.3259  0.0611  0.4177
   28DOPE  H17X 3607   6.875   0.269   6.009 -1.2889  0.6244  0.8628
   28DOPE  H17Y 3608   6.810   0.383   5.900 -1.7832 -2.8431  1.5660
   28DOPE  C318 3609   7.011   0.320   5.844 -0.7029 -0.4691 -0.1569
   28DOPE  H18X 3610   6.987   0.371   5.748  1.3716 -0.7385 -0.8541
   28DOPE  H18Y 3611   7.112   0.338   5.884 -0.4953 -1.2546 -0.3083
   28DOPE  H18Z 3612   7.001   0.210   5.830 -1.7531 -0.4391  0.2541
   29DOPE     N 3613   0.734   2.329   7.842  0.1749  0.4054 -0.6221
   29DOPE   HN1 3614   0.811   2.305   7.908 -0.7934  0.8706  0.7304
   29DOPE   HN2 3615   0.741   2.258   7.767  1.3455 -1.0270  0.7694
   29DOPE   HN3 3616   0.763   2.416   7.793  1.0611  0.6652  0.3279
   29DOPE   C12 3617   0.613   2.339   7.930 -0.1478  0.4907 -0.2155
   29DOPE  H12A 3618   0.550   2.427   7.904 -0.8174  0.1445  0.2053
   29DOPE  H12B 3619   0.654   2.352   8.033  3.1454 -0.1976 -1.3027
   29DOPE   C11 3620   0.547   2.199   7.927  0.0734  0.6710  1.2104
   29DOPE  H11A 3621   0.503   2.190   7.825  1.0390  2.8676  0.5539
   29DOPE  H11B 3622   0.459   2.196   7.995 -1.5837 -0.8203 -0.8027
   29DOPE     P 3623   0.581   1.940   7.930 -0.1965  0.0708  0.0689
   29DOPE   O13 3624   0.655   1.860   8.031 -0.5867 -0.5188  0.4655
   29DOPE   O14 3625   0.606   1.917   7.790  0.3847 -0.4237  0.2093
   29DOPE   O11 3626   0.424   1.939   7.959 -0.6244 -0.0148  0.6826
   29DOPE   O12 3627   0.631   2.087   7.953  0.4029 -0.1731 -0.2883
   29DOPE    C1 3628   0.337   1.879   7.869 -0.0051  0.4944  0.2148
   29DOPE    HA 3629   0.254   1.832   7.925  0.2892  1.9358  1.9523
   29DOPE    HB 3630   0.395   1.796   7.822 -0.0617 -0.6541  2.0514
   29DOPE    C2 3631   0.278   1.964   7.754 -0.0798 -0.0334  0.1393
   29DOPE    HS 3632   0.368   2.006   7.704 -0.6677  0.5126 -0.4759
   29DOPE   O21 3633   0.185   2.052   7.816  0.3619 -0.3438 -0.4855
   29DOPE   C21 3634   0.202   2.182   7.797  1.0636  1.1714 -0.4597
   29DOPE   O22 3635   0.284   2.234   7.725 -0.1356  0.2850 -0.2312
   29DOPE   C22 3636   0.106   2.270   7.878 -0.3562 -0.1333 -0.7149
   29DOPE   H2R 3637   0.140   2.376   7.880  0.1403 -0.2724 -1.6055
   29DOPE   H2S 3638   0.118   2.229   7.981  0.6215 -1.3247 -1.2857
   29DOPE    C3 3639   0.199   1.870   7.654 -0.2037 -0.3336 -0.0804
   29DOPE    HX 3640   0.107   1.854   7.713  1.4253 -1.9642  2.2079
   29DOPE    HY 3641   0.249   1.773   7.632  0.7445  0.5778 -2.2641
   29DOPE   O31 3642   0.169   1.934   7.530 -0.1718  0.3590  0.1605
   29DOPE   C31 3643   0.269   1.957   7.440 -0.6122 -0.0432 -0.7776
   29DOPE   O32 3644   0.388   1.954   7.466 -0.0379  0.3046  0.2798
   29DOPE   C32 3645   0.213   1.987   7.303  0.4990 -0.3153  0.4465
   29DOPE   H2X 3646   0.168   1.890   7.272  0.0371  0.2040 -0.5752
   29DOPE   H2Y 3647   0.132   2.063   7.310 -0.1061 -1.0436  1.6964
   29DOPE   C23 3648  -0.046   2.254   7.844 -0.2614 -0.8258  0.0614
   29DOPE   H3R 3649  -0.094   2.338   7.898  0.4538 -1.0044  0.9975
   29DOPE   H3S 3650  -0.100   2.173   7.899 -2.0492 -1.4749 -2.4432
   29DOPE   C24 3651  -0.070   2.235   7.691 -0.1549  0.0739  0.1570
   29DOPE   H4R 3652  -0.180   2.221   7.684 -0.4415 -0.1980  3.7049
   29DOPE   H4S 3653  -0.032   2.138   7.651 -1.9307 -0.6373  0.1054
   29DOPE   C25 3654  -0.013   2.342   7.597 -0.1502 -0.1025 -0.3780
   29DOPE   H5R 3655   0.086   2.381   7.629  0.7739 -2.7773  0.2680
   29DOPE   H5S 3656  -0.076   2.431   7.615  1.3334  0.9061  0.0436
   29DOPE   C26 3657  -0.022   2.306   7.449  0.5111  0.3534 -0.7199
   29DOPE   H6R 3658  -0.119   2.254   7.433 -0.0275  0.8104  0.9026
   29DOPE   H6S 3659   0.066   2.243   7.424  0.4469  1.2430 -3.5669
   29DOPE   C27 3660  -0.010   2.431   7.354 -0.1727 -0.1746 -0.4322
   29DOPE   H7R 3661   0.089   2.480   7.364 -0.5675  0.1132  3.6336
   29DOPE   H7S 3662  -0.093   2.498   7.385 -1.0966 -0.1062 -2.8682
   29DOPE   C28 3663  -0.026   2.407   7.205 -0.3374 -0.2939  0.1243
   29DOPE   H8R 3664   0.058   2.343   7.170 -1.6832 -1.4534 -1.1938
   29DOPE   H8S 3665  -0.026   2.509   7.161  1.2410 -0.4652 -0.3107
   29DOPE   C29 3666  -0.150   2.333   7.165 -0.1108  0.2820  0.2649
   29DOPE   H9R 3667  -0.233   2.337   7.238  0.7337  0.3759  1.2394
   29DOPE  C210 3668  -0.165   2.261   7.055  0.4756  0.2432  0.1953
   29DOPE  H10R 3669  -0.262   2.215   7.033  0.7579 -0.2199 -0.1222
   29DOPE  C211 3670  -0.070   2.253   6.937  0.6914 -0.3382  0.1546
   29DOPE  H11R 3671  -0.057   2.142   6.943 -1.3365 -0.6444 -0.1928
   29DOPE  H11S 3672   0.027   2.305   6.944  0.4341 -0.0658  2.2576
   29DOPE  C212 3673  -0.136   2.280   6.802  0.1158  0.1620  0.3324
   29DOPE  H12R 3674  -0.146   2.390   6.801  2.2865  0.3846 -0.6057
   29DOPE  H12S 3675  -0.239   2.237   6.802  1.0193 -2.1511 -0.1265
   29DOPE  C213 3676  -0.053   2.233   6.682 -0.4912 -0.2757  0.3500
   29DOPE  H13R 3677  -0.119   2.247   6.594 -1.2580 -0.6325  0.8597
   29DOPE  H13S 3678  -0.034   2.125   6.699  0.6103 -0.2660 -0.6785
   29DOPE  C214 3679   0.082   2.301   6.662 -0.3468 -0.4877  0.6559
   29DOPE  H14R 3680   0.138   2.294   6.758  0.4650  1.5242  0.3833
   29DOPE  H14S 3681   0.067   2.404   6.621 -0.4574 -1.3281 -1.5305
   29DOPE  C215 3682   0.177   2.254   6.550 -0.2028  0.2475 -0.1484
   29DOPE  H15R 3683   0.189   2.143   6.549  3.1345  0.5001  0.5875
   29DOPE  H15S 3684   0.283   2.282   6.569  0.3954 -1.0770 -1.3278
   29DOPE  C216 3685   0.142   2.317   6.409 -0.3033  0.2308 -0.0656
   29DOPE  H16R 3686   0.163   2.427   6.411  0.2395  0.1229  1.0905
   29DOPE  H16S 3687   0.036   2.295   6.384 -0.1300 -1.0669  0.2753
   29DOPE  C217 3688   0.230   2.250   6.297 -0.1397  0.3469 -0.2282
   29DOPE  H17R 3689   0.201   2.143   6.309  0.8526  0.1966  1.0000
   29DOPE  H17S 3690   0.339   2.252   6.315 -0.3390 -1.7925  1.6436
   29DOPE  C218 3691   0.193   2.323   6.168 -0.2131  0.4318 -0.1115
   29DOPE  H18R 3692   0.218   2.431   6.168 -0.2100  0.4311  0.3756
   29DOPE  H18S 3693   0.084   2.326   6.147 -0.2006  1.4864 -0.0484
   29DOPE  H18T 3694   0.236   2.273   6.078  1.9128  3.6605 -1.0409
   29DOPE   C33 3695   0.315   2.032   7.196 -0.4580  0.1620 -0.1768
   29DOPE   H3X 3696   0.392   1.955   7.179  2.4445  2.5084  1.3319
   29DOPE   H3Y 3697   0.371   2.120   7.235  0.1203 -0.7322  1.1008
   29DOPE   C34 3698   0.249   2.061   7.060  0.3769  1.0291 -0.1271
   29DOPE   H4X 3699   0.225   1.962   7.016 -1.3214  1.0514  0.6635
   29DOPE   H4Y 3700   0.149   2.107   7.077 -1.0842 -1.5020 -1.3502
   29DOPE   C35 3701   0.318   2.141   6.949 -0.1033 -0.0817  0.1589
   29DOPE   H5X 3702   0.329   2.247   6.979 -0.7427 -0.4349  1.7321
   29DOPE   H5Y 3703   0.253   2.144   6.859 -0.1027 -0.8391  0.1278
   29DOPE   C36 3704   0.460   2.085   6.907  0.8076  0.0353  0.3900
   29DOPE   H6X 3705   0.450   1.983   6.863 -1.3308 -0.4175  1.7703
   29DOPE   H6Y 3706   0.530   2.078   6.993 -0.7481  2.5306  1.9894
   29DOPE   C37 3707   0.515   2.179   6.794 -0.1587 -0.2309 -0.1716
   29DOPE   H7X 3708   0.469   2.156   6.695 -2.4108  2.2610  0.1585
   29DOPE   H7Y 3709   0.487   2.283   6.820 -2.2798 -0.5231 -1.0468
   29DOPE   C38 3710   0.664   2.177   6.789 -0.0106 -0.6596 -0.7589
   29DOPE   H8X 3711   0.704   2.075   6.769  2.9544  0.2173  0.1577
   29DOPE   H8Y 3712   0.705   2.198   6.890  1.1096 -1.4214 -1.0318
   29DOPE   C39 3713   0.716   2.275   6.685 -0.0540 -0.1331 -0.0080
   29DOPE   H9X 3714   0.756   2.367   6.730 -1.5320  0.4714  0.1265
   29DOPE  C310 3715   0.734   2.253   6.554 -0.1301  0.3770  0.4041
   29DOPE  H10X 3716   0.786   2.325   6.490  1.4516  0.5951  1.8626
   29DOPE  C311 3717   0.694   2.125   6.486 -0.0807 -0.6321 -0.2698
   29DOPE  H11X 3718   0.630   2.056   6.545  0.7826 -2.6985 -1.6159
   29DOPE  H11Y 3719   0.626   2.155   6.403 -0.3150  3.2907  1.1536
   29DOPE  C312 3720   0.809   2.038   6.428 -0.5890 -0.1666 -0.2152
   29DOPE  H12X 3721   0.826   2.058   6.320  2.6419  0.2237  0.2675
   29DOPE  H12Y 3722   0.776   1.933   6.443  0.3759 -0.1494  2.5804
   29DOPE  C313 3723   0.953   2.056   6.497  0.2242 -0.2565 -0.5121
   29DOPE  H13X 3724   0.985   2.161   6.481 -1.7699  0.6158  0.8084
   29DOPE  H13Y 3725   0.942   2.040   6.607 -0.1501 -0.0225 -0.5130
   29DOPE  C314 3726   1.066   1.972   6.443 -0.7579  0.4116  0.4892
   29DOPE  H14X 3727   1.064   1.868   6.482  0.6655  0.3389  0.4055
   29DOPE  H14Y 3728   1.160   2.019   6.479 -1.8236  1.6186  1.8148
   29DOPE  C315 3729   1.072   1.967   6.284 -0.1668  0.1932  0.3193
   29DOPE  H15X 3730   0.980   1.924   6.239  0.0373  0.7092 -0.6282
   29DOPE  H15Y 3731   1.155   1.909   6.238 -0.9183  0.3253 -1.2860
   29DOPE  C316 3732   1.095   2.095   6.217  0.9103 -0.2950 -0.0964
   29DOPE  H16X 3733   1.182   2.145   6.265  0.9819 -0.8472  0.3518
   29DOPE  H16Y 3734   1.005   2.160   6.222 -0.5913 -2.1842 -1.2363
   29DOPE  C317 3735   1.122   2.082   6.067  0.3775 -0.2906 -0.8700
   29DOPE  H17X 3736   1.204   2.013   6.040  0.7920 -0.0683 -0.1970
   29DOPE  H17Y 3737   1.027   2.036   6.031  0.6082 -1.7912  0.3572
   29DOPE  C318 3738   1.149   2.212   6.003  0.0641  0.1850  0.2341
   29DOPE  H18X 3739   1.158   2.196   5.894  0.4070  1.3288  0.0735
   29DOPE  H18Y 3740   1.067   2.286   6.017  0.1735  0.5039 -0.7666
   29DOPE  H18Z 3741   1.245   2.246   6.048  0.0672 -2.1746  2.2425
   30DOPE     N 3742   0.441   6.653   8.433 -0.2399  0.1730  0.2806
   30DOPE   HN1 3743   0.485   6.565   8.401  0.4557  0.5672  0.1348
   30DOPE   HN2 3744   0.435   6.723   8.357  0.8039  1.1287  1.0504
   30DOPE   HN3 3745   0.497   6.688   8.513  0.7844 -0.0638 -0.3184
   30DOPE   C12 3746   0.295   6.639   8.478 -0.2756  0.3793 -0.2055
   30DOPE  H12A 3747   0.238   6.589   8.397 -1.9341 -1.3358  1.8861
   30DOPE  H12B 3748   0.249   6.736   8.508 -0.7207  0.4820 -1.1925
   30DOPE   C11 3749   0.283   6.538   8.592  0.0781  0.6956 -0.3426
   30DOPE  H11A 3750   0.174   6.538   8.614 -0.1822  0.6881 -1.5674
   30DOPE  H11B 3751   0.337   6.569   8.684 -0.7096  0.2966  0.2688
   30DOPE     P 3752   0.451   6.332   8.593  0.1344  0.1733 -0.5962
   30DOPE   O13 3753   0.447   6.205   8.522 -0.6741 -0.1345  0.2407
   30DOPE   O14 3754   0.454   6.319   8.743 -0.1247 -0.5053  0.4007
   30DOPE   O11 3755   0.574   6.422   8.543  0.5910 -0.3118 -0.4734
   30DOPE   O12 3756   0.324   6.408   8.546  0.4097  0.1608  0.6560
   30DOPE    C1 3757   0.696   6.367   8.491  0.7789 -0.2990  0.5732
   30DOPE    HA 3758   0.709   6.259   8.514  2.9399 -0.5911 -1.6361
   30DOPE    HB 3759   0.786   6.416   8.533  1.9107 -0.1857 -1.8250
   30DOPE    C2 3760   0.715   6.391   8.341 -0.1946  0.5901 -0.0603
   30DOPE    HS 3761   0.698   6.498   8.316  0.5340  0.5328 -0.8287
   30DOPE   O21 3762   0.626   6.303   8.272 -0.4899  0.2515 -0.9610
   30DOPE   C21 3763   0.516   6.363   8.228 -0.0440  0.0299  0.8398
   30DOPE   O22 3764   0.487   6.483   8.236 -0.6564 -0.1511 -0.2685
   30DOPE   C22 3765   0.438   6.256   8.158 -0.1365  0.2447 -0.2771
   30DOPE   H2R 3766   0.338   6.247   8.205 -0.2940 -1.0869 -0.8253
   30DOPE   H2S 3767   0.492   6.161   8.179  0.6912  0.8486  0.4103
   30DOPE    C3 3768   0.861   6.364   8.293  0.5362 -0.4640  0.1770
   30DOPE    HX 3769   0.887   6.258   8.313  3.2854 -0.1600 -1.3101
   30DOPE    HY 3770   0.925   6.443   8.338 -0.1388 -0.7013  1.6032
   30DOPE   O31 3771   0.855   6.379   8.152  0.0904 -0.4686 -0.2089
   30DOPE   C31 3772   0.974   6.381   8.085  0.5617 -0.7457 -1.0179
   30DOPE   O32 3773   1.083   6.375   8.142 -0.1282 -0.1124 -0.1030
   30DOPE   C32 3774   0.951   6.405   7.942 -0.9190  0.6304  0.3738
   30DOPE   H2X 3775   0.901   6.313   7.902  0.0113 -0.9502  2.6377
   30DOPE   H2Y 3776   0.882   6.491   7.928 -0.1296  1.1954 -0.0463
   30DOPE   C23 3777   0.412   6.278   8.006 -0.7814 -0.2554 -0.2000
   30DOPE   H3R 3778   0.384   6.384   7.989  3.3902  0.8196 -1.4311
   30DOPE   H3S 3779   0.341   6.202   7.967  0.7374 -2.1887  0.6535
   30DOPE   C24 3780   0.539   6.279   7.907  0.1525 -0.0955  0.0791
   30DOPE   H4R 3781   0.566   6.171   7.898 -1.7888 -0.5075 -1.6845
   30DOPE   H4S 3782   0.621   6.337   7.954  2.3454 -3.5562  0.8856
   30DOPE   C25 3783   0.521   6.313   7.757  0.2136  0.4084 -0.9339
   30DOPE   H5R 3784   0.621   6.310   7.709  1.3962 -2.1058  1.3963
   30DOPE   H5S 3785   0.497   6.421   7.748 -0.6053  0.2867 -0.3177
   30DOPE   C26 3786   0.421   6.237   7.667 -0.6839  0.1034 -1.1166
   30DOPE   H6R 3787   0.336   6.215   7.735  0.5252 -0.9154  0.1268
   30DOPE   H6S 3788   0.462   6.136   7.650 -2.0896 -1.0587  1.8006
   30DOPE   C27 3789   0.391   6.305   7.536  0.0034 -0.0730 -0.2329
   30DOPE   H7R 3790   0.307   6.377   7.547  0.8842  1.2606 -1.7261
   30DOPE   H7S 3791   0.354   6.219   7.476  1.6661 -3.0767  2.7363
   30DOPE   C28 3792   0.499   6.389   7.463  0.1599 -0.1434  0.3651
   30DOPE   H8R 3793   0.588   6.323   7.457 -0.2115 -0.6092 -0.0792
   30DOPE   H8S 3794   0.531   6.472   7.529  2.8207 -0.3940 -0.5003
   30DOPE   C29 3795   0.456   6.437   7.327  0.1108 -0.0523 -0.2505
   30DOPE   H9R 3796   0.368   6.503   7.326 -1.1086 -1.6309  0.0192
   30DOPE  C210 3797   0.474   6.357   7.219 -0.8317  0.2719 -0.1226
   30DOPE  H10R 3798   0.458   6.405   7.121  0.5106  0.2752 -0.3514
   30DOPE  C211 3799   0.541   6.222   7.200 -0.3194 -0.2605 -0.1006
   30DOPE  H11R 3800   0.492   6.154   7.127  1.9795 -0.9261 -1.1282
   30DOPE  H11S 3801   0.541   6.164   7.295 -2.2570 -0.7336 -0.3478
   30DOPE  C212 3802   0.691   6.253   7.167 -0.5842 -0.2724 -0.0962
   30DOPE  H12R 3803   0.749   6.161   7.193 -0.2855 -0.0964 -0.1405
   30DOPE  H12S 3804   0.733   6.329   7.236 -1.9338 -0.9924  1.6083
   30DOPE  C213 3805   0.706   6.279   7.012  0.5996  0.6410 -0.3383
   30DOPE  H13R 3806   0.696   6.388   6.992  0.5407  0.6521 -0.2479
   30DOPE  H13S 3807   0.635   6.223   6.947 -0.9596 -1.6751  3.0778
   30DOPE  C214 3808   0.857   6.236   6.985  0.6685  0.4942  0.1709
   30DOPE  H14R 3809   0.866   6.127   6.972 -0.7590  0.2981  0.6038
   30DOPE  H14S 3810   0.913   6.257   7.079  0.1005 -1.5400  1.0045
   30DOPE  C215 3811   0.936   6.304   6.875  0.2431  0.2101 -0.7267
   30DOPE  H15R 3812   1.044   6.284   6.893  0.8192  1.8900 -2.0800
   30DOPE  H15S 3813   0.936   6.415   6.880  3.9907  0.3681 -1.4500
   30DOPE  C216 3814   0.907   6.250   6.735 -0.0169 -0.8576 -0.1298
   30DOPE  H16R 3815   0.802   6.268   6.703  0.3411 -2.8814 -2.7428
   30DOPE  H16S 3816   0.924   6.141   6.731 -0.5165 -0.9913  0.9570
   30DOPE  C217 3817   0.992   6.311   6.627  0.1516 -0.1744  0.2271
   30DOPE  H17R 3818   1.100   6.284   6.632  0.3232  0.4883  0.1964
   30DOPE  H17S 3819   1.011   6.419   6.647  0.7416 -0.5093  1.6773
   30DOPE  C218 3820   0.941   6.269   6.489  0.4449  0.1180  0.2028
   30DOPE  H18R 3821   0.941   6.158   6.482 -1.1349  0.2069 -3.2297
   30DOPE  H18S 3822   1.000   6.306   6.401  0.9026  2.0739  1.2645
   30DOPE  H18T 3823   0.835   6.301   6.479  0.7195  1.0506  0.1131
   30DOPE   C33 3824   1.081   6.434   7.870  0.3004 -0.6341  0.1540
   30DOPE   H3X 3825   1.141   6.341   7.870  0.4771 -0.6153  2.8143
   30DOPE   H3Y 3826   1.141   6.509   7.927  1.9715 -1.0862 -0.9386
   30DOPE   C34 3827   1.054   6.490   7.727 -0.0682  0.1289  0.2371
   30DOPE   H4X 3828   1.025   6.399   7.670  1.8951 -0.1951 -0.3280
   30DOPE   H4Y 3829   0.977   6.569   7.733  2.5082  2.7860  1.2462
   30DOPE   C35 3830   1.181   6.548   7.653 -0.2658  0.9014 -0.0287
   30DOPE   H5X 3831   1.258   6.468   7.652 -0.3646  0.8074 -0.5689
   30DOPE   H5Y 3832   1.234   6.615   7.723  0.8479 -1.4461  1.4852
   30DOPE   C36 3833   1.166   6.614   7.514 -0.4178  0.0234  0.0165
   30DOPE   H6X 3834   1.236   6.698   7.492  0.9143 -1.4678 -1.7377
   30DOPE   H6Y 3835   1.063   6.656   7.507 -0.3460 -0.0070 -1.5655
   30DOPE   C37 3836   1.193   6.506   7.402 -0.5466  0.4929 -0.1722
   30DOPE   H7X 3837   1.302   6.488   7.400 -0.5315  0.5607 -0.0193
   30DOPE   H7Y 3838   1.167   6.407   7.446  1.9859 -0.9080 -1.6210
   30DOPE   C38 3839   1.120   6.534   7.274  0.2740 -0.4424  0.2462
   30DOPE   H8X 3840   1.016   6.552   7.309  1.2159  1.9789  2.1830
   30DOPE   H8Y 3841   1.110   6.449   7.204  0.4329 -0.5367  0.3359
   30DOPE   C39 3842   1.170   6.654   7.204 -0.2482 -0.7877  0.0075
   30DOPE   H9X 3843   1.155   6.750   7.256  0.9195 -1.9105  2.5677
   30DOPE  C310 3844   1.221   6.664   7.079 -0.6796  0.1332 -0.3931
   30DOPE  H10X 3845   1.263   6.759   7.042  1.6525 -1.2160 -1.4382
   30DOPE  C311 3846   1.247   6.551   6.984  0.5963  0.6838  0.0829
   30DOPE  H11X 3847   1.268   6.459   7.042 -1.1677  0.2744  0.1280
   30DOPE  H11Y 3848   1.148   6.515   6.947  0.3732  1.4617 -0.1109
   30DOPE  C312 3849   1.348   6.570   6.869  0.8855 -0.5392 -0.4212
   30DOPE  H12X 3850   1.377   6.467   6.839  1.3395 -0.9560  1.3571
   30DOPE  H12Y 3851   1.440   6.621   6.904 -0.3954  1.0436  0.8088
   30DOPE  C313 3852   1.279   6.643   6.757  0.3278 -0.5526 -0.0533
   30DOPE  H13X 3853   1.173   6.612   6.769  0.8467 -1.7929  1.6697
   30DOPE  H13Y 3854   1.273   6.754   6.759  1.2507 -0.4628 -1.0784
   30DOPE  C314 3855   1.337   6.603   6.617  0.0717  0.3595  0.2607
   30DOPE  H14X 3856   1.332   6.492   6.613 -1.0929  0.4229 -0.7945
   30DOPE  H14Y 3857   1.445   6.626   6.616  0.1707 -0.0707  0.8294
   30DOPE  C315 3858   1.273   6.660   6.489  0.2200  0.1397  0.2986
   30DOPE  H15X 3859   1.304   6.767   6.490 -0.7209  0.4209  1.5330
   30DOPE  H15Y 3860   1.163   6.662   6.498  0.0558 -0.1233 -1.3299
   30DOPE  C316 3861   1.296   6.587   6.358 -0.3383 -0.1907  0.1213
   30DOPE  H16X 3862   1.269   6.479   6.361 -1.5560  0.0873 -0.2231
   30DOPE  H16Y 3863   1.406   6.586   6.343 -0.5099 -0.6842 -1.1817
   30DOPE  C317 3864   1.212   6.643   6.243  0.5857  0.0944 -0.4434
   30DOPE  H17X 3865   1.221   6.754   6.238 -0.3180  0.2422  0.6644
   30DOPE  H17Y 3866   1.250   6.606   6.145 -1.4246  0.4648 -1.4266
   30DOPE  C318 3867   1.072   6.589   6.260 -0.0286 -0.0460  0.4298
   30DOPE  H18X 3868   1.026   6.602   6.361 -0.8022 -1.1939  0.2460
   30DOPE  H18Y 3869   1.010   6.647   6.188  2.0062  2.2022  0.3591
   30DOPE  H18Z 3870   1.075   6.482   6.233 -0.9945  0.1479 -0.5543
   31DOPE     N 3871   3.115   3.738   4.250  0.0701  0.2503  0.3292
   31DOPE   HN1 3872   3.161   3.779   4.334 -3.1427  0.7843  1.9930
   31DOPE   HN2 3873   3.106   3.637   4.272  1.9274 -0.4684 -1.8249
   31DOPE   HN3 3874   3.185   3.750   4.174  2.6992  0.3387  2.6051
   31DOPE   C12 3875   2.986   3.810   4.207  0.1164 -0.8301 -0.1669
   31DOPE  H12A 3876   2.935   3.854   4.296 -1.9146 -0.1408 -1.5906
   31DOPE  H12B 3877   2.917   3.730   4.171 -2.0748 -0.3775  2.6246
   31DOPE   C11 3878   3.011   3.920   4.109 -1.0983 -0.1350  0.3382
   31DOPE  H11A 3879   2.924   3.969   4.062 -0.8206  0.3531  0.3275
   31DOPE  H11B 3880   3.050   3.888   4.010 -0.7094  0.5924  0.2524
   31DOPE     P 3881   3.081   4.147   4.221 -0.2662 -0.0184  0.3731
   31DOPE   O13 3882   2.991   4.125   4.339  0.2070  0.2287 -0.2913
   31DOPE   O14 3883   3.031   4.241   4.124  0.2268 -0.7375 -0.3501
   31DOPE   O11 3884   3.224   4.194   4.257 -0.0878  0.3149  0.1135
   31DOPE   O12 3885   3.114   4.011   4.154  0.0254  0.2153 -0.0730
   31DOPE    C1 3886   3.253   4.236   4.389 -0.4320  0.5058  0.3987
   31DOPE    HA 3887   3.169   4.276   4.449 -1.7315 -2.2993  0.5931
   31DOPE    HB 3888   3.328   4.317   4.371 -0.8232  0.7481 -0.1749
   31DOPE    C2 3889   3.335   4.125   4.476 -0.6567 -0.5975  0.1329
   31DOPE    HS 3890   3.258   4.055   4.517 -1.9810  1.5021  1.3970
   31DOPE   O21 3891   3.411   4.175   4.582  0.9185 -0.1672  0.4609
   31DOPE   C21 3892   3.332   4.212   4.688  0.2103  0.2608 -0.2135
   31DOPE   O22 3893   3.214   4.194   4.694  0.1088  0.2048 -0.0260
   31DOPE   C22 3894   3.414   4.264   4.805  0.9535 -0.9892 -0.5994
   31DOPE   H2R 3895   3.392   4.372   4.818 -3.3841 -1.9215  1.8138
   31DOPE   H2S 3896   3.522   4.256   4.779  0.5597 -0.2164 -2.6344
   31DOPE    C3 3897   3.441   4.047   4.383  0.5660  0.7939  0.3871
   31DOPE    HX 3898   3.505   4.121   4.331 -0.2989  0.6079 -0.9954
   31DOPE    HY 3899   3.381   3.996   4.305  1.5222 -1.5661  1.0772
   31DOPE   O31 3900   3.519   3.951   4.453  0.4564 -0.0963  0.2302
   31DOPE   C31 3901   3.456   3.827   4.472 -0.1149  0.3364  0.4850
   31DOPE   O32 3902   3.348   3.797   4.420  0.1387 -0.2302 -0.5578
   31DOPE   C32 3903   3.529   3.737   4.578  0.4591  0.1640  0.2300
   31DOPE   H2X 3904   3.467   3.645   4.581 -0.1492  0.5831  0.5783
   31DOPE   H2Y 3905   3.627   3.722   4.527  1.3133  3.8497  0.4925
   31DOPE   C23 3906   3.384   4.185   4.947 -0.2894 -0.1366 -0.2618
   31DOPE   H3R 3907   3.457   4.210   5.027 -2.0555  2.9568  0.5553
   31DOPE   H3S 3908   3.388   4.077   4.921  0.0866 -0.9249  2.7262
   31DOPE   C24 3909   3.249   4.214   5.012  0.0310  0.5180 -0.0747
   31DOPE   H4R 3910   3.165   4.212   4.939  1.3690  1.1053 -1.6808
   31DOPE   H4S 3911   3.235   4.318   5.048 -2.3520 -0.3877  1.9472
   31DOPE   C25 3912   3.217   4.109   5.120  0.1345  0.3082  0.3737
   31DOPE   H5R 3913   3.248   4.007   5.088 -0.7925  0.1862 -0.1866
   31DOPE   H5S 3914   3.107   4.102   5.137 -0.0666  0.7156 -0.6890
   31DOPE   C26 3915   3.261   4.139   5.263  0.0745  0.0502 -0.4153
   31DOPE   H6R 3916   3.275   4.248   5.280  1.7223 -0.0660 -0.8610
   31DOPE   H6S 3917   3.361   4.094   5.280 -0.5168 -0.6038  1.7063
   31DOPE   C27 3918   3.175   4.072   5.369 -0.0158 -0.8793  0.1706
   31DOPE   H7R 3919   3.164   3.962   5.366 -1.0518 -0.8058  0.6367
   31DOPE   H7S 3920   3.072   4.111   5.355 -0.3298 -1.6383  0.3418
   31DOPE   C28 3921   3.222   4.102   5.511 -0.2710 -0.5537 -0.1775
   31DOPE   H8R 3922   3.148   4.070   5.588 -0.1269 -0.2973  0.0721
   31DOPE   H8S 3923   3.234   4.211   5.527  2.6427 -0.5117 -2.0037
   31DOPE   C29 3924   3.354   4.038   5.547  0.9548 -0.0665  0.0476
   31DOPE   H9R 3925   3.399   3.980   5.465 -0.3294 -0.9458 -0.0668
   31DOPE  C210 3926   3.413   4.041   5.666  0.0703 -0.0036 -1.0490
   31DOPE  H10R 3927   3.509   3.987   5.675 -1.3633 -2.5984 -0.4593
   31DOPE  C211 3928   3.364   4.111   5.796 -0.1076  0.2007  0.4274
   31DOPE  H11R 3929   3.295   4.191   5.762  1.2969  0.6685 -1.5149
   31DOPE  H11S 3930   3.444   4.158   5.856 -1.5796  1.0044  1.7987
   31DOPE  C212 3931   3.290   4.009   5.888  0.6406 -0.3073 -0.2658
   31DOPE  H12R 3932   3.203   3.961   5.837  0.7912 -0.3893 -0.4431
   31DOPE  H12S 3933   3.246   4.065   5.974  0.7569 -0.1700 -0.2970
   31DOPE  C213 3934   3.377   3.898   5.949  0.3765 -0.6441  0.2768
   31DOPE  H13R 3935   3.473   3.946   5.980  0.0130  0.7483 -0.6766
   31DOPE  H13S 3936   3.400   3.813   5.881 -0.3350  0.1621 -1.0069
   31DOPE  C214 3937   3.316   3.842   6.071  0.0890 -0.6814  0.7814
   31DOPE  H14R 3938   3.232   3.784   6.028  1.3388 -1.2112 -1.0386
   31DOPE  H14S 3939   3.277   3.927   6.131  1.0104  1.1008 -1.0131
   31DOPE  C215 3940   3.399   3.745   6.155  0.1391  0.1488 -0.3864
   31DOPE  H15R 3941   3.491   3.793   6.194 -0.0012 -1.4224  2.1256
   31DOPE  H15S 3942   3.423   3.652   6.100 -2.5549 -0.1026 -1.3131
   31DOPE  C216 3943   3.327   3.696   6.282 -0.3212  0.2268  0.5885
   31DOPE  H16R 3944   3.218   3.697   6.257 -0.6734  1.0861  2.0704
   31DOPE  H16S 3945   3.329   3.780   6.354 -1.8655  1.4948 -0.7536
   31DOPE  C217 3946   3.362   3.559   6.347 -0.7729  1.1139 -0.7376
   31DOPE  H17R 3947   3.353   3.479   6.271  0.5783 -1.5833  1.7694
   31DOPE  H17S 3948   3.281   3.551   6.421  1.7846  2.9750  2.5475
   31DOPE  C218 3949   3.499   3.543   6.414 -0.3145 -0.6643  0.1993
   31DOPE  H18R 3950   3.507   3.447   6.468  3.4309 -0.5912  0.0491
   31DOPE  H18S 3951   3.531   3.624   6.483  0.7896 -1.3735  0.5479
   31DOPE  H18T 3952   3.579   3.549   6.337  0.0420 -1.8379  0.4678
   31DOPE   C33 3953   3.549   3.791   4.726  0.0442 -0.2996  0.6672
   31DOPE   H3X 3954   3.459   3.829   4.779  1.3479  1.2943  1.8092
   31DOPE   H3Y 3955   3.616   3.879   4.725 -0.4041  0.0635  1.8754
   31DOPE   C34 3956   3.616   3.690   4.827 -0.2386  0.2263  0.1827
   31DOPE   H4X 3957   3.549   3.605   4.851 -0.8149  0.9777  1.3329
   31DOPE   H4Y 3958   3.716   3.657   4.792  0.6607  2.9388 -0.0291
   31DOPE   C35 3959   3.655   3.777   4.954 -0.6855 -0.0092 -0.6752
   31DOPE   H5X 3960   3.573   3.849   4.976 -1.1282 -1.0551  1.3759
   31DOPE   H5Y 3961   3.743   3.836   4.921 -1.8320  1.1170 -1.8697
   31DOPE   C36 3962   3.683   3.686   5.077 -0.4297 -0.1501  0.2426
   31DOPE   H6X 3963   3.786   3.645   5.066  0.1661  1.1501  0.7700
   31DOPE   H6Y 3964   3.604   3.608   5.080 -0.6195  0.0668  0.9365
   31DOPE   C37 3965   3.670   3.763   5.210 -0.1304 -0.4667 -0.3967
   31DOPE   H7X 3966   3.744   3.846   5.208  0.0585 -0.6186  0.1093
   31DOPE   H7Y 3967   3.573   3.817   5.212 -0.0043 -0.2396  1.8897
   31DOPE   C38 3968   3.705   3.691   5.342 -0.0987  0.0206  0.0019
   31DOPE   H8X 3969   3.678   3.766   5.420 -3.9068 -1.0750 -0.0766
   31DOPE   H8Y 3970   3.816   3.684   5.352  0.0715  1.5097 -0.6201
   31DOPE   C39 3971   3.651   3.544   5.356  0.1767  0.1182 -0.0416
   31DOPE   H9X 3972   3.660   3.492   5.259  0.9660  1.2884 -0.6269
   31DOPE  C310 3973   3.635   3.466   5.461 -0.5482 -0.1186 -0.5190
   31DOPE  H10X 3974   3.587   3.368   5.448  1.2247 -1.1363  0.2473
   31DOPE  C311 3975   3.658   3.505   5.606  0.2394 -0.6390 -0.7564
   31DOPE  H11X 3976   3.763   3.520   5.638 -0.1353  0.0998  0.2177
   31DOPE  H11Y 3977   3.607   3.604   5.617  0.2542 -0.4196 -2.4202
   31DOPE  C312 3978   3.601   3.403   5.710 -0.0920 -0.0315 -0.7443
   31DOPE  H12X 3979   3.658   3.308   5.706 -0.0748  0.0240 -2.7549
   31DOPE  H12Y 3980   3.497   3.376   5.685 -0.6767  0.7540  0.7322
   31DOPE  C313 3981   3.609   3.463   5.856  0.7933 -0.1094  0.8175
   31DOPE  H13X 3982   3.717   3.482   5.879  0.4548  1.4727  1.2166
   31DOPE  H13Y 3983   3.559   3.562   5.854  0.7131 -0.1578 -0.7768
   31DOPE  C314 3984   3.546   3.369   5.960 -0.6295  0.1871 -0.3190
   31DOPE  H14X 3985   3.589   3.270   5.935  2.2635  1.7125 -1.8526
   31DOPE  H14Y 3986   3.439   3.346   5.938 -0.7186  0.5186 -0.2310
   31DOPE  C315 3987   3.586   3.401   6.099  0.3269  0.8682  0.5824
   31DOPE  H15X 3988   3.511   3.344   6.159 -1.6484  0.2682 -2.2666
   31DOPE  H15Y 3989   3.583   3.508   6.128  1.1146  0.7177  1.2594
   31DOPE  C316 3990   3.727   3.348   6.121 -0.2097  0.2729 -0.4552
   31DOPE  H16X 3991   3.809   3.390   6.059 -0.6185 -0.7284 -1.7201
   31DOPE  H16Y 3992   3.734   3.239   6.096  1.2142  0.1354  0.4273
   31DOPE  C317 3993   3.757   3.352   6.272 -0.1511 -0.1045 -0.2565
   31DOPE  H17X 3994   3.774   3.459   6.296  0.0394  0.8847 -4.1415
   31DOPE  H17Y 3995   3.680   3.319   6.346  0.5967 -1.9930 -0.2793
   31DOPE  C318 3996   3.892   3.283   6.288  0.0536  0.1723 -0.0635
   31DOPE  H18X 3997   3.920   3.283   6.395 -1.0716  0.6520  0.2488
   31DOPE  H18Y 3998   3.892   3.181   6.243 -0.4824  0.4682 -0.7494
   31DOPE  H18Z 3999   3.966   3.348   6.236  1.8347 -1.6499  0.0444
   32DOPE     N 4000   3.581   4.873   4.013  0.2051 -0.5861 -0.3090
   32DOPE   HN1 4001   3.522   4.909   4.091  0.5187  0.1282 -0.3891
   32DOPE   HN2 4002   3.654   4.947   4.009  0.2694 -0.5907  0.5906
   32DOPE   HN3 4003   3.525   4.864   3.926 -1.2750 -1.6974  0.7084
   32DOPE   C12 4004   3.642   4.749   4.059  0.7851  0.2620  0.0157
   32DOPE  H12A 4005   3.693   4.698   3.974  1.3814 -0.8306  0.9947
   32DOPE  H12B 4006   3.555   4.695   4.102  0.1861  1.3175  0.1549
   32DOPE   C11 4007   3.758   4.778   4.169  0.0147  0.2630  0.3177
   32DOPE  H11A 4008   3.808   4.681   4.184 -1.3518 -0.2655  1.7386
   32DOPE  H11B 4009   3.705   4.796   4.265  0.5947 -0.8598  0.8723
   32DOPE     P 4010   3.846   5.017   4.226  0.2060 -0.0323  0.3010
   32DOPE   O13 4011   3.710   5.065   4.245 -0.0163 -0.1814 -0.0572
   32DOPE   O14 4012   3.938   5.115   4.162  0.4156  0.1954 -0.0038
   32DOPE   O11 4013   3.910   4.972   4.363  0.4797 -0.1337  0.2380
   32DOPE   O12 4014   3.850   4.885   4.136 -0.1004  0.0613 -0.7213
   32DOPE    C1 4015   4.025   4.888   4.368 -0.3431 -0.2120  0.2556
   32DOPE    HA 4016   4.102   4.939   4.430 -0.1613 -2.0880  1.6428
   32DOPE    HB 4017   4.068   4.864   4.268  0.3407  1.7505  0.0314
   32DOPE    C2 4018   4.004   4.752   4.437 -0.4338  0.3574  0.3382
   32DOPE    HS 4019   3.906   4.724   4.395  1.4237 -2.5006 -2.5350
   32DOPE   O21 4020   4.011   4.777   4.580 -0.2645 -0.3338  0.1730
   32DOPE   C21 4021   3.979   4.684   4.662 -0.2973 -0.0709 -0.4893
   32DOPE   O22 4022   3.940   4.570   4.630 -0.9820 -0.2830 -0.9750
   32DOPE   C22 4023   3.995   4.736   4.809 -0.2450  0.1764  0.4322
   32DOPE   H2R 4024   3.921   4.820   4.813  1.9131  2.1666  0.6015
   32DOPE   H2S 4025   4.098   4.777   4.817  0.3303 -1.2420  0.4160
   32DOPE    C3 4026   4.105   4.641   4.389  0.1913  0.3608 -0.1280
   32DOPE    HX 4027   4.099   4.637   4.278  0.2820  1.7796 -0.1975
   32DOPE    HY 4028   4.072   4.540   4.424  0.2748  0.2986 -0.2276
   32DOPE   O31 4029   4.245   4.678   4.418  0.6041  0.0801 -0.2146
   32DOPE   C31 4030   4.318   4.573   4.421 -0.2033 -1.1429 -0.5277
   32DOPE   O32 4031   4.286   4.459   4.388 -0.2362 -0.4414 -0.2560
   32DOPE   C32 4032   4.461   4.615   4.466  0.1525 -0.0394  0.1037
   32DOPE   H2X 4033   4.484   4.710   4.414  0.8483 -0.5100 -0.4784
   32DOPE   H2Y 4034   4.467   4.619   4.577 -0.0853  2.3828  0.0727
   32DOPE   C23 4035   3.978   4.629   4.924  0.6361  0.5955 -0.2279
   32DOPE   H3R 4036   4.071   4.570   4.915  0.1383 -0.1459 -0.5389
   32DOPE   H3S 4037   3.892   4.560   4.914  0.9770  0.1130  0.1384
   32DOPE   C24 4038   3.968   4.708   5.058  0.2289  0.6219  0.4969
   32DOPE   H4R 4039   3.882   4.778   5.059 -0.0575  0.2905 -0.2333
   32DOPE   H4S 4040   4.060   4.767   5.072  0.7056 -0.4209  2.0344
   32DOPE   C25 4041   3.975   4.610   5.174 -1.3015 -0.0823 -0.5771
   32DOPE   H5R 4042   4.065   4.546   5.176 -0.8679  0.5005 -1.0749
   32DOPE   H5S 4043   3.891   4.537   5.169 -1.2008 -0.3631  1.1114
   32DOPE   C26 4044   3.966   4.678   5.309 -0.4254  0.4711  0.1618
   32DOPE   H6R 4045   3.868   4.731   5.310 -0.3535  0.6478 -0.9389
   32DOPE   H6S 4046   4.048   4.751   5.328 -0.9173  1.1777 -0.3778
   32DOPE   C27 4047   3.963   4.579   5.420 -0.4026  0.4740 -0.0005
   32DOPE   H7R 4048   4.053   4.518   5.442 -0.3042  0.9117  0.8284
   32DOPE   H7S 4049   3.879   4.512   5.390  0.7753 -1.0108 -0.1031
   32DOPE   C28 4050   3.921   4.649   5.552 -0.3188  0.1956 -0.1384
   32DOPE   H8R 4051   3.875   4.576   5.623  0.9401 -1.4462 -0.9627
   32DOPE   H8S 4052   3.835   4.713   5.522  1.0435  1.9796 -0.3829
   32DOPE   C29 4053   4.036   4.735   5.611  0.3508  0.2768  0.0953
   32DOPE   H9R 4054   4.022   4.844   5.606  1.2688  0.4133  0.3227
   32DOPE  C210 4055   4.152   4.689   5.669 -0.2345  0.6612  0.8702
   32DOPE  H10R 4056   4.233   4.756   5.704  1.7499 -1.6211  0.9542
   32DOPE  C211 4057   4.205   4.548   5.684 -0.9133 -0.0840  0.2415
   32DOPE  H11R 4058   4.230   4.505   5.584  1.6719 -1.4903  1.3952
   32DOPE  H11S 4059   4.119   4.484   5.715  0.2367 -1.7533  0.1268
   32DOPE  C212 4060   4.313   4.533   5.788 -0.3344  0.2544 -0.3423
   32DOPE  H12R 4061   4.383   4.620   5.781  1.2827 -1.0115 -0.5937
   32DOPE  H12S 4062   4.381   4.449   5.761 -1.2245  0.5274 -3.9270
   32DOPE  C213 4063   4.272   4.535   5.937  0.6123 -0.4289  0.0146
   32DOPE  H13R 4064   4.224   4.439   5.966  2.3834 -2.4443 -3.1209
   32DOPE  H13S 4065   4.203   4.621   5.951  0.0964 -0.4725 -1.9671
   32DOPE  C214 4066   4.392   4.561   6.033  0.2867  0.0564  0.4712
   32DOPE  H14R 4067   4.355   4.602   6.130 -1.0891  0.1492 -0.0817
   32DOPE  H14S 4068   4.452   4.644   5.991 -1.5008  1.1420 -0.0374
   32DOPE  C215 4069   4.480   4.443   6.063 -0.5007 -0.0471 -0.6935
   32DOPE  H15R 4070   4.489   4.384   5.970  0.0702  0.3232 -0.8794
   32DOPE  H15S 4071   4.433   4.374   6.136  2.5682 -3.2748 -1.4740
   32DOPE  C216 4072   4.621   4.488   6.112  0.3523 -0.1328  0.1134
   32DOPE  H16R 4073   4.610   4.554   6.200  1.1518 -1.1021  0.9642
   32DOPE  H16S 4074   4.668   4.555   6.037 -0.9298  2.5972  1.5946
   32DOPE  C217 4075   4.713   4.374   6.137 -0.0580  0.2624 -1.3569
   32DOPE  H17R 4076   4.734   4.319   6.042 -0.7301 -1.2654 -0.6587
   32DOPE  H17S 4077   4.668   4.298   6.205 -0.9598  0.3860 -1.8124
   32DOPE  C218 4078   4.850   4.420   6.203 -0.0103  0.0765 -0.7210
   32DOPE  H18R 4079   4.911   4.470   6.125 -0.1010  2.6958  0.7724
   32DOPE  H18S 4080   4.915   4.334   6.230  0.7490  0.9427  0.2942
   32DOPE  H18T 4081   4.823   4.479   6.293 -2.5260  1.9885 -2.5862
   32DOPE   C33 4082   4.579   4.518   4.425  0.6617 -0.8190  0.5431
   32DOPE   H3X 4083   4.586   4.512   4.314 -0.4742  0.0583  0.4038
   32DOPE   H3Y 4084   4.563   4.413   4.457 -0.3361 -1.0628 -0.6764
   32DOPE   C34 4085   4.706   4.569   4.483 -0.6018 -0.2386  0.1422
   32DOPE   H4X 4086   4.794   4.535   4.424 -1.1958  0.6738 -1.3300
   32DOPE   H4Y 4087   4.697   4.679   4.495 -1.4659 -0.3609  0.6783
   32DOPE   C35 4088   4.735   4.515   4.624 -0.4096 -0.7742  0.0965
   32DOPE   H5X 4089   4.749   4.405   4.619  0.5283 -0.6090 -2.1214
   32DOPE   H5Y 4090   4.649   4.551   4.685  0.7764  1.2010  0.7114
   32DOPE   C36 4091   4.860   4.569   4.696 -0.9620  0.2000 -0.9399
   32DOPE   H6X 4092   4.852   4.680   4.702 -2.8623  0.1173 -1.1138
   32DOPE   H6Y 4093   4.951   4.524   4.652  1.4044  2.8099  0.9275
   32DOPE   C37 4094   4.863   4.507   4.834  0.4353  0.1289  0.4960
   32DOPE   H7X 4095   4.776   4.555   4.885 -0.7569  0.8255 -2.0362
   32DOPE   H7Y 4096   4.860   4.396   4.832  1.1631  0.1139 -0.1426
   32DOPE   C38 4097   4.990   4.536   4.914  0.0074 -0.6192  0.8974
   32DOPE   H8X 4098   4.973   4.517   5.022  1.4321 -1.2632  1.0352
   32DOPE   H8Y 4099   5.015   4.644   4.903  0.6480 -0.8574 -0.1304
   32DOPE   C39 4100   5.112   4.457   4.868 -0.0205 -0.3614 -0.5777
   32DOPE   H9X 4101   5.182   4.503   4.796  0.5520  0.1565  0.2929
   32DOPE  C310 4102   5.161   4.349   4.941  1.0815 -0.4185  0.3755
   32DOPE  H10X 4103   5.264   4.315   4.927  2.0260  1.8805  1.2779
   32DOPE  C311 4104   5.086   4.282   5.051  0.3786 -0.7445 -1.1763
   32DOPE  H11X 4105   4.978   4.297   5.034  0.4842 -0.7944 -1.9102
   32DOPE  H11Y 4106   5.100   4.173   5.042 -0.4659 -0.8596 -1.1634
   32DOPE  C312 4107   5.140   4.331   5.190 -0.6632 -0.1595  0.5549
   32DOPE  H12X 4108   5.175   4.437   5.188  1.1329 -0.7176 -1.4491
   32DOPE  H12Y 4109   5.229   4.268   5.212  0.4532  0.8040 -0.9806
   32DOPE  C313 4110   5.043   4.309   5.310 -0.5161  0.1317  0.0052
   32DOPE  H13X 4111   4.991   4.212   5.294 -0.1050  0.0246 -0.7775
   32DOPE  H13Y 4112   5.112   4.301   5.397  0.9615  2.9413 -0.7785
   32DOPE  C314 4113   4.940   4.417   5.333  0.0054 -0.4358  0.7571
   32DOPE  H14X 4114   4.877   4.422   5.242 -2.2816  0.0341  2.2917
   32DOPE  H14Y 4115   4.994   4.514   5.343  0.9166 -0.7688 -0.6487
   32DOPE  C315 4116   4.857   4.396   5.463 -0.4014  0.1935  0.2316
   32DOPE  H15X 4117   4.825   4.291   5.477  0.2343 -0.0506 -0.1138
   32DOPE  H15Y 4118   4.764   4.455   5.448  0.4417  1.1860 -1.3603
   32DOPE  C316 4119   4.928   4.446   5.594  0.2093 -0.0231  0.2695
   32DOPE  H16X 4120   4.965   4.549   5.573  2.3729 -0.6357  0.8391
   32DOPE  H16Y 4121   5.019   4.382   5.599  0.5620  0.4627  0.1985
   32DOPE  C317 4122   4.837   4.435   5.720  0.3305 -0.7355  0.5654
   32DOPE  H17X 4123   4.773   4.346   5.701 -1.2154  0.2245  1.1100
   32DOPE  H17Y 4124   4.906   4.421   5.806 -0.9982 -2.8973  1.3623
   32DOPE  C318 4125   4.741   4.554   5.739 -0.6301  0.3167  0.1641
   32DOPE  H18X 4126   4.685   4.545   5.835 -2.4346 -2.0867 -1.0064
   32DOPE  H18Y 4127   4.785   4.655   5.750 -0.0118  0.1094 -0.3404
   32DOPE  H18Z 4128   4.658   4.546   5.666 -0.1366 -1.2859 -0.2531
   33DOPE     N 4129   4.638   3.513   3.794 -0.8062  0.2252 -0.5144
   33DOPE   HN1 4130   4.614   3.591   3.730 -0.4318  1.4933  0.8377
   33DOPE   HN2 4131   4.604   3.420   3.763  1.4463 -1.7916  2.4293
   33DOPE   HN3 4132   4.607   3.532   3.892 -0.0567  1.9686 -0.5721
   33DOPE   C12 4133   4.785   3.500   3.805 -0.4921  0.2577  0.4396
   33DOPE  H12A 4134   4.822   3.460   3.709  1.6867  0.6143  1.0874
   33DOPE  H12B 4135   4.815   3.434   3.889  0.9719  0.3347 -0.0003
   33DOPE   C11 4136   4.857   3.627   3.830 -0.1467 -0.0632 -0.2746
   33DOPE  H11A 4137   4.966   3.612   3.841 -0.1672 -1.3320 -1.5098
   33DOPE  H11B 4138   4.826   3.668   3.928  0.1743 -1.2534  0.3499
   33DOPE     P 4139   4.886   3.861   3.723 -0.1392 -0.2834  0.0267
   33DOPE   O13 4140   4.797   3.951   3.641 -0.3291  0.5420 -0.0355
   33DOPE   O14 4141   5.029   3.854   3.686  0.1694 -0.4878  0.6786
   33DOPE   O11 4142   4.889   3.907   3.876  0.1760  0.0485  0.8801
   33DOPE   O12 4143   4.816   3.716   3.722 -0.9715  0.3264 -0.2495
   33DOPE    C1 4144   4.764   3.943   3.932  0.1350  0.0883 -0.3684
   33DOPE    HA 4145   4.689   3.862   3.924  0.6996 -0.4642 -0.2140
   33DOPE    HB 4146   4.722   4.035   3.885 -0.3020 -0.2661 -0.6722
   33DOPE    C2 4147   4.780   3.986   4.076  0.0240  0.0985 -0.2207
   33DOPE    HS 4148   4.687   3.972   4.135  0.6955 -0.7984  0.6417
   33DOPE   O21 4149   4.831   4.122   4.090 -0.6739  0.0086  0.1452
   33DOPE   C21 4150   4.787   4.201   4.184  0.3623 -0.8969 -0.3460
   33DOPE   O22 4151   4.710   4.170   4.273  0.1377  0.4667 -0.3255
   33DOPE   C22 4152   4.866   4.338   4.184  0.6391  0.2591  0.9926
   33DOPE   H2R 4153   4.804   4.403   4.250 -1.1022 -2.6921  2.5181
   33DOPE   H2S 4154   4.865   4.387   4.085 -0.1843 -0.7147  0.4979
   33DOPE    C3 4155   4.887   3.900   4.148  0.2363 -0.4208 -0.3308
   33DOPE    HX 4156   4.979   3.905   4.086  0.4803 -2.5442 -0.2075
   33DOPE    HY 4157   4.863   3.792   4.137  0.3827 -0.3936 -0.9724
   33DOPE   O31 4158   4.916   3.940   4.283  0.0483 -0.1668 -0.1977
   33DOPE   C31 4159   4.822   3.916   4.371  0.2737  0.3436 -0.7254
   33DOPE   O32 4160   4.724   3.847   4.348 -0.2428 -0.5579 -0.1028
   33DOPE   C32 4161   4.869   3.962   4.506  0.4400 -0.9731  0.0590
   33DOPE   H2X 4162   4.866   3.877   4.577 -2.8215 -1.4532 -0.4821
   33DOPE   H2Y 4163   4.977   3.989   4.499 -0.1642  2.0180  0.8921
   33DOPE   C23 4164   5.012   4.313   4.231  0.1501 -0.9255 -0.1762
   33DOPE   H3R 4165   5.068   4.409   4.218  0.1490 -0.4225  2.9298
   33DOPE   H3S 4166   5.064   4.230   4.179  1.0675 -0.4329 -0.0596
   33DOPE   C24 4167   5.025   4.284   4.381  0.4354 -0.1062  0.1355
   33DOPE   H4R 4168   4.956   4.199   4.400 -1.6090  1.4980  0.2338
   33DOPE   H4S 4169   4.981   4.364   4.445 -1.0102  1.8947 -3.1222
   33DOPE   C25 4170   5.168   4.270   4.428  0.1072 -0.6750  0.2034
   33DOPE   H5R 4171   5.226   4.226   4.344  0.0394 -0.3968  0.0134
   33DOPE   H5S 4172   5.170   4.208   4.521  0.6848  2.0808  2.1313
   33DOPE   C26 4173   5.232   4.406   4.464  0.2692 -0.3328  0.5523
   33DOPE   H6R 4174   5.182   4.436   4.559 -1.4637  1.5115 -0.8629
   33DOPE   H6S 4175   5.209   4.485   4.390  1.4041 -0.8366 -0.3723
   33DOPE   C27 4176   5.380   4.407   4.489 -0.0294 -0.3515  0.0602
   33DOPE   H7R 4177   5.416   4.512   4.489  2.3311 -1.0519 -1.7903
   33DOPE   H7S 4178   5.425   4.369   4.394  0.3671 -1.5778  0.7137
   33DOPE   C28 4179   5.427   4.338   4.616  0.3502  0.3214 -0.0643
   33DOPE   H8R 4180   5.415   4.230   4.593 -2.2281  0.7886 -1.3144
   33DOPE   H8S 4181   5.351   4.345   4.697 -0.1769  1.5426 -0.6253
   33DOPE   C29 4182   5.571   4.365   4.659 -0.2200  0.0353 -0.0135
   33DOPE   H9R 4183   5.648   4.315   4.598  1.1881 -2.2866  3.3327
   33DOPE  C210 4184   5.619   4.439   4.764 -0.6191  0.1835  0.3754
   33DOPE  H10R 4185   5.726   4.460   4.778 -0.7029  1.1758 -0.3076
   33DOPE  C211 4186   5.532   4.536   4.843  0.3104  0.7081  0.1379
   33DOPE  H11R 4187   5.427   4.513   4.812  1.1955 -0.5659 -2.1663
   33DOPE  H11S 4188   5.561   4.642   4.832  3.3778  0.0656  1.0089
   33DOPE  C212 4189   5.567   4.498   4.990 -0.2663 -0.3022  0.0860
   33DOPE  H12R 4190   5.677   4.505   5.003 -0.4964 -0.6101  2.7655
   33DOPE  H12S 4191   5.529   4.396   5.012 -0.0670 -0.0090  1.9354
   33DOPE  C213 4192   5.494   4.595   5.086  0.8353 -0.3493 -0.5656
   33DOPE  H13R 4193   5.385   4.594   5.065  0.5941 -1.2209  0.6046
   33DOPE  H13S 4194   5.533   4.699   5.080  0.5245 -0.0957  1.1658
   33DOPE  C214 4195   5.511   4.547   5.230 -0.5498 -0.8222 -0.5558
   33DOPE  H14R 4196   5.498   4.437   5.239 -2.8049 -0.5455  0.1589
   33DOPE  H14S 4197   5.437   4.600   5.293 -1.9401 -0.7088 -2.2167
   33DOPE  C215 4198   5.650   4.573   5.276 -0.5499 -0.1871 -0.6674
   33DOPE  H15R 4199   5.675   4.674   5.237 -2.0238  0.7398  0.6201
   33DOPE  H15S 4200   5.720   4.498   5.234 -0.4108 -1.1264  1.1299
   33DOPE  C216 4201   5.676   4.575   5.430  0.1000  0.8340  0.0823
   33DOPE  H16R 4202   5.670   4.467   5.457  3.0776 -0.2484 -2.8117
   33DOPE  H16S 4203   5.596   4.624   5.488  1.6016 -0.1178  3.1605
   33DOPE  C217 4204   5.811   4.640   5.472  0.3829  0.6403  0.7431
   33DOPE  H17R 4205   5.798   4.749   5.457  0.8723  0.7204  0.8979
   33DOPE  H17S 4206   5.893   4.609   5.404 -1.1829 -1.0328 -0.4799
   33DOPE  C218 4207   5.853   4.613   5.616  0.2470  0.8646  0.6404
   33DOPE  H18R 4208   5.899   4.512   5.621 -0.2372  0.5852 -0.3347
   33DOPE  H18S 4209   5.765   4.606   5.684  0.5101 -1.0756  0.8381
   33DOPE  H18T 4210   5.917   4.699   5.646 -0.8447  1.8606  0.1734
   33DOPE   C33 4211   4.787   4.082   4.577 -0.1904  0.4242  0.1921
   33DOPE   H3X 4212   4.680   4.056   4.591  0.0752 -1.5837 -1.0354
   33DOPE   H3Y 4213   4.789   4.165   4.504 -0.7573  0.6417  0.4200
   33DOPE   C34 4214   4.853   4.099   4.716  0.1390 -0.5407  0.1313
   33DOPE   H4X 4215   4.963   4.089   4.704  0.2048  0.9607 -0.7402
   33DOPE   H4Y 4216   4.826   4.198   4.757 -0.1728 -1.1419  1.4413
   33DOPE   C35 4217   4.804   3.990   4.823 -0.5929 -0.4921  0.0928
   33DOPE   H5X 4218   4.832   3.887   4.794  0.6227 -0.3053  0.5427
   33DOPE   H5Y 4219   4.694   3.993   4.812 -0.5135 -0.9122 -0.9106
   33DOPE   C36 4220   4.832   4.023   4.972  0.5914 -0.0339 -0.6787
   33DOPE   H6X 4221   4.788   4.121   5.002 -1.6762 -1.0660 -0.4320
   33DOPE   H6Y 4222   4.941   4.043   4.971  0.5250  0.4386  0.5047
   33DOPE   C37 4223   4.800   3.917   5.080 -0.0766 -0.3295 -1.1749
   33DOPE   H7X 4224   4.693   3.888   5.070  0.8015 -4.8453  0.1293
   33DOPE   H7Y 4225   4.858   3.829   5.045  1.9297  1.3295 -2.2463
   33DOPE   C38 4226   4.835   3.947   5.228  0.1807  0.0866 -0.3790
   33DOPE   H8X 4227   4.785   4.043   5.252 -1.9773 -1.3801  1.3242
   33DOPE   H8Y 4228   4.943   3.967   5.246 -0.4686  1.2085  2.7770
   33DOPE   C39 4229   4.792   3.839   5.323 -0.0404 -0.3712 -0.0450
   33DOPE   H9X 4230   4.737   3.757   5.275 -0.2144 -1.3196  1.7211
   33DOPE  C310 4231   4.798   3.844   5.458 -0.2393  0.2002  0.2955
   33DOPE  H10X 4232   4.736   3.772   5.513 -3.0070  0.7371 -1.9056
   33DOPE  C311 4233   4.866   3.952   5.543 -0.2842 -0.4534 -0.5037
   33DOPE  H11X 4234   4.914   4.037   5.492 -0.7684 -0.1132 -0.4003
   33DOPE  H11Y 4235   4.794   3.998   5.614  1.9155  0.7576  1.0872
   33DOPE  C312 4236   4.976   3.896   5.638 -0.5534  0.0748 -0.1216
   33DOPE  H12X 4237   4.919   3.831   5.708  0.2863 -1.3427 -0.7077
   33DOPE  H12Y 4238   5.022   3.986   5.683 -0.6058  1.1852 -2.1577
   33DOPE  C313 4239   5.095   3.822   5.581 -0.4852  0.9406 -0.5751
   33DOPE  H13X 4240   5.063   3.749   5.503  0.3979 -0.6770  0.5196
   33DOPE  H13Y 4241   5.162   3.889   5.523  1.2433 -1.0207 -0.9985
   33DOPE  C314 4242   5.195   3.764   5.687 -0.0898  0.0381  0.2561
   33DOPE  H14X 4243   5.131   3.684   5.730 -2.2964  1.3734 -0.3225
   33DOPE  H14Y 4244   5.209   3.840   5.767  2.0063 -1.5953  1.5040
   33DOPE  C315 4245   5.328   3.703   5.645 -0.3338  0.2040 -0.1761
   33DOPE  H15X 4246   5.385   3.784   5.593  2.7186 -1.7407 -0.0994
   33DOPE  H15Y 4247   5.313   3.621   5.571  3.1160 -1.0349  0.2848
   33DOPE  C316 4248   5.418   3.654   5.758  0.1171 -0.3177  0.3953
   33DOPE  H16X 4249   5.496   3.593   5.708  2.4239  1.8189  1.1729
   33DOPE  H16Y 4250   5.356   3.593   5.827 -0.7038 -2.4363 -2.0432
   33DOPE  C317 4251   5.498   3.762   5.829 -0.4517 -0.4772  0.8573
   33DOPE  H17X 4252   5.544   3.832   5.755 -0.2991 -0.8888  0.5544
   33DOPE  H17Y 4253   5.435   3.827   5.894 -0.9178 -0.5994  0.5285
   33DOPE  C318 4254   5.622   3.729   5.910  1.2788  0.3055  0.4186
   33DOPE  H18X 4255   5.599   3.647   5.981  1.3447  1.3464  1.6677
   33DOPE  H18Y 4256   5.710   3.706   5.847  1.5023  1.6381  0.2051
   33DOPE  H18Z 4257   5.641   3.824   5.965 -0.6841  1.3793 -0.6552
   34DOPE     N 4258   2.296   4.689   4.103 -0.4672 -0.4588  0.7099
   34DOPE   HN1 4259   2.322   4.770   4.164  0.1824  0.4223 -0.6742
   34DOPE   HN2 4260   2.212   4.715   4.046  0.8403  0.0053 -1.1051
   34DOPE   HN3 4261   2.267   4.601   4.150  0.3116 -1.6352 -0.9045
   34DOPE   C12 4262   2.408   4.649   4.015 -0.2147  0.3183  0.5660
   34DOPE  H12A 4263   2.355   4.603   3.929  0.4730 -2.0467  1.3543
   34DOPE  H12B 4264   2.465   4.565   4.060  1.2273  1.2123  0.4751
   34DOPE   C11 4265   2.494   4.770   3.979  0.1084  0.4163 -0.0544
   34DOPE  H11A 4266   2.431   4.849   3.932 -0.6967 -0.1130  0.1145
   34DOPE  H11B 4267   2.570   4.733   3.907 -0.9004  1.0907 -1.5040
   34DOPE     P 4268   2.680   4.753   4.163 -0.2386  0.0360 -0.1008
   34DOPE   O13 4269   2.745   4.845   4.259 -0.0708  0.1622  0.2759
   34DOPE   O14 4270   2.771   4.705   4.061 -0.1329 -0.4498  0.0322
   34DOPE   O11 4271   2.615   4.632   4.252  0.1861 -0.5096  0.0540
   34DOPE   O12 4272   2.557   4.824   4.092  0.2527 -0.2918  0.0527
   34DOPE    C1 4273   2.531   4.666   4.366  0.0402 -0.1758  0.0051
   34DOPE    HA 4274   2.445   4.596   4.378 -0.3511  0.5434  1.5862
   34DOPE    HB 4275   2.477   4.763   4.356  0.3104 -0.1698 -1.6992
   34DOPE    C2 4276   2.613   4.676   4.497  0.7097  0.1783 -0.2535
   34DOPE    HS 4277   2.657   4.778   4.497 -2.2470  1.5889  1.4694
   34DOPE   O21 4278   2.705   4.558   4.508  0.0907  0.1704  0.0861
   34DOPE   C21 4279   2.821   4.572   4.568  0.0217 -0.2031  0.5104
   34DOPE   O22 4280   2.867   4.676   4.616  0.4400  0.0569  0.2223
   34DOPE   C22 4281   2.894   4.440   4.571 -0.0423  0.0282  0.6142
   34DOPE   H2R 4282   2.987   4.448   4.511 -0.8575  0.0438 -0.6659
   34DOPE   H2S 4283   2.838   4.359   4.521 -1.0097  1.6096 -0.9753
   34DOPE    C3 4284   2.513   4.679   4.617  0.4769 -0.1750  0.6168
   34DOPE    HX 4285   2.453   4.588   4.597 -0.0307  0.6269 -1.8769
   34DOPE    HY 4286   2.439   4.761   4.601  0.5690 -0.3064 -0.6454
   34DOPE   O31 4287   2.579   4.668   4.743  0.4527 -0.0632 -0.0261
   34DOPE   C31 4288   2.613   4.791   4.787 -0.7238 -0.3482  0.1367
   34DOPE   O32 4289   2.589   4.897   4.737 -0.2043 -0.0246 -0.1012
   34DOPE   C32 4290   2.695   4.779   4.910  0.8571  0.6910 -0.1763
   34DOPE   H2X 4291   2.780   4.710   4.894  0.7710 -0.0183  2.0515
   34DOPE   H2Y 4292   2.728   4.876   4.952 -2.0399  1.3677  0.8285
   34DOPE   C23 4293   2.935   4.389   4.710 -0.1217  0.1240 -0.0245
   34DOPE   H3R 4294   3.008   4.454   4.764 -0.4607  0.4932 -0.0052
   34DOPE   H3S 4295   2.991   4.295   4.693  0.1178  0.2291  0.1830
   34DOPE   C24 4296   2.818   4.370   4.806  0.1895  0.2511  0.0887
   34DOPE   H4R 4297   2.741   4.298   4.772 -0.5733  0.4730  1.2657
   34DOPE   H4S 4298   2.754   4.457   4.833 -1.1847 -1.0828  1.3094
   34DOPE   C25 4299   2.872   4.296   4.930 -0.7739 -0.3089  0.2763
   34DOPE   H5R 4300   2.955   4.358   4.969 -0.3140  0.3098 -1.5911
   34DOPE   H5S 4301   2.903   4.192   4.905 -1.4921 -0.7269  1.0368
   34DOPE   C26 4302   2.758   4.301   5.033  0.0983 -0.0556  0.0795
   34DOPE   H6R 4303   2.676   4.242   4.987 -0.3746  1.2112 -0.7799
   34DOPE   H6S 4304   2.728   4.404   5.060  1.1475  0.1622  0.4672
   34DOPE   C27 4305   2.808   4.222   5.163  0.7021  0.1385  0.1055
   34DOPE   H7R 4306   2.896   4.277   5.203  1.4674 -1.5813  0.8510
   34DOPE   H7S 4307   2.844   4.119   5.141  0.9314  0.0119  1.0401
   34DOPE   C28 4308   2.695   4.213   5.274  0.2315  0.1789  0.8836
   34DOPE   H8R 4309   2.667   4.320   5.283  0.4887  0.4111 -0.8017
   34DOPE   H8S 4310   2.741   4.184   5.371  0.0045 -0.5116  0.7934
   34DOPE   C29 4311   2.563   4.141   5.243 -0.1239 -0.4868 -0.5545
   34DOPE   H9R 4312   2.525   4.148   5.140 -2.5772  0.9487  0.3771
   34DOPE  C210 4313   2.503   4.061   5.332  0.7941 -0.1082 -0.0398
   34DOPE  H10R 4314   2.410   4.008   5.306  0.2278  1.0812 -0.5261
   34DOPE  C211 4315   2.539   4.040   5.477  0.3726  0.2067 -0.2948
   34DOPE  H11R 4316   2.604   4.122   5.513  2.0892 -0.7621 -1.0902
   34DOPE  H11S 4317   2.597   3.947   5.489 -1.1877 -0.4623  3.0290
   34DOPE  C212 4318   2.417   4.039   5.571 -0.4204 -0.1855 -0.2059
   34DOPE  H12R 4319   2.327   4.003   5.515 -0.8581 -1.2220  1.1104
   34DOPE  H12S 4320   2.390   4.135   5.620  0.2099 -0.7539  1.3133
   34DOPE  C213 4321   2.444   3.941   5.687 -0.3744  0.4724  0.5412
   34DOPE  H13R 4322   2.552   3.916   5.702 -0.6124 -1.7038 -0.9370
   34DOPE  H13S 4323   2.398   3.843   5.662 -1.3249  0.8930  0.6227
   34DOPE  C214 4324   2.380   3.997   5.809 -0.0816  0.5030  0.4175
   34DOPE  H14R 4325   2.271   4.012   5.792  0.1322  0.6129 -1.0011
   34DOPE  H14S 4326   2.436   4.090   5.831  2.4072 -0.6811 -0.5212
   34DOPE  C215 4327   2.406   3.908   5.931 -0.2135  0.0306  0.1307
   34DOPE  H15R 4328   2.381   3.950   6.031  0.7254  0.4439  0.1977
   34DOPE  H15S 4329   2.515   3.895   5.948  0.1464  4.3682  2.4143
   34DOPE  C216 4330   2.337   3.765   5.930 -0.2367  0.2647 -0.0277
   34DOPE  H16R 4331   2.375   3.714   5.839  2.2094 -0.8716  1.5286
   34DOPE  H16S 4332   2.229   3.790   5.919 -0.0207  1.2680 -0.0371
   34DOPE  C217 4333   2.369   3.681   6.052 -0.2186  0.1265  0.4978
   34DOPE  H17R 4334   2.342   3.733   6.146 -1.7323  0.2198  0.0410
   34DOPE  H17S 4335   2.480   3.671   6.046 -0.3780 -1.9948  0.4673
   34DOPE  C218 4336   2.298   3.543   6.058 -0.0162  0.9081 -0.1778
   34DOPE  H18R 4337   2.300   3.493   5.958 -2.9430  1.8799 -0.8269
   34DOPE  H18S 4338   2.194   3.552   6.094 -0.5053 -3.9477  0.2898
   34DOPE  H18T 4339   2.346   3.474   6.131 -0.9370  1.3538  0.8655
   34DOPE   C33 4340   2.612   4.723   5.030  0.3578  0.2212 -0.2589
   34DOPE   H3X 4341   2.555   4.636   4.991 -0.2174  0.6180 -0.3122
   34DOPE   H3Y 4342   2.530   4.797   5.044 -0.4367 -0.7302  0.2643
   34DOPE   C34 4343   2.686   4.669   5.150 -0.6927 -0.3208  0.2861
   34DOPE   H4X 4344   2.765   4.592   5.134 -1.1623 -0.9075  0.7115
   34DOPE   H4Y 4345   2.749   4.747   5.197 -1.3868 -0.2816  1.1723
   34DOPE   C35 4346   2.591   4.609   5.259 -0.2227  0.7707 -0.9314
   34DOPE   H5X 4347   2.548   4.519   5.209  1.8796 -0.8559  0.0144
   34DOPE   H5Y 4348   2.507   4.678   5.280  1.2512  2.2376  0.4219
   34DOPE   C36 4349   2.659   4.575   5.395  0.8576 -0.9167 -0.5495
   34DOPE   H6X 4350   2.719   4.655   5.445 -1.1053 -0.2606  0.8751
   34DOPE   H6Y 4351   2.720   4.482   5.386  3.1334  0.5938 -1.8077
   34DOPE   C37 4352   2.547   4.533   5.498 -0.0796 -0.2999  0.2698
   34DOPE   H7X 4353   2.498   4.622   5.544 -1.5657 -1.2380  0.5881
   34DOPE   H7Y 4354   2.475   4.471   5.441 -2.7191  1.3368  1.6285
   34DOPE   C38 4355   2.598   4.459   5.621  0.7833 -0.1701 -0.0641
   34DOPE   H8X 4356   2.667   4.532   5.669  1.1588 -2.0612  2.4433
   34DOPE   H8Y 4357   2.665   4.376   5.591  1.8548 -0.3556  2.5830
   34DOPE   C39 4358   2.494   4.414   5.715 -0.1215 -0.2888  0.3426
   34DOPE   H9X 4359   2.410   4.359   5.672  1.6445 -1.4924 -1.8099
   34DOPE  C310 4360   2.505   4.391   5.844  0.4266 -0.5410  0.5336
   34DOPE  H10X 4361   2.423   4.340   5.896  0.6982 -1.2901  0.2319
   34DOPE  C311 4362   2.623   4.434   5.926 -0.0585 -0.7367  0.1600
   34DOPE  H11X 4363   2.693   4.348   5.918  1.1689  0.3218 -1.0010
   34DOPE  H11Y 4364   2.677   4.522   5.884 -0.7004  1.1838  3.0393
   34DOPE  C312 4365   2.590   4.467   6.070  1.0321 -0.4139 -0.0898
   34DOPE  H12X 4366   2.541   4.384   6.126  0.7390  0.4512  0.9664
   34DOPE  H12Y 4367   2.514   4.546   6.055 -0.5207 -2.1122 -1.7298
   34DOPE  C313 4368   2.703   4.526   6.154 -0.0700  0.6478 -0.4520
   34DOPE  H13X 4369   2.775   4.443   6.170 -0.1676  0.5773 -0.3763
   34DOPE  H13Y 4370   2.749   4.610   6.097 -0.1431  1.0873  0.1314
   34DOPE  C314 4371   2.662   4.576   6.295  0.5479  0.3272  0.0730
   34DOPE  H14X 4372   2.609   4.494   6.348 -1.3439  0.8532 -0.8747
   34DOPE  H14Y 4373   2.582   4.652   6.278 -0.3055 -0.1703  1.6997
   34DOPE  C315 4374   2.784   4.614   6.374  0.2263  0.5112 -0.0259
   34DOPE  H15X 4375   2.841   4.705   6.348 -0.2904  0.6735 -0.6123
   34DOPE  H15Y 4376   2.856   4.530   6.359  1.5174  1.2419  1.7954
   34DOPE  C316 4377   2.740   4.614   6.523  0.3644 -0.1502  0.0372
   34DOPE  H16X 4378   2.720   4.509   6.551  0.4728 -0.0705  0.4347
   34DOPE  H16Y 4379   2.651   4.672   6.555 -0.4048 -1.6763  0.7844
   34DOPE  C317 4380   2.869   4.650   6.599 -0.3536 -0.0289 -0.2651
   34DOPE  H17X 4381   2.948   4.573   6.584 -0.4176 -0.3336  0.8794
   34DOPE  H17Y 4382   2.911   4.747   6.566  1.5208 -0.0064  1.9291
   34DOPE  C318 4383   2.832   4.662   6.757  0.2981  0.2247  0.9732
   34DOPE  H18X 4384   2.764   4.747   6.776 -0.5452 -0.2718  0.2336
   34DOPE  H18Y 4385   2.792   4.565   6.795  1.2796 -0.2783  0.7417
   34DOPE  H18Z 4386   2.922   4.687   6.818 -0.3040  1.8253  1.2613
   35DOPE     N 4387   5.979   4.711   3.160 -0.2721 -0.2657  0.3064
   35DOPE   HN1 4388   6.080   4.727   3.141 -0.0453 -1.2345  0.6641
   35DOPE   HN2 4389   5.946   4.658   3.077  2.0951 -0.8508 -0.3214
   35DOPE   HN3 4390   5.921   4.795   3.183 -1.9595 -1.7676  1.9391
   35DOPE   C12 4391   5.957   4.626   3.277 -0.6455 -1.1301  0.1376
   35DOPE  H12A 4392   5.985   4.525   3.241  3.5323  1.0119 -3.5546
   35DOPE  H12B 4393   5.848   4.639   3.292 -0.4961 -1.1677  1.4123
   35DOPE   C11 4394   6.041   4.668   3.395  0.2344  0.8427  0.7206
   35DOPE  H11A 4395   6.014   4.610   3.486  3.0040 -0.9449  0.5415
   35DOPE  H11B 4396   6.023   4.776   3.412 -1.9539  0.6421  0.0163
   35DOPE     P 4397   6.292   4.714   3.454  0.0799  0.0787 -0.1127
   35DOPE   O13 4398   6.259   4.854   3.476 -0.2592 -0.3411 -0.6302
   35DOPE   O14 4399   6.421   4.676   3.394 -0.0253 -0.8150 -0.3908
   35DOPE   O11 4400   6.277   4.627   3.580  0.2407 -0.2745  0.5358
   35DOPE   O12 4401   6.179   4.654   3.358 -0.2332  0.3896 -0.2821
   35DOPE    C1 4402   6.261   4.685   3.710 -0.1917  0.1884  0.4297
   35DOPE    HA 4403   6.199   4.622   3.778 -0.3306  1.2416  1.2871
   35DOPE    HB 4404   6.198   4.777   3.711 -0.1304  0.2562 -0.7090
   35DOPE    C2 4405   6.397   4.700   3.783 -0.7053  0.1512  0.8258
   35DOPE    HS 4406   6.467   4.764   3.726 -1.3793  0.5684  0.4566
   35DOPE   O21 4407   6.447   4.565   3.797 -0.1899 -0.3476  0.0155
   35DOPE   C21 4408   6.577   4.561   3.832  0.4904 -0.5742 -0.1612
   35DOPE   O22 4409   6.653   4.660   3.842  0.1955  0.6045  0.6416
   35DOPE   C22 4410   6.623   4.421   3.859  0.5892 -0.5341  0.5978
   35DOPE   H2R 4411   6.672   4.387   3.766 -0.5299 -0.9182  0.1310
   35DOPE   H2S 4412   6.537   4.351   3.866  0.6764 -0.8389 -1.0757
   35DOPE    C3 4413   6.381   4.767   3.925  0.3510 -0.1784  0.4740
   35DOPE    HX 4414   6.362   4.876   3.909  2.5355  0.3681  1.1942
   35DOPE    HY 4415   6.484   4.780   3.965  0.5149 -0.6667  0.2118
   35DOPE   O31 4416   6.293   4.698   4.016  0.0784 -0.2003 -0.4420
   35DOPE   C31 4417   6.175   4.749   4.041 -0.4124 -0.1403  0.4092
   35DOPE   O32 4418   6.133   4.848   3.989 -0.4146 -0.0956  0.0294
   35DOPE   C32 4419   6.104   4.644   4.125  0.1803 -0.0131 -0.2818
   35DOPE   H2X 4420   6.006   4.696   4.137  0.1589  0.0883 -0.8442
   35DOPE   H2Y 4421   6.103   4.552   4.063  1.3493  1.8616 -3.3277
   35DOPE   C23 4422   6.714   4.412   3.985  0.3187  0.0154  0.8990
   35DOPE   H3R 4423   6.793   4.489   3.970 -1.5843  1.8857 -0.0568
   35DOPE   H3S 4424   6.755   4.309   3.992  1.9447  0.6045  0.4217
   35DOPE   C24 4425   6.638   4.425   4.125  0.0297  0.1538  0.0170
   35DOPE   H4R 4426   6.551   4.360   4.147 -0.6603  1.5913  1.7925
   35DOPE   H4S 4427   6.604   4.531   4.123 -1.8671 -0.4155 -0.4379
   35DOPE   C25 4428   6.743   4.400   4.232 -0.2880 -0.3994 -0.9848
   35DOPE   H5R 4429   6.834   4.463   4.222 -0.2355 -0.5777 -1.6668
   35DOPE   H5S 4430   6.781   4.296   4.224  0.1722 -0.6451  2.6373
   35DOPE   C26 4431   6.692   4.413   4.375  0.3775 -0.5540 -0.1469
   35DOPE   H6R 4432   6.597   4.361   4.397  0.2248  0.7471  2.6968
   35DOPE   H6S 4433   6.667   4.516   4.409 -1.4743 -1.1234  0.3011
   35DOPE   C27 4434   6.804   4.375   4.472  0.4153 -0.2304  0.0122
   35DOPE   H7R 4435   6.886   4.445   4.445  1.3309 -1.7218 -1.2307
   35DOPE   H7S 4436   6.837   4.273   4.445 -0.1204 -0.0449 -1.4554
   35DOPE   C28 4437   6.771   4.399   4.618  0.1846  0.7456 -0.3658
   35DOPE   H8R 4438   6.851   4.358   4.683 -0.7334 -0.5048  0.0000
   35DOPE   H8S 4439   6.679   4.340   4.637  1.2692 -0.7877  0.2871
   35DOPE   C29 4440   6.742   4.535   4.674 -0.7284 -0.0062 -0.1826
   35DOPE   H9R 4441   6.765   4.620   4.607 -1.6821 -0.0955 -0.6313
   35DOPE  C210 4442   6.693   4.564   4.793  0.5925  0.8534 -0.5886
   35DOPE  H10R 4443   6.670   4.666   4.829 -2.0098  0.5026 -1.0488
   35DOPE  C211 4444   6.634   4.453   4.881 -0.2786 -0.6231  0.1057
   35DOPE  H11R 4445   6.635   4.349   4.842 -0.4974 -1.0358  1.1576
   35DOPE  H11S 4446   6.527   4.478   4.898  0.5006  2.1072  1.7516
   35DOPE  C212 4447   6.707   4.455   5.016 -0.0381 -0.2801  0.6264
   35DOPE  H12R 4448   6.678   4.555   5.056 -0.8874  0.1712 -1.0248
   35DOPE  H12S 4449   6.818   4.452   5.009 -0.0523 -0.0035  0.2281
   35DOPE  C213 4450   6.671   4.337   5.105 -0.3744 -0.4291 -0.3476
   35DOPE  H13R 4451   6.706   4.240   5.062 -1.5768 -0.0567 -2.2777
   35DOPE  H13S 4452   6.560   4.332   5.107 -0.4100  0.3129 -0.1490
   35DOPE  C214 4453   6.736   4.354   5.248  0.0062 -0.1116 -0.2624
   35DOPE  H14R 4454   6.692   4.446   5.292  1.7154 -0.1541  1.7148
   35DOPE  H14S 4455   6.843   4.377   5.231  0.2186 -0.0890  1.0437
   35DOPE  C215 4456   6.731   4.239   5.350 -0.3457  0.7474 -0.5478
   35DOPE  H15R 4457   6.783   4.149   5.311  0.1413  0.0533  1.5711
   35DOPE  H15S 4458   6.625   4.208   5.341 -0.5740  1.2080  0.3570
   35DOPE  C216 4459   6.766   4.267   5.494  0.3469  0.6110  0.6416
   35DOPE  H16R 4460   6.712   4.354   5.537  0.5580  0.7604  0.6091
   35DOPE  H16S 4461   6.871   4.300   5.511 -0.6435  4.0310  0.8248
   35DOPE  C217 4462   6.738   4.145   5.588  0.6539  0.0215 -0.3978
   35DOPE  H17R 4463   6.820   4.071   5.574 -0.9342 -1.4684 -2.3588
   35DOPE  H17S 4464   6.649   4.092   5.548 -1.1680  0.7613  2.3946
   35DOPE  C218 4465   6.723   4.182   5.739  0.3168 -0.2262 -0.0485
   35DOPE  H18R 4466   6.820   4.227   5.768 -1.7445  4.6907  0.2141
   35DOPE  H18S 4467   6.697   4.092   5.799 -0.2733 -1.0467 -1.4787
   35DOPE  H18T 4468   6.647   4.261   5.757  0.4992 -0.1826  0.5433
   35DOPE   C33 4469   6.165   4.617   4.263 -0.3740 -0.4309 -0.6687
   35DOPE   H3X 4470   6.090   4.580   4.335 -0.2512 -0.5574 -0.6053
   35DOPE   H3Y 4471   6.208   4.713   4.299  0.3083 -1.1340  0.4635
   35DOPE   C34 4472   6.286   4.525   4.264  0.0051  0.6832 -0.5865
   35DOPE   H4X 4473   6.255   4.423   4.231  1.9640 -0.0334 -0.3143
   35DOPE   H4Y 4474   6.362   4.532   4.184  1.1512 -2.3727  0.0795
   35DOPE   C35 4475   6.355   4.500   4.408  0.7561  0.1751 -0.1010
   35DOPE   H5X 4476   6.436   4.574   4.421  2.7803 -2.0313  0.4517
   35DOPE   H5Y 4477   6.390   4.395   4.415 -0.9164 -0.4626 -0.7779
   35DOPE   C36 4478   6.263   4.541   4.516  1.0249  0.1517 -0.6970
   35DOPE   H6X 4479   6.167   4.487   4.499  1.1739 -0.6122  0.7492
   35DOPE   H6Y 4480   6.246   4.650   4.531  1.7489  0.0691  0.9168
   35DOPE   C37 4481   6.314   4.488   4.648 -0.5617 -0.2172  0.6959
   35DOPE   H7X 4482   6.361   4.388   4.639 -1.1503 -0.5494  1.2542
   35DOPE   H7Y 4483   6.397   4.552   4.687 -0.7802 -0.2751  1.2646
   35DOPE   C38 4484   6.221   4.495   4.770  0.4528 -0.8511  0.9765
   35DOPE   H8X 4485   6.181   4.598   4.785 -1.1966 -1.6064  2.1195
   35DOPE   H8Y 4486   6.275   4.473   4.865 -1.3617 -0.1756  2.2312
   35DOPE   C39 4487   6.099   4.407   4.748  0.0631 -0.1460  0.0305
   35DOPE   H9X 4488   6.064   4.391   4.645  0.1117  1.3419 -0.2502
   35DOPE  C310 4489   6.011   4.369   4.844 -0.0747  0.4125 -0.6250
   35DOPE  H10X 4490   5.912   4.327   4.820 -0.2918 -0.2285  1.2468
   35DOPE  C311 4491   6.037   4.385   4.995  0.1939 -0.8304  0.2892
   35DOPE  H11X 4492   6.148   4.393   5.004  0.1442  0.2617  0.0747
   35DOPE  H11Y 4493   5.999   4.485   5.023  0.8387 -0.1337 -1.2289
   35DOPE  C312 4494   5.973   4.279   5.084 -0.3603 -0.5825 -0.5798
   35DOPE  H12X 4495   6.024   4.184   5.057  0.7117 -0.4000  0.7210
   35DOPE  H12Y 4496   5.865   4.276   5.060 -0.1560 -0.8203 -1.5302
   35DOPE  C313 4497   6.000   4.290   5.238  0.7803 -0.0603  0.3721
   35DOPE  H13X 4498   6.109   4.305   5.253  1.0347 -0.0597 -1.3154
   35DOPE  H13Y 4499   5.954   4.382   5.279  0.2572  0.6202 -1.6366
   35DOPE  C314 4500   5.953   4.169   5.316 -0.0236 -0.0204 -0.2694
   35DOPE  H14X 4501   6.016   4.079   5.297 -0.6881 -0.3818 -0.8081
   35DOPE  H14Y 4502   5.851   4.136   5.286  1.0657 -1.4082 -2.7583
   35DOPE  C315 4503   5.961   4.206   5.471  0.1903 -0.5088  0.6388
   35DOPE  H15X 4504   5.902   4.300   5.473  3.4393  1.7861 -0.6290
   35DOPE  H15Y 4505   6.066   4.227   5.503 -0.1879 -0.5006  1.8982
   35DOPE  C316 4506   5.903   4.093   5.562  0.5531  0.3775 -0.9145
   35DOPE  H16X 4507   5.959   3.999   5.546 -0.6732 -0.7723  1.2052
   35DOPE  H16Y 4508   5.796   4.074   5.536  0.7927 -0.3110 -1.4066
   35DOPE  C317 4509   5.896   4.126   5.711  0.2089  1.2325  0.1603
   35DOPE  H17X 4510   5.993   4.126   5.764  1.6028 -1.6702 -2.0913
   35DOPE  H17Y 4511   5.848   4.226   5.714 -0.5716  0.8934 -0.4315
   35DOPE  C318 4512   5.819   4.013   5.775 -0.2188  0.4832  0.7921
   35DOPE  H18X 4513   5.713   4.016   5.743  0.2943  0.7641 -1.0030
   35DOPE  H18Y 4514   5.855   3.911   5.752  0.3823  0.9534 -0.4168
   35DOPE  H18Z 4515   5.828   4.025   5.885  1.6170 -0.5035  0.7867
   36DOPE     N 4516   0.316   5.534   3.576  0.2585  0.1010  0.3231
   36DOPE   HN1 4517   0.402   5.484   3.604  0.4342  0.5220  0.5391
   36DOPE   HN2 4518   0.238   5.467   3.559 -1.4020  2.0538 -0.2766
   36DOPE   HN3 4519   0.328   5.589   3.489 -0.4929 -0.8139 -0.3850
   36DOPE   C12 4520   0.258   5.607   3.691  0.1205 -0.4517 -0.4040
   36DOPE  H12A 4521   0.337   5.679   3.720 -0.1777  0.4898 -1.7995
   36DOPE  H12B 4522   0.239   5.539   3.777  1.0800  0.1621  0.3126
   36DOPE   C11 4523   0.128   5.684   3.654  0.2460 -0.5314  0.0249
   36DOPE  H11A 4524   0.111   5.763   3.730  1.3225  0.8809 -1.1441
   36DOPE  H11B 4525   0.042   5.614   3.648 -1.3791  1.4629 -2.1512
   36DOPE     P 4526   0.030   5.802   3.448 -0.1028  0.1849 -0.2318
   36DOPE   O13 4527   0.028   5.739   3.313  0.1016  0.4866 -0.4439
   36DOPE   O14 4528   0.046   5.950   3.444 -0.3276 -0.3707  0.0872
   36DOPE   O11 4529  -0.087   5.752   3.538  0.0584 -0.1250  0.3016
   36DOPE   O12 4530   0.153   5.750   3.528  0.4482 -1.1592  0.6565
   36DOPE    C1 4531  -0.199   5.829   3.572 -0.4397 -0.1415 -0.2930
   36DOPE    HA 4532  -0.282   5.757   3.555 -1.7291  0.7835  1.5860
   36DOPE    HB 4533  -0.207   5.921   3.510  1.1156 -0.2604 -0.7064
   36DOPE    C2 4534  -0.199   5.862   3.729  0.2562  0.1299 -0.3135
   36DOPE    HS 4535  -0.288   5.919   3.761  0.1531 -1.0361  1.6252
   36DOPE   O21 4536  -0.082   5.939   3.768 -0.7520 -0.5821  0.2108
   36DOPE   C21 4537  -0.088   6.064   3.738  0.1657  0.0719 -0.5578
   36DOPE   O22 4538  -0.179   6.125   3.690  0.5734 -0.0676  0.1231
   36DOPE   C22 4539   0.027   6.132   3.807 -0.3636  0.4064  0.1139
   36DOPE   H2R 4540   0.005   6.240   3.793 -3.4032 -0.1824 -0.3149
   36DOPE   H2S 4541   0.113   6.108   3.741 -0.1033  1.4689  0.0510
   36DOPE    C3 4542  -0.216   5.735   3.823  0.4260  0.4147 -0.3308
   36DOPE    HX 4543  -0.145   5.650   3.814  0.4574  0.2390  1.2086
   36DOPE    HY 4544  -0.314   5.688   3.798  0.9028 -1.6324  1.3124
   36DOPE   O31 4545  -0.236   5.768   3.968  0.1516  0.0870  0.3324
   36DOPE   C31 4546  -0.128   5.757   4.049 -0.1399  0.7137  0.3229
   36DOPE   O32 4547  -0.015   5.734   4.008  0.2694  0.2610  0.2847
   36DOPE   C32 4548  -0.171   5.774   4.194 -0.1184  0.1950  0.7446
   36DOPE   H2X 4549  -0.074   5.786   4.248  0.0519 -3.4932  1.5178
   36DOPE   H2Y 4550  -0.245   5.856   4.207 -0.5812 -0.3774  1.8579
   36DOPE   C23 4551   0.053   6.098   3.955 -0.0843 -0.4179 -0.6215
   36DOPE   H3R 4552   0.148   6.147   3.984  1.6215 -2.2739 -2.7242
   36DOPE   H3S 4553   0.068   5.988   3.967 -1.8395 -0.8483 -1.8557
   36DOPE   C24 4554  -0.054   6.140   4.056 -0.2637  0.5272 -0.0779
   36DOPE   H4R 4555  -0.151   6.089   4.037 -0.6198  1.2982 -0.3574
   36DOPE   H4S 4556  -0.064   6.250   4.044  1.1173  0.5642 -1.0577
   36DOPE   C25 4557  -0.012   6.096   4.201 -0.4499  0.0109 -0.7538
   36DOPE   H5R 4558   0.081   6.155   4.209  1.5831 -2.9642 -1.0163
   36DOPE   H5S 4559   0.008   5.987   4.193 -0.8218  0.0183 -2.1646
   36DOPE   C26 4560  -0.115   6.136   4.303 -0.4896 -0.0278  0.5142
   36DOPE   H6R 4561  -0.204   6.072   4.285  0.2058 -0.7995 -0.2990
   36DOPE   H6S 4562  -0.156   6.237   4.280 -0.6220 -0.2474 -0.2553
   36DOPE   C27 4563  -0.060   6.119   4.444  0.7691  0.7464  0.5132
   36DOPE   H7R 4564   0.003   6.204   4.478  3.0574 -1.3808  1.9689
   36DOPE   H7S 4565  -0.006   6.022   4.448 -0.8012 -0.1547  1.1346
   36DOPE   C28 4566  -0.168   6.118   4.552  0.7034 -0.2902  0.1856
   36DOPE   H8R 4567  -0.113   6.095   4.646  1.5471 -1.9548 -0.6719
   36DOPE   H8S 4568  -0.236   6.031   4.552  1.6166 -1.0253 -0.1674
   36DOPE   C29 4569  -0.241   6.249   4.554  0.9671 -0.7096  0.1022
   36DOPE   H9R 4570  -0.315   6.250   4.472  1.1269 -1.6145 -0.0590
   36DOPE  C210 4571  -0.224   6.362   4.623  0.5435  0.9108 -0.7467
   36DOPE  H10R 4572  -0.284   6.451   4.597 -1.0057 -0.0388 -0.4977
   36DOPE  C211 4573  -0.114   6.392   4.723 -0.3203 -1.1554  0.5326
   36DOPE  H11R 4574  -0.047   6.467   4.676 -0.3194 -2.7228 -2.1836
   36DOPE  H11S 4575  -0.041   6.310   4.740  0.3118 -0.7173 -0.0240
   36DOPE  C212 4576  -0.169   6.461   4.857 -0.2966 -0.1099  0.4401
   36DOPE  H12R 4577  -0.239   6.391   4.907 -2.1719  0.7451 -0.8437
   36DOPE  H12S 4578  -0.213   6.560   4.833 -0.7682 -0.5877 -0.7289
   36DOPE  C213 4579  -0.057   6.475   4.959 -0.0987  0.3573  0.3416
   36DOPE  H13R 4580   0.017   6.394   4.970  0.6878  1.0062 -0.0767
   36DOPE  H13S 4581  -0.106   6.477   5.058  0.6153 -1.6803  0.7636
   36DOPE  C214 4582   0.033   6.606   4.957 -0.3086 -0.1673  0.4724
   36DOPE  H14R 4583  -0.035   6.694   4.962  1.2672  1.3538 -2.2778
   36DOPE  H14S 4584   0.077   6.618   4.856 -1.4305 -1.4133 -0.1924
   36DOPE  C215 4585   0.152   6.620   5.060  0.0080  0.4843 -0.1537
   36DOPE  H15R 4586   0.216   6.704   5.023  2.4946 -1.9505 -1.7530
   36DOPE  H15S 4587   0.222   6.534   5.056  2.0536  2.0999 -1.9059
   36DOPE  C216 4588   0.105   6.651   5.198 -0.4251  0.6564 -0.3817
   36DOPE  H16R 4589   0.052   6.565   5.245  1.1657  0.3844  1.0060
   36DOPE  H16S 4590   0.030   6.733   5.194 -1.4668 -0.2731 -0.4865
   36DOPE  C217 4591   0.216   6.674   5.306 -0.1154  0.1841  0.0149
   36DOPE  H17R 4592   0.280   6.761   5.281  1.2290 -0.3699  1.3802
   36DOPE  H17S 4593   0.279   6.583   5.317  0.1151  0.5236  1.7654
   36DOPE  C218 4594   0.162   6.699   5.446 -0.2525  0.5301  0.0446
   36DOPE  H18R 4595   0.114   6.604   5.480 -1.2526  1.5669  1.6408
   36DOPE  H18S 4596   0.099   6.790   5.444  0.9447  1.3651 -1.3502
   36DOPE  H18T 4597   0.245   6.718   5.518  3.1363  0.3368 -3.4850
   36DOPE   C33 4598  -0.218   5.642   4.250  0.0044  0.1525 -0.0260
   36DOPE   H3X 4599  -0.148   5.567   4.209  0.0828  1.7866 -3.2282
   36DOPE   H3Y 4600  -0.323   5.625   4.219  0.3717 -0.4832 -0.9288
   36DOPE   C34 4601  -0.204   5.622   4.402  0.0304 -0.2278 -0.3482
   36DOPE   H4X 4602  -0.100   5.652   4.424 -0.0384 -1.7127  2.5215
   36DOPE   H4Y 4603  -0.266   5.690   4.464  0.5304  0.4093 -0.5363
   36DOPE   C35 4604  -0.202   5.478   4.457  0.2299  0.2253 -0.4080
   36DOPE   H5X 4605  -0.165   5.489   4.561 -1.5122 -1.3461  0.4471
   36DOPE   H5Y 4606  -0.135   5.414   4.396  0.6136  2.3749 -2.3876
   36DOPE   C36 4607  -0.345   5.425   4.449 -0.5523  0.2061 -0.3333
   36DOPE   H6X 4608  -0.340   5.318   4.480  1.3858  0.8423  1.8797
   36DOPE   H6Y 4609  -0.387   5.424   4.346  0.9105 -1.8549 -0.9906
   36DOPE   C37 4610  -0.447   5.495   4.538  0.7305  0.5233 -0.0743
   36DOPE   H7X 4611  -0.409   5.479   4.641 -1.0850 -1.0294  0.4194
   36DOPE   H7Y 4612  -0.443   5.606   4.527 -0.2001  0.7242  1.3001
   36DOPE   C38 4613  -0.591   5.452   4.515  0.4916  0.4881  0.2407
   36DOPE   H8X 4614  -0.599   5.470   4.406 -2.1985 -0.2963  0.2368
   36DOPE   H8Y 4615  -0.662   5.520   4.565  2.1022  2.6784 -0.3295
   36DOPE   C39 4616  -0.620   5.307   4.534 -0.1070  0.3220 -0.1352
   36DOPE   H9X 4617  -0.553   5.227   4.498 -1.2655 -2.0600  2.5979
   36DOPE  C310 4618  -0.726   5.262   4.600 -0.5346  0.2192 -0.3565
   36DOPE  H10X 4619  -0.738   5.152   4.609 -3.9814  0.4541 -0.4157
   36DOPE  C311 4620  -0.826   5.342   4.681  0.4742 -0.1339  0.0345
   36DOPE  H11X 4621  -0.817   5.452   4.672 -2.4830  0.1908  0.1399
   36DOPE  H11Y 4622  -0.931   5.333   4.645  0.3456 -2.8881  0.9002
   36DOPE  C312 4623  -0.825   5.296   4.828  0.7336 -0.1450 -0.1213
   36DOPE  H12X 4624  -0.846   5.188   4.842  0.4997  0.1174  1.6606
   36DOPE  H12Y 4625  -0.908   5.354   4.873  2.3295  2.7760 -0.7049
   36DOPE  C313 4626  -0.696   5.319   4.909  0.3853 -0.0270  0.1537
   36DOPE  H13X 4627  -0.713   5.279   5.012 -1.0031 -1.1957 -0.4921
   36DOPE  H13Y 4628  -0.608   5.265   4.869  1.1459  1.8516 -0.8558
   36DOPE  C314 4629  -0.648   5.467   4.912  0.3056 -0.5917 -0.8771
   36DOPE  H14X 4630  -0.734   5.531   4.941  0.5603 -0.4687 -0.3852
   36DOPE  H14Y 4631  -0.604   5.499   4.816  0.3339  0.1230 -0.6279
   36DOPE  C315 4632  -0.547   5.479   5.031 -0.2519 -0.0273  0.2295
   36DOPE  H15X 4633  -0.459   5.417   5.004 -0.3504 -0.2344  0.3770
   36DOPE  H15Y 4634  -0.592   5.433   5.122 -0.7127 -0.3243 -0.1390
   36DOPE  C316 4635  -0.510   5.626   5.063 -0.2605 -0.1400 -0.5008
   36DOPE  H16X 4636  -0.603   5.687   5.069  1.2795  2.1818  1.4428
   36DOPE  H16Y 4637  -0.431   5.655   4.990  0.0015  0.0035 -0.1599
   36DOPE  C317 4638  -0.451   5.632   5.210  0.4501 -0.2595  0.4775
   36DOPE  H17X 4639  -0.528   5.594   5.280 -0.2213 -1.2219 -0.7484
   36DOPE  H17Y 4640  -0.368   5.558   5.211  1.2678  0.5552 -1.6380
   36DOPE  C318 4641  -0.408   5.769   5.258  0.9471 -0.3889 -0.8124
   36DOPE  H18X 4642  -0.386   5.763   5.366 -0.1911 -0.5993 -0.5828
   36DOPE  H18Y 4643  -0.311   5.796   5.211  1.6193 -0.3644  0.5446
   36DOPE  H18Z 4644  -0.485   5.847   5.238 -1.0392 -1.0441  3.2590
   37DOPE     N 4645   3.095   3.087   4.007  0.1063  0.5323 -0.5959
   37DOPE   HN1 4646   3.189   3.131   4.020 -0.9719  2.5237  1.1429
   37DOPE   HN2 4647   3.087   2.985   4.027 -2.3496  1.1129  2.0297
   37DOPE   HN3 4648   3.078   3.106   3.907  2.8833  0.5893 -1.1548
   37DOPE   C12 4649   2.996   3.164   4.099 -0.0007 -0.2529  0.0406
   37DOPE  H12A 4650   2.900   3.108   4.107  0.7358 -1.4508  1.0066
   37DOPE  H12B 4651   2.977   3.269   4.068 -0.2553  0.0131  1.0592
   37DOPE   C11 4652   3.053   3.170   4.242 -0.0400 -0.0528 -0.5006
   37DOPE  H11A 4653   3.070   3.064   4.271 -0.1367 -0.8388 -3.0722
   37DOPE  H11B 4654   2.982   3.218   4.313  0.5865  1.3068 -0.7647
   37DOPE     P 4655   3.201   3.360   4.338 -0.0812 -0.5609  0.1129
   37DOPE   O13 4656   3.123   3.471   4.278 -0.5486 -0.7506 -0.5179
   37DOPE   O14 4657   3.345   3.383   4.355 -0.2641 -0.6342  0.3335
   37DOPE   O11 4658   3.140   3.306   4.472 -0.6097 -0.5071 -0.5230
   37DOPE   O12 4659   3.184   3.229   4.243 -0.1760  0.4814 -0.1576
   37DOPE    C1 4660   3.166   3.181   4.529 -0.4577  0.3233 -0.6605
   37DOPE    HA 4661   3.258   3.128   4.494 -0.8668 -1.5727  0.9352
   37DOPE    HB 4662   3.083   3.111   4.507 -0.7078 -0.1348  1.4646
   37DOPE    C2 4663   3.183   3.184   4.684 -0.2727 -0.3473  0.7233
   37DOPE    HS 4664   3.230   3.090   4.720  0.5460  0.1599  1.0023
   37DOPE   O21 4665   3.049   3.182   4.738  0.0237 -0.8483 -0.3549
   37DOPE   C21 4666   3.042   3.149   4.867 -0.1699  0.6030 -1.0075
   37DOPE   O22 4667   3.140   3.134   4.939 -0.0884 -0.1560 -0.0360
   37DOPE   C22 4668   2.888   3.143   4.908  0.2310  0.4686  0.6786
   37DOPE   H2R 4669   2.850   3.053   4.854 -1.6550  2.4254 -1.4998
   37DOPE   H2S 4670   2.836   3.238   4.885  2.6070  1.9803  1.3101
   37DOPE    C3 4671   3.260   3.311   4.722 -0.0215 -0.4527 -0.1383
   37DOPE    HX 4672   3.190   3.397   4.726  3.4429  2.5595  0.6076
   37DOPE    HY 4673   3.320   3.342   4.634 -1.8781 -1.3980 -1.8310
   37DOPE   O31 4674   3.331   3.302   4.847 -0.2439 -0.3515  0.2224
   37DOPE   C31 4675   3.452   3.257   4.844  0.2349  0.6996  0.8452
   37DOPE   O32 4676   3.520   3.222   4.747 -0.0400  0.2174 -0.1720
   37DOPE   C32 4677   3.513   3.272   4.985 -0.1194 -0.6244 -0.3334
   37DOPE   H2X 4678   3.587   3.188   4.988  1.8861  1.0559 -0.2437
   37DOPE   H2Y 4679   3.581   3.360   4.983  0.9348 -1.4065 -0.2430
   37DOPE   C23 4680   2.858   3.112   5.055  0.2914  0.1556 -0.7982
   37DOPE   H3R 4681   2.919   3.027   5.091  1.2143  1.2903  0.4119
   37DOPE   H3S 4682   2.749   3.088   5.055  0.2202  0.4622 -1.2630
   37DOPE   C24 4683   2.897   3.223   5.150 -0.8031  0.3774  0.1123
   37DOPE   H4R 4684   2.855   3.322   5.120 -1.3648 -0.4899 -2.1203
   37DOPE   H4S 4685   3.007   3.237   5.137 -0.5399 -2.2357 -1.0986
   37DOPE   C25 4686   2.873   3.197   5.297 -0.0999  0.6261 -0.2509
   37DOPE   H5R 4687   2.915   3.098   5.321 -0.5990  0.3328 -0.5608
   37DOPE   H5S 4688   2.765   3.173   5.311  0.0843 -0.4537 -0.5713
   37DOPE   C26 4689   2.940   3.300   5.389  0.4639  0.5801  0.2282
   37DOPE   H6R 4690   2.908   3.404   5.365  1.3460  0.9279  0.5202
   37DOPE   H6S 4691   3.051   3.302   5.388  0.4616  1.8668  0.6389
   37DOPE   C27 4692   2.907   3.259   5.542 -0.4841 -0.2354  0.3614
   37DOPE   H7R 4693   2.943   3.155   5.556 -3.0361 -1.4363 -1.1787
   37DOPE   H7S 4694   2.797   3.265   5.560 -0.3488 -1.9295  2.0807
   37DOPE   C28 4695   2.993   3.362   5.631 -0.7197  0.4303  0.3030
   37DOPE   H8R 4696   2.966   3.469   5.617  0.5426  0.6595 -0.6205
   37DOPE   H8S 4697   3.099   3.343   5.600 -0.0637  1.1514  1.9974
   37DOPE   C29 4698   2.976   3.316   5.774 -0.0015 -0.0434  0.7075
   37DOPE   H9R 4699   3.053   3.240   5.794  0.1344  0.0581  0.5654
   37DOPE  C210 4700   2.900   3.369   5.869 -0.1151  0.5309 -0.1656
   37DOPE  H10R 4701   2.898   3.311   5.963 -0.0169  1.5207  0.4604
   37DOPE  C211 4702   2.798   3.480   5.860  0.5747  0.4587 -0.1245
   37DOPE  H11R 4703   2.818   3.536   5.766 -1.8187 -1.0245 -1.6262
   37DOPE  H11S 4704   2.816   3.544   5.948  0.8396 -0.5378  0.5718
   37DOPE  C212 4705   2.649   3.429   5.852  0.6604 -0.2622  0.3889
   37DOPE  H12R 4706   2.585   3.519   5.863 -1.0003 -1.1518 -1.3795
   37DOPE  H12S 4707   2.637   3.354   5.933 -0.5898 -0.2266  0.2611
   37DOPE  C213 4708   2.614   3.365   5.717  0.4573 -0.5452  0.4541
   37DOPE  H13R 4709   2.664   3.266   5.713 -0.9991 -1.3223  0.7115
   37DOPE  H13S 4710   2.658   3.425   5.635  0.2950 -0.2447  0.5863
   37DOPE  C214 4711   2.462   3.362   5.690 -0.6743  0.4966 -0.0953
   37DOPE  H14R 4712   2.437   3.342   5.584 -1.4161  0.6362  0.0493
   37DOPE  H14S 4713   2.418   3.459   5.722  0.3400  0.7801  0.5144
   37DOPE  C215 4714   2.395   3.253   5.765 -0.1487  0.0762 -0.3183
   37DOPE  H15R 4715   2.438   3.241   5.866  0.6113 -0.5413 -0.7033
   37DOPE  H15S 4716   2.429   3.162   5.711  0.3664  0.1981 -0.2036
   37DOPE  C216 4717   2.239   3.274   5.759  0.6012  0.6012  0.7610
   37DOPE  H16R 4718   2.220   3.282   5.650  0.6487  1.8855  0.8342
   37DOPE  H16S 4719   2.202   3.369   5.803 -2.0888 -0.5919  1.2589
   37DOPE  C217 4720   2.164   3.154   5.818  0.3539 -0.0171  0.7379
   37DOPE  H17R 4721   2.202   3.067   5.761 -1.0701  0.6849 -1.3929
   37DOPE  H17S 4722   2.057   3.159   5.789  0.2244  0.6011  1.2817
   37DOPE  C218 4723   2.183   3.133   5.971  0.1494  0.4196 -0.3796
   37DOPE  H18R 4724   2.286   3.130   6.011  0.1065 -1.4258 -0.3301
   37DOPE  H18S 4725   2.133   3.038   5.999  1.9940 -0.7912 -0.9995
   37DOPE  H18T 4726   2.128   3.216   6.021 -1.7350 -1.4951  0.8914
   37DOPE   C33 4727   3.424   3.289   5.108 -0.2205 -0.3014  0.6370
   37DOPE   H3X 4728   3.327   3.338   5.083  1.0002  0.7681 -2.5150
   37DOPE   H3Y 4729   3.475   3.359   5.178 -0.9797  2.5484 -1.4730
   37DOPE   C34 4730   3.399   3.153   5.177  0.3959  0.1530  0.5191
   37DOPE   H4X 4731   3.339   3.084   5.114  1.0924 -1.1096  1.2041
   37DOPE   H4Y 4732   3.497   3.109   5.207  1.2945  2.4845  1.1897
   37DOPE   C35 4733   3.329   3.176   5.306 -0.2508 -0.2721  0.3265
   37DOPE   H5X 4734   3.227   3.217   5.290  0.6411  1.4726 -1.3219
   37DOPE   H5Y 4735   3.384   3.247   5.371  0.1149 -3.6760  4.1120
   37DOPE   C36 4736   3.326   3.050   5.399  0.3138  0.2480  0.3605
   37DOPE   H6X 4737   3.433   3.021   5.404  0.0302 -0.5246  2.8139
   37DOPE   H6Y 4738   3.264   2.970   5.353  0.6416  1.4067 -2.3508
   37DOPE   C37 4739   3.268   3.084   5.544  0.1247  0.2747 -0.0455
   37DOPE   H7X 4740   3.335   3.160   5.589  0.9688 -0.3267 -0.2599
   37DOPE   H7Y 4741   3.170   3.137   5.544  0.0041  0.0576 -0.1346
   37DOPE   C38 4742   3.260   2.956   5.625  0.9721  0.6189  0.0933
   37DOPE   H8X 4743   3.360   2.913   5.644  0.4737  0.1148  1.6741
   37DOPE   H8Y 4744   3.196   2.888   5.564  0.0798  0.3267  1.3116
   37DOPE   C39 4745   3.184   2.985   5.751 -0.7809 -1.0914 -0.2866
   37DOPE   H9X 4746   3.093   3.042   5.728  0.2672  1.2924  1.0260
   37DOPE  C310 4747   3.211   2.945   5.878  0.5388  0.2729 -0.3803
   37DOPE  H10X 4748   3.141   2.976   5.956 -1.6372 -1.8667 -1.3437
   37DOPE  C311 4749   3.329   2.876   5.936 -0.0460 -0.5378 -0.6084
   37DOPE  H11X 4750   3.313   2.766   5.947 -2.1544 -0.1901  0.4858
   37DOPE  H11Y 4751   3.423   2.896   5.883  1.6983  1.4439  2.8781
   37DOPE  C312 4752   3.352   2.942   6.072 -0.4225 -0.2106 -0.0729
   37DOPE  H12X 4753   3.260   2.973   6.126  0.2712 -0.2265  1.1671
   37DOPE  H12Y 4754   3.402   3.040   6.063 -2.4229  0.8497 -0.2599
   37DOPE  C313 4755   3.425   2.843   6.165 -0.2717  0.0490 -0.3972
   37DOPE  H13X 4756   3.380   2.742   6.163 -0.3349  0.0821 -0.6528
   37DOPE  H13Y 4757   3.526   2.846   6.119  0.5679 -0.3218  1.3082
   37DOPE  C314 4758   3.444   2.888   6.309  0.6172 -0.1681  0.0620
   37DOPE  H14X 4759   3.350   2.863   6.363  0.9033 -0.0043  0.6365
   37DOPE  H14Y 4760   3.452   2.999   6.302  0.0342  0.2112  3.7531
   37DOPE  C315 4761   3.554   2.825   6.392 -0.2272  0.2627 -0.3553
   37DOPE  H15X 4762   3.532   2.717   6.386 -1.3501  0.4080  0.7128
   37DOPE  H15Y 4763   3.540   2.858   6.497 -1.3968 -2.5770  0.4680
   37DOPE  C316 4764   3.696   2.873   6.349 -0.6251 -0.4068 -0.3455
   37DOPE  H16X 4765   3.706   2.981   6.324  2.2057 -0.5594 -0.1896
   37DOPE  H16Y 4766   3.714   2.820   6.253  2.1487 -1.3246  0.6042
   37DOPE  C317 4767   3.803   2.832   6.448 -0.5027 -0.0977  0.0477
   37DOPE  H17X 4768   3.788   2.869   6.552  4.0945 -0.0566  0.8980
   37DOPE  H17Y 4769   3.809   2.721   6.457  0.2333  0.1025  3.0159
   37DOPE  C318 4770   3.944   2.885   6.411  0.2492  0.2404 -0.3117
   37DOPE  H18X 4771   3.943   2.983   6.360  1.7558 -0.3815 -1.6299
   37DOPE  H18Y 4772   4.005   2.896   6.504 -1.8282 -0.8123  1.2697
   37DOPE  H18Z 4773   3.995   2.822   6.335 -0.1620 -1.0000  0.4118
   38DOPE     N 4774   6.477   5.218   3.375  0.6710  0.1547  0.0191
   38DOPE   HN1 4775   6.420   5.193   3.292  0.7135 -1.8015  0.5466
   38DOPE   HN2 4776   6.574   5.186   3.354  0.6872  1.7557 -3.0735
   38DOPE   HN3 4777   6.439   5.178   3.463 -0.3294 -0.6463 -0.7594
   38DOPE   C12 4778   6.485   5.373   3.386  0.0581  0.1878 -0.0597
   38DOPE  H12A 4779   6.380   5.409   3.390  0.8601  2.5956  3.1292
   38DOPE  H12B 4780   6.527   5.414   3.291 -1.7115  0.6976 -0.6736
   38DOPE   C11 4781   6.558   5.423   3.509 -0.2187  0.2786  0.1832
   38DOPE  H11A 4782   6.509   5.400   3.606 -0.1751 -2.6864 -0.4028
   38DOPE  H11B 4783   6.545   5.533   3.505 -2.9342  0.0444  0.1850
   38DOPE     P 4784   6.777   5.321   3.607  0.5825 -0.0209 -0.6459
   38DOPE   O13 4785   6.920   5.349   3.577  0.2131  0.3653  0.1867
   38DOPE   O14 4786   6.741   5.175   3.623  0.8093  0.3800  0.0841
   38DOPE   O11 4787   6.739   5.399   3.747 -0.1811  0.3309 -0.0868
   38DOPE   O12 4788   6.690   5.378   3.497 -0.1760  0.1155 -0.5354
   38DOPE    C1 4789   6.640   5.358   3.838 -0.4332  0.2734  0.1957
   38DOPE    HA 4790   6.556   5.306   3.787 -2.6107  1.7214  2.0800
   38DOPE    HB 4791   6.588   5.448   3.876 -2.0670 -0.6710  0.2990
   38DOPE    C2 4792   6.702   5.275   3.951  0.5159  0.2506 -0.0641
   38DOPE    HS 4793   6.727   5.174   3.911 -0.5973 -0.4696  0.9861
   38DOPE   O21 4794   6.605   5.248   4.060  0.3301 -0.2186  0.0861
   38DOPE   C21 4795   6.554   5.129   4.079  0.7289  0.1776 -0.5123
   38DOPE   O22 4796   6.550   5.045   3.994 -0.9286 -0.3028 -0.1248
   38DOPE   C22 4797   6.480   5.122   4.212 -0.0229  0.0037 -0.3703
   38DOPE   H2R 4798   6.404   5.203   4.211 -1.7614 -1.5191  0.8412
   38DOPE   H2S 4799   6.547   5.139   4.299 -2.7736 -1.6065  2.2611
   38DOPE    C3 4800   6.823   5.344   4.019 -0.1950  0.6851  0.1077
   38DOPE    HX 4801   6.796   5.451   4.033 -1.5613  0.3734  0.0748
   38DOPE    HY 4802   6.914   5.338   3.956 -0.5694 -2.1016 -0.3369
   38DOPE   O31 4803   6.863   5.287   4.147 -0.0426 -0.0787 -0.7553
   38DOPE   C31 4804   6.915   5.372   4.235 -0.4584  0.2327  0.1062
   38DOPE   O32 4805   6.941   5.488   4.213  0.4575 -0.6493  0.0341
   38DOPE   C32 4806   6.924   5.300   4.373  0.1314  0.0546  0.0554
   38DOPE   H2X 4807   6.828   5.243   4.377  1.7758 -2.8923  0.1700
   38DOPE   H2Y 4808   7.004   5.222   4.370 -0.8838 -0.9992 -0.9578
   38DOPE   C23 4809   6.396   4.992   4.240 -0.1507  0.4546  0.2929
   38DOPE   H3R 4810   6.470   4.910   4.223  0.5984  1.3583 -0.9223
   38DOPE   H3S 4811   6.317   4.963   4.168  1.5503 -0.6126 -1.2315
   38DOPE   C24 4812   6.325   4.986   4.375 -0.1195  0.3276  0.1249
   38DOPE   H4R 4813   6.269   4.890   4.368 -0.5499  0.6371 -0.9098
   38DOPE   H4S 4814   6.254   5.071   4.379  0.3003  0.7618 -1.1899
   38DOPE   C25 4815   6.418   4.990   4.497  0.1814  0.7239  0.0515
   38DOPE   H5R 4816   6.488   5.077   4.500  0.2458  0.7094 -0.7300
   38DOPE   H5S 4817   6.482   4.900   4.484  2.6507  2.2345  0.9814
   38DOPE   C26 4818   6.339   4.972   4.628  0.4867 -0.3962 -0.4834
   38DOPE   H6R 4819   6.271   4.884   4.627 -0.0785 -0.0149  0.9610
   38DOPE   H6S 4820   6.283   5.068   4.633  1.5155  0.2187 -0.5147
   38DOPE   C27 4821   6.426   4.956   4.753 -0.8362  0.7505 -0.2856
   38DOPE   H7R 4822   6.515   5.022   4.749  0.3290 -0.7868 -1.9315
   38DOPE   H7S 4823   6.460   4.850   4.759 -0.3670  0.9972  2.8897
   38DOPE   C28 4824   6.348   4.990   4.882 -0.1956 -0.4526 -0.0656
   38DOPE   H8R 4825   6.255   4.929   4.877 -0.6387  0.3064 -1.4443
   38DOPE   H8S 4826   6.315   5.096   4.887  1.6367  0.1231  0.5643
   38DOPE   C29 4827   6.417   4.954   5.009 -0.0709  0.0348 -0.5557
   38DOPE   H9R 4828   6.489   5.026   5.050  0.4017 -0.6035 -0.2474
   38DOPE  C210 4829   6.410   4.837   5.076 -0.4135 -0.2108  0.2698
   38DOPE  H10R 4830   6.464   4.823   5.171 -1.2727  1.7160  1.0968
   38DOPE  C211 4831   6.318   4.728   5.043 -0.5683  0.8134  0.0172
   38DOPE  H11R 4832   6.359   4.660   4.966 -1.1960  1.2483 -0.7207
   38DOPE  H11S 4833   6.217   4.765   5.013 -1.1661 -1.9029 -1.5824
   38DOPE  C212 4834   6.326   4.631   5.164 -0.5248 -0.5115 -0.3140
   38DOPE  H12R 4835   6.429   4.590   5.173 -0.5884 -0.3579  1.4340
   38DOPE  H12S 4836   6.263   4.545   5.135 -1.7399  0.3895 -0.3872
   38DOPE  C213 4837   6.272   4.681   5.299  0.2970 -0.6376 -0.2102
   38DOPE  H13R 4838   6.167   4.716   5.289  0.0629 -0.4502  2.3247
   38DOPE  H13S 4839   6.328   4.765   5.343 -0.0700  0.2123 -1.3338
   38DOPE  C214 4840   6.248   4.570   5.405  0.1503  0.4575  0.4209
   38DOPE  H14R 4841   6.235   4.482   5.339 -1.0448  1.5020 -0.8125
   38DOPE  H14S 4842   6.163   4.584   5.475 -3.4505 -0.2913 -3.3662
   38DOPE  C215 4843   6.368   4.535   5.484 -0.8104  0.0122 -1.0265
   38DOPE  H15R 4844   6.396   4.631   5.532 -1.4430 -0.2273 -0.1569
   38DOPE  H15S 4845   6.456   4.509   5.421 -1.6776 -0.6531 -2.0024
   38DOPE  C216 4846   6.369   4.417   5.582 -0.2315  0.3490  0.6170
   38DOPE  H16R 4847   6.474   4.392   5.610  0.0485  0.1606 -0.5706
   38DOPE  H16S 4848   6.324   4.330   5.531  0.7177  0.0994  0.1818
   38DOPE  C217 4849   6.283   4.447   5.719 -0.3976 -0.5508  0.3042
   38DOPE  H17R 4850   6.179   4.474   5.690 -0.7786  0.2222  2.2593
   38DOPE  H17S 4851   6.328   4.533   5.772 -0.3469  0.0041 -0.6203
   38DOPE  C218 4852   6.302   4.327   5.806  0.0901 -0.3249  0.1501
   38DOPE  H18R 4853   6.221   4.253   5.787  1.1174 -1.9209  1.8025
   38DOPE  H18S 4854   6.288   4.365   5.909 -0.9619  0.5484 -0.2878
   38DOPE  H18T 4855   6.405   4.292   5.784  0.3710  1.2717 -1.2800
   38DOPE   C33 4856   6.940   5.402   4.491  0.3191  0.5888 -0.3200
   38DOPE   H3X 4857   6.857   5.476   4.497 -2.1830 -2.1464  2.8922
   38DOPE   H3Y 4858   7.033   5.457   4.464 -0.4078  0.6052 -3.1278
   38DOPE   C34 4859   6.961   5.348   4.631 -0.4876 -0.1679 -0.0998
   38DOPE   H4X 4860   7.036   5.268   4.614 -1.7536 -1.6361  0.9477
   38DOPE   H4Y 4861   6.993   5.430   4.697 -0.6212 -0.3500  0.1935
   38DOPE   C35 4862   6.842   5.275   4.682  0.1399  0.8472 -0.7522
   38DOPE   H5X 4863   6.806   5.184   4.630  0.6943  0.0087  0.2772
   38DOPE   H5Y 4864   6.767   5.357   4.675  2.7223  3.2805 -1.7390
   38DOPE   C36 4865   6.854   5.265   4.841 -0.8514 -0.2465 -0.0428
   38DOPE   H6X 4866   6.875   5.365   4.884  1.3604 -0.7426  0.1276
   38DOPE   H6Y 4867   6.935   5.192   4.862 -2.0462 -1.1788  1.4635
   38DOPE   C37 4868   6.727   5.213   4.914  0.1736  0.0469 -0.4984
   38DOPE   H7X 4869   6.674   5.137   4.853  0.0873  0.3528 -0.8023
   38DOPE   H7Y 4870   6.760   5.185   5.017 -1.1705 -1.0443 -0.3222
   38DOPE   C38 4871   6.620   5.321   4.931 -0.1686 -0.1469  0.0237
   38DOPE   H8X 4872   6.518   5.285   4.959 -0.9643  2.3288  0.5842
   38DOPE   H8Y 4873   6.611   5.365   4.830  0.5412 -0.3767 -0.1420
   38DOPE   C39 4874   6.657   5.436   5.026 -0.4673  1.0974  0.1256
   38DOPE   H9X 4875   6.722   5.517   4.988 -0.3214  1.7845  1.7664
   38DOPE  C310 4876   6.659   5.427   5.160  0.7050  0.5238 -0.0771
   38DOPE  H10X 4877   6.672   5.523   5.214  0.8814  2.1970 -2.9209
   38DOPE  C311 4878   6.629   5.306   5.243 -0.3870 -0.2164  0.6046
   38DOPE  H11X 4879   6.603   5.236   5.161  1.2088  0.1019 -0.2006
   38DOPE  H11Y 4880   6.718   5.269   5.297  0.5545  1.3913  0.2200
   38DOPE  C312 4881   6.510   5.323   5.334 -0.2413 -0.3656  0.0914
   38DOPE  H12X 4882   6.484   5.428   5.357 -1.2584 -1.0717  2.5211
   38DOPE  H12Y 4883   6.533   5.293   5.439 -0.0579  0.6350  0.3439
   38DOPE  C313 4884   6.386   5.239   5.289 -0.0254  0.6679  0.5079
   38DOPE  H13X 4885   6.347   5.258   5.187 -0.6205  1.4675  0.8709
   38DOPE  H13Y 4886   6.419   5.134   5.278 -0.1088  0.9144 -3.5340
   38DOPE  C314 4887   6.271   5.255   5.386  0.2182 -0.1300  0.0597
   38DOPE  H14X 4888   6.246   5.363   5.379  0.5408 -0.1440 -1.6829
   38DOPE  H14Y 4889   6.294   5.236   5.493 -3.6832  0.6002  1.1946
   38DOPE  C315 4890   6.146   5.173   5.360 -0.4123  0.0907  0.5296
   38DOPE  H15X 4891   6.095   5.194   5.264  0.2630  3.3485  0.7536
   38DOPE  H15Y 4892   6.075   5.202   5.440 -0.8176 -1.9814  0.9824
   38DOPE  C316 4893   6.170   5.031   5.379 -0.3426  0.1302  0.2289
   38DOPE  H16X 4894   6.228   5.010   5.471 -0.2531 -0.3795  0.0613
   38DOPE  H16Y 4895   6.224   4.993   5.290  0.8027  1.6996  0.2185
   38DOPE  C317 4896   6.040   4.942   5.398  0.4543  0.8870 -0.0608
   38DOPE  H17X 4897   5.994   4.930   5.298 -0.7328  1.1316  0.4441
   38DOPE  H17Y 4898   6.080   4.845   5.435  1.1119  0.2850 -2.2009
   38DOPE  C318 4899   5.928   4.990   5.497  0.2147 -0.0927 -0.1045
   38DOPE  H18X 4900   5.848   4.919   5.529 -0.4688  0.8548  0.3250
   38DOPE  H18Y 4901   5.977   5.030   5.588  1.0717 -1.8855  0.2673
   38DOPE  H18Z 4902   5.878   5.083   5.463  0.0854 -0.7974 -1.9771
   39DOPE     N 4903   1.863   5.382   3.980  0.0929 -0.1278 -0.4315
   39DOPE   HN1 4904   1.892   5.441   3.900 -1.4921  1.1445 -0.1139
   39DOPE   HN2 4905   1.888   5.281   3.968 -0.9884 -0.3888 -0.5614
   39DOPE   HN3 4906   1.759   5.384   3.973 -0.0172 -1.4661  0.4224
   39DOPE   C12 4907   1.906   5.429   4.119 -0.6251 -0.2530  0.3481
   39DOPE  H12A 4908   1.863   5.531   4.132 -0.9256 -0.5300  1.7891
   39DOPE  H12B 4909   2.017   5.434   4.119 -0.6637  1.8902 -1.2819
   39DOPE   C11 4910   1.851   5.340   4.233  0.2089  0.2692 -0.2970
   39DOPE  H11A 4911   1.741   5.343   4.223  0.0818  0.4400  0.9697
   39DOPE  H11B 4912   1.883   5.385   4.330  0.7815 -1.4899  0.3644
   39DOPE     P 4913   2.046   5.163   4.251 -0.5393 -0.4062  0.2446
   39DOPE   O13 4914   2.130   5.196   4.132  0.4167  0.6124  0.5282
   39DOPE   O14 4915   2.041   5.022   4.292 -0.4312 -0.2750  0.1188
   39DOPE   O11 4916   2.086   5.251   4.377  0.0244  0.0833 -0.2252
   39DOPE   O12 4917   1.888   5.203   4.220 -0.2932 -0.1691 -0.4471
   39DOPE    C1 4918   2.220   5.294   4.402 -0.1203 -0.0530  0.1612
   39DOPE    HA 4919   2.235   5.397   4.364  0.0247 -0.7272 -1.6731
   39DOPE    HB 4920   2.297   5.233   4.350  1.1367  2.8538 -1.6081
   39DOPE    C2 4921   2.243   5.296   4.548 -0.1995 -0.1852 -0.1296
   39DOPE    HS 4922   2.351   5.314   4.570 -0.6444 -0.5205  2.8746
   39DOPE   O21 4923   2.206   5.174   4.612  0.1306 -0.1722 -0.2818
   39DOPE   C21 4924   2.290   5.076   4.600  0.3808  0.5065 -0.0120
   39DOPE   O22 4925   2.399   5.084   4.545  0.0982 -0.0236 -0.2397
   39DOPE   C22 4926   2.232   4.951   4.675  0.4730  0.6652 -0.5557
   39DOPE   H2R 4927   2.320   4.887   4.692 -0.9195 -0.9670  0.8923
   39DOPE   H2S 4928   2.164   4.900   4.603 -0.4766  1.1995 -0.0556
   39DOPE    C3 4929   2.169   5.419   4.611  0.2040 -0.0995 -0.0766
   39DOPE    HX 4930   2.063   5.411   4.579  0.4367 -0.9864 -0.6861
   39DOPE    HY 4931   2.203   5.518   4.576  3.4530 -0.9687  0.2397
   39DOPE   O31 4932   2.183   5.416   4.757  0.5292  0.1457 -0.2872
   39DOPE   C31 4933   2.088   5.479   4.817  0.6128  0.2341  0.6624
   39DOPE   O32 4934   2.005   5.550   4.766  0.6094  0.4252  0.5221
   39DOPE   C32 4935   2.093   5.450   4.965  0.4346 -0.8197 -0.0415
   39DOPE   H2X 4936   2.049   5.352   4.993  1.3524 -1.6311 -1.3333
   39DOPE   H2Y 4937   2.200   5.451   4.993  0.3719  1.1437  0.2807
   39DOPE   C23 4938   2.145   4.973   4.810  0.1145 -0.3640  0.2517
   39DOPE   H3R 4939   2.079   4.887   4.829 -0.6798  0.1231 -0.2532
   39DOPE   H3S 4940   2.085   5.065   4.792 -1.8269 -1.7732 -0.8682
   39DOPE   C24 4941   2.243   4.979   4.928  0.5762  0.2462 -0.7070
   39DOPE   H4R 4942   2.332   5.040   4.904  0.8498 -0.0655 -0.5056
   39DOPE   H4S 4943   2.287   4.880   4.953 -1.1909 -0.4024  0.0367
   39DOPE   C25 4944   2.171   5.047   5.050  1.0024 -0.1833  1.0905
   39DOPE   H5R 4945   2.089   4.978   5.078  0.8352 -0.9115 -1.0127
   39DOPE   H5S 4946   2.129   5.140   5.005 -2.7812 -2.7554 -1.2755
   39DOPE   C26 4947   2.258   5.081   5.167 -0.6352 -0.3713  0.5451
   39DOPE   H6R 4948   2.343   5.146   5.136 -1.4002 -0.0114 -0.8614
   39DOPE   H6S 4949   2.303   4.990   5.214 -1.3762 -0.9122  0.2188
   39DOPE   C27 4950   2.170   5.146   5.274 -0.2357 -0.0289 -0.8654
   39DOPE   H7R 4951   2.083   5.084   5.306 -0.3642  0.4525 -0.2678
   39DOPE   H7S 4952   2.125   5.238   5.230  2.7074  1.8876 -0.1517
   39DOPE   C28 4953   2.246   5.190   5.404 -0.1288  0.0945  0.5307
   39DOPE   H8R 4954   2.342   5.238   5.373  0.5283 -0.9072  0.9418
   39DOPE   H8S 4955   2.280   5.096   5.453 -2.4235 -2.6144 -2.6493
   39DOPE   C29 4956   2.169   5.272   5.506  0.2793 -0.6692  0.0691
   39DOPE   H9R 4957   2.118   5.358   5.461  1.3620  0.7558  1.4291
   39DOPE  C210 4958   2.167   5.232   5.637 -0.5749 -0.3433  0.4429
   39DOPE  H10R 4959   2.123   5.302   5.709 -1.0020 -2.8463  2.8076
   39DOPE  C211 4960   2.219   5.113   5.706  0.1482  1.2986  0.3307
   39DOPE  H11R 4961   2.277   5.046   5.640 -1.0469 -0.2114  0.7769
   39DOPE  H11S 4962   2.139   5.043   5.735  1.4480  0.7338  2.8481
   39DOPE  C212 4963   2.303   5.137   5.837 -0.7455  0.5733  0.0366
   39DOPE  H12R 4964   2.241   5.199   5.906  1.1746  1.6011  0.9330
   39DOPE  H12S 4965   2.385   5.206   5.807 -1.1721  1.5732  1.1005
   39DOPE  C213 4966   2.347   5.013   5.912 -0.1743  0.6538 -0.0746
   39DOPE  H13R 4967   2.441   5.032   5.967  0.4791  0.3143 -1.0337
   39DOPE  H13S 4968   2.368   4.948   5.824 -0.6709  0.2724  0.0826
   39DOPE  C214 4969   2.238   4.949   6.007 -0.1262  0.2664  0.4638
   39DOPE  H14R 4970   2.145   4.962   5.948 -0.6346 -0.2751  1.1247
   39DOPE  H14S 4971   2.238   5.012   6.099  0.3374 -0.3140  0.8684
   39DOPE  C215 4972   2.257   4.807   6.052 -0.5718  0.5234 -0.3221
   39DOPE  H15R 4973   2.304   4.746   5.973  0.3710  0.1505  0.4955
   39DOPE  H15S 4974   2.162   4.756   6.081 -0.8941  1.5001  0.3991
   39DOPE  C216 4975   2.347   4.785   6.173  0.3046  0.0903 -0.2100
   39DOPE  H16R 4976   2.452   4.806   6.140  0.8059 -2.7243 -0.5986
   39DOPE  H16S 4977   2.344   4.679   6.205 -0.3674  0.9402  2.8609
   39DOPE  C217 4978   2.322   4.863   6.303  0.2882 -0.0420  0.1248
   39DOPE  H17R 4979   2.331   4.972   6.282 -0.6695  0.0429  0.0888
   39DOPE  H17S 4980   2.405   4.847   6.374 -0.4531 -0.2627  0.9670
   39DOPE  C218 4981   2.197   4.827   6.382 -0.2438  0.1277 -0.4271
   39DOPE  H18R 4982   2.109   4.837   6.314  0.3705  0.6352 -1.1671
   39DOPE  H18S 4983   2.180   4.890   6.471  0.3177 -0.5210  0.1558
   39DOPE  H18T 4984   2.205   4.722   6.419  0.4781  0.4901  0.4749
   39DOPE   C33 4985   2.018   5.562   5.046  0.3756 -0.0067  0.9100
   39DOPE   H3X 4986   1.918   5.572   4.997  0.9979  3.0564  0.0715
   39DOPE   H3Y 4987   2.058   5.665   5.034  1.7930 -0.7675 -1.7302
   39DOPE   C34 4988   1.984   5.525   5.190  1.0268  0.1549  0.1066
   39DOPE   H4X 4989   1.948   5.419   5.191  2.3428 -0.3496 -1.9253
   39DOPE   H4Y 4990   2.075   5.524   5.254  1.6448 -1.2410 -0.7465
   39DOPE   C35 4991   1.885   5.614   5.274  0.1198 -0.7991 -0.3049
   39DOPE   H5X 4992   1.788   5.624   5.221  1.6533  0.8640 -3.0234
   39DOPE   H5Y 4993   1.917   5.719   5.290 -1.7621  0.0450 -1.6617
   39DOPE   C36 4994   1.863   5.566   5.421  0.7867 -0.5457  0.5546
   39DOPE   H6X 4995   1.954   5.540   5.480  0.5005 -2.6697  0.1335
   39DOPE   H6Y 4996   1.803   5.473   5.415  0.1413 -0.0574 -2.7700
   39DOPE   C37 4997   1.780   5.674   5.499  0.3371 -0.3142 -0.4650
   39DOPE   H7X 4998   1.841   5.766   5.503  3.4468 -2.1662 -1.5990
   39DOPE   H7Y 4999   1.691   5.702   5.440  1.8047  1.9590 -1.7256
   39DOPE   C38 5000   1.737   5.627   5.646  0.5448  1.2946  0.2179
   39DOPE   H8X 5001   1.827   5.612   5.709 -1.7009  1.2688  3.6507
   39DOPE   H8Y 5002   1.695   5.526   5.630  1.5910  1.0461 -1.1598
   39DOPE   C39 5003   1.628   5.712   5.710  0.4170  0.3130  0.1740
   39DOPE   H9X 5004   1.540   5.731   5.647  0.6795  0.0961 -0.2688
   39DOPE  C310 5005   1.620   5.753   5.837 -0.0567 -0.1963  0.4774
   39DOPE  H10X 5006   1.536   5.815   5.871  1.1371  1.1834  1.0655
   39DOPE  C311 5007   1.736   5.741   5.930 -0.1110 -0.6814  0.3635
   39DOPE  H11X 5008   1.744   5.633   5.955  0.0752 -0.9865 -0.9102
   39DOPE  H11Y 5009   1.827   5.783   5.880 -2.5486  2.7539 -1.6287
   39DOPE  C312 5010   1.699   5.813   6.060 -0.1305 -0.1597  0.2123
   39DOPE  H12X 5011   1.673   5.921   6.047 -0.0645  0.4200  3.8841
   39DOPE  H12Y 5012   1.789   5.807   6.124  0.7793 -3.0307 -1.1674
   39DOPE  C313 5013   1.590   5.733   6.139 -0.1055 -0.4763 -0.8619
   39DOPE  H13X 5014   1.499   5.733   6.076 -1.1616 -1.3548  0.6084
   39DOPE  H13Y 5015   1.623   5.628   6.151  1.9564  0.2743  0.6992
   39DOPE  C314 5016   1.558   5.798   6.269  0.5850 -0.2208 -0.3658
   39DOPE  H14X 5017   1.645   5.784   6.336  0.1617 -0.7316  0.0934
   39DOPE  H14Y 5018   1.474   5.741   6.316  1.0945 -0.3887  0.3500
   39DOPE  C315 5019   1.507   5.946   6.248  0.5799  0.1173 -0.0612
   39DOPE  H15X 5020   1.428   5.940   6.170  1.6089  1.5362 -1.2896
   39DOPE  H15Y 5021   1.594   6.006   6.212  0.3374  0.9875  0.7577
   39DOPE  C316 5022   1.450   6.019   6.372  0.1442  0.3624 -0.3144
   39DOPE  H16X 5023   1.435   6.128   6.356  4.8278  1.2482 -0.0334
   39DOPE  H16Y 5024   1.522   5.998   6.454 -1.0536 -0.5526  0.5380
   39DOPE  C317 5025   1.312   5.967   6.412  0.1485 -0.6214  0.0701
   39DOPE  H17X 5026   1.259   5.940   6.317  0.3763  2.6954 -1.1262
   39DOPE  H17Y 5027   1.327   5.866   6.455  1.1161  0.3065  2.0284
   39DOPE  C318 5028   1.238   6.070   6.496  0.0776  0.1853  0.4407
   39DOPE  H18X 5029   1.252   6.054   6.605  0.5660 -3.1303 -0.0085
   39DOPE  H18Y 5030   1.267   6.174   6.470  0.1812  0.1997  0.6084
   39DOPE  H18Z 5031   1.129   6.057   6.476  0.2602 -0.1886 -0.3586
   40DOPE     N 5032   2.747   5.161   4.283  0.5587  0.6185  0.1114
   40DOPE   HN1 5033   2.690   5.247   4.268 -0.8235  0.0589  1.8029
   40DOPE   HN2 5034   2.836   5.158   4.229  0.1326 -3.2173 -0.6904
   40DOPE   HN3 5035   2.676   5.093   4.247 -0.9052  1.5951  1.0665
   40DOPE   C12 5036   2.749   5.127   4.428  0.8550 -0.1264 -0.4389
   40DOPE  H12A 5037   2.837   5.062   4.445  0.2309 -1.2450 -1.3505
   40DOPE  H12B 5038   2.660   5.066   4.454  1.7714 -1.2789  0.0956
   40DOPE   C11 5039   2.767   5.259   4.504  0.6001 -0.3201  0.3081
   40DOPE  H11A 5040   2.764   5.234   4.612  0.7232 -2.5030 -0.1655
   40DOPE  H11B 5041   2.676   5.320   4.482  1.1448 -0.1554 -1.7020
   40DOPE     P 5042   3.019   5.317   4.517  0.0340  0.1682  0.7760
   40DOPE   O13 5043   3.091   5.448   4.499  0.0458 -0.4975 -0.3409
   40DOPE   O14 5044   3.057   5.196   4.441  0.1574  0.0246 -0.9895
   40DOPE   O11 5045   3.002   5.279   4.671  0.1328  0.1570  0.2734
   40DOPE   O12 5046   2.874   5.343   4.462 -0.3127 -0.2894  0.1872
   40DOPE    C1 5047   3.032   5.367   4.782 -0.2520  0.0124 -0.4319
   40DOPE    HA 5048   3.005   5.319   4.879 -1.8474  0.7510 -0.4708
   40DOPE    HB 5049   2.968   5.457   4.768 -2.1909 -1.1110  0.6796
   40DOPE    C2 5050   3.185   5.398   4.797  0.7108  0.5862 -0.2095
   40DOPE    HS 5051   3.221   5.442   4.702 -1.3560  0.0256 -1.2968
   40DOPE   O21 5052   3.260   5.286   4.830  0.0989  0.6074 -0.1941
   40DOPE   C21 5053   3.393   5.285   4.809 -0.3222  0.1659  0.0428
   40DOPE   O22 5054   3.457   5.370   4.759 -0.5006 -0.3385 -0.3870
   40DOPE   C22 5055   3.449   5.146   4.838  0.0258  0.8809 -0.2523
   40DOPE   H2R 5056   3.427   5.065   4.766  3.1391 -0.6447  0.3575
   40DOPE   H2S 5057   3.396   5.116   4.931  0.0147 -2.5062 -1.2398
   40DOPE    C3 5058   3.214   5.508   4.902 -0.1822 -0.4711 -0.2641
   40DOPE    HX 5059   3.169   5.605   4.871  0.1631  0.0254  0.7381
   40DOPE    HY 5060   3.324   5.527   4.904 -0.0761 -0.9756 -0.8811
   40DOPE   O31 5061   3.163   5.463   5.024 -0.0184  0.3392 -0.6101
   40DOPE   C31 5062   3.241   5.396   5.105  0.2776 -0.0507 -0.1389
   40DOPE   O32 5063   3.361   5.369   5.094 -0.0718 -0.5208  0.8866
   40DOPE   C32 5064   3.158   5.347   5.218 -0.4860 -0.2148 -0.7293
   40DOPE   H2X 5065   3.102   5.434   5.259  0.0572  0.1437 -0.7371
   40DOPE   H2Y 5066   3.079   5.286   5.168  0.8658 -3.1745  0.5288
   40DOPE   C23 5067   3.606   5.129   4.858  0.1490  0.2816  0.4963
   40DOPE   H3R 5068   3.651   5.228   4.879 -0.1346  0.3523  0.7899
   40DOPE   H3S 5069   3.640   5.089   4.760  0.5886  0.3576  0.6180
   40DOPE   C24 5070   3.629   5.026   4.963 -0.4433  0.4567 -1.0451
   40DOPE   H4R 5071   3.733   4.986   4.963 -0.3060  0.6005  1.5305
   40DOPE   H4S 5072   3.566   4.937   4.945 -0.9887  0.6664 -0.2327
   40DOPE   C25 5073   3.609   5.085   5.107 -0.2151 -0.4064  0.2185
   40DOPE   H5R 5074   3.508   5.130   5.113  0.0238  0.1498  0.1392
   40DOPE   H5S 5075   3.680   5.169   5.121 -1.0787  0.1904  1.1595
   40DOPE   C26 5076   3.624   4.988   5.230 -0.0470 -0.5685 -0.5357
   40DOPE   H6R 5077   3.721   4.935   5.215  0.3156  0.2845 -1.2978
   40DOPE   H6S 5078   3.542   4.913   5.224 -0.9699  0.4880 -1.5915
   40DOPE   C27 5079   3.620   5.076   5.354  0.0639  0.6195 -0.5938
   40DOPE   H7R 5080   3.515   5.110   5.370  0.1997  0.0703  1.7953
   40DOPE   H7S 5081   3.677   5.170   5.341 -1.3324  1.2801 -2.4468
   40DOPE   C28 5082   3.668   4.998   5.482 -0.5379  0.4756 -0.1287
   40DOPE   H8R 5083   3.675   5.076   5.561  0.0028  1.6187 -1.2718
   40DOPE   H8S 5084   3.773   4.963   5.474 -1.3056 -2.8617  2.2292
   40DOPE   C29 5085   3.575   4.893   5.523 -0.5226 -0.0628 -0.3278
   40DOPE   H9R 5086   3.540   4.832   5.438  0.9420  1.3259 -2.0237
   40DOPE  C210 5087   3.540   4.856   5.643  0.2791  0.1980 -0.0332
   40DOPE  H10R 5088   3.476   4.767   5.646  0.1957  0.2336 -0.7258
   40DOPE  C211 5089   3.582   4.918   5.779 -0.3463  0.2101 -0.8107
   40DOPE  H11R 5090   3.489   4.938   5.837  0.3541  3.2906 -0.5769
   40DOPE  H11S 5091   3.629   5.017   5.760  0.1684  0.5399  1.7785
   40DOPE  C212 5092   3.679   4.829   5.856  0.0965  0.8254 -0.1120
   40DOPE  H12R 5093   3.770   4.836   5.794  0.8614 -1.1437  0.7122
   40DOPE  H12S 5094   3.640   4.725   5.853  1.2128  0.4102 -0.4052
   40DOPE  C213 5095   3.704   4.878   6.001  0.3470  0.4082 -0.1920
   40DOPE  H13R 5096   3.609   4.882   6.059 -1.0109  0.5942 -2.3235
   40DOPE  H13S 5097   3.725   4.986   5.987 -1.2709  0.4792 -2.7815
   40DOPE  C214 5098   3.828   4.819   6.070  0.1340 -0.5374  0.3473
   40DOPE  H14R 5099   3.850   4.892   6.150 -0.1628 -0.1630  0.0883
   40DOPE  H14S 5100   3.915   4.834   6.003 -0.8140  0.6272 -0.6666
   40DOPE  C215 5101   3.814   4.678   6.127 -0.3156 -0.1308  1.0482
   40DOPE  H15R 5102   3.794   4.610   6.041  0.1379  1.3496 -0.2656
   40DOPE  H15S 5103   3.728   4.676   6.198 -0.4383 -0.8573  0.8865
   40DOPE  C216 5104   3.942   4.637   6.204  0.4963 -0.0300  0.4617
   40DOPE  H16R 5105   3.939   4.709   6.288 -1.0817 -0.0687  0.4764
   40DOPE  H16S 5106   4.034   4.641   6.142 -0.5444 -1.4618 -1.2755
   40DOPE  C217 5107   3.942   4.497   6.256  0.6176 -0.5317  0.3212
   40DOPE  H17R 5108   3.934   4.426   6.170  0.9355 -0.7411  0.4646
   40DOPE  H17S 5109   3.856   4.479   6.325  1.0014  0.2730  1.0228
   40DOPE  C218 5110   4.077   4.474   6.324 -1.0453 -0.1636 -0.8526
   40DOPE  H18R 5111   4.102   4.370   6.353 -0.3943  0.5517  1.3908
   40DOPE  H18S 5112   4.070   4.534   6.418 -2.2492  2.2626 -2.3763
   40DOPE  H18T 5113   4.164   4.509   6.264  3.4673 -4.0702  2.6374
   40DOPE   C33 5114   3.241   5.269   5.321 -0.0195  0.3290  0.3996
   40DOPE   H3X 5115   3.328   5.335   5.342 -0.2326  0.5518  0.5833
   40DOPE   H3Y 5116   3.273   5.170   5.282 -2.3051 -0.3017 -0.0445
   40DOPE   C34 5117   3.160   5.256   5.447 -0.1027 -0.4147 -0.2195
   40DOPE   H4X 5118   3.154   5.363   5.474  0.8063 -0.5288  0.4642
   40DOPE   H4Y 5119   3.057   5.215   5.450  0.7352 -2.5730  1.0270
   40DOPE   C35 5120   3.236   5.183   5.562  0.3388 -0.1903 -0.2059
   40DOPE   H5X 5121   3.343   5.211   5.578  0.0576 -0.3935  2.5371
   40DOPE   H5Y 5122   3.239   5.078   5.526  0.9637  0.1111 -1.0774
   40DOPE   C36 5123   3.173   5.203   5.696  0.3987 -0.0188 -1.3991
   40DOPE   H6X 5124   3.063   5.197   5.685  0.4446 -2.4266 -0.9793
   40DOPE   H6Y 5125   3.195   5.303   5.739  2.4098 -1.4392  1.1928
   40DOPE   C37 5126   3.210   5.092   5.798  0.5266  0.3427  0.4575
   40DOPE   H7X 5127   3.135   5.013   5.777 -0.6493  1.3947  0.5507
   40DOPE   H7Y 5128   3.311   5.048   5.792  1.2907  2.0905 -0.1323
   40DOPE   C38 5129   3.167   5.139   5.944  0.1261  0.0538  0.4608
   40DOPE   H8X 5130   3.147   5.045   6.000 -1.9244 -1.1977 -2.1162
   40DOPE   H8Y 5131   3.081   5.210   5.946 -0.9844 -1.2490  0.4808
   40DOPE   C39 5132   3.292   5.205   5.994 -0.2173  1.1014  0.0276
   40DOPE   H9X 5133   3.344   5.259   5.913 -2.5312 -0.0500 -2.4101
   40DOPE  C310 5134   3.344   5.207   6.117  0.4147 -0.0564  0.1212
   40DOPE  H10X 5135   3.441   5.259   6.127 -0.5176  1.7102  0.2730
   40DOPE  C311 5136   3.290   5.143   6.238 -0.4506  0.6564  0.3374
   40DOPE  H11X 5137   3.352   5.178   6.323  0.6795  0.0574 -0.2332
   40DOPE  H11Y 5138   3.182   5.162   6.260 -0.7471  0.0599 -0.5612
   40DOPE  C312 5139   3.311   4.987   6.243 -0.3413 -0.4016  0.5635
   40DOPE  H12X 5140   3.395   4.949   6.181 -1.2010 -1.8754  0.2467
   40DOPE  H12Y 5141   3.217   4.935   6.216 -2.1034  1.0947  3.3210
   40DOPE  C313 5142   3.347   4.942   6.388  0.0288 -0.1050 -0.0619
   40DOPE  H13X 5143   3.439   4.994   6.424 -0.1607  1.4787 -1.7331
   40DOPE  H13Y 5144   3.263   4.970   6.454  0.4158  2.3401 -0.4944
   40DOPE  C314 5145   3.352   4.789   6.405  0.9029  0.0417  0.5734
   40DOPE  H14X 5146   3.265   4.750   6.349  0.3568  2.8616 -0.7465
   40DOPE  H14Y 5147   3.354   4.757   6.511  3.8205 -1.6438  0.1335
   40DOPE  C315 5148   3.471   4.729   6.334  0.2791 -0.1160  0.1830
   40DOPE  H15X 5149   3.559   4.768   6.389  0.2233  1.7926 -0.9897
   40DOPE  H15Y 5150   3.475   4.761   6.228  1.9121 -0.2409  0.1727
   40DOPE  C316 5151   3.469   4.578   6.336  0.0700  0.1113  0.1451
   40DOPE  H16X 5152   3.548   4.541   6.267  0.1091 -0.9051  0.7124
   40DOPE  H16Y 5153   3.366   4.552   6.303 -1.2648  3.0019  1.6680
   40DOPE  C317 5154   3.488   4.514   6.478  0.0302  0.0140  0.7342
   40DOPE  H17X 5155   3.392   4.537   6.530 -1.3112 -0.3619 -1.4220
   40DOPE  H17Y 5156   3.486   4.403   6.470 -0.7520  0.1083 -0.6461
   40DOPE  C318 5157   3.608   4.576   6.549  0.5144  0.4643  0.3379
   40DOPE  H18X 5158   3.633   4.531   6.647  0.1988 -0.0729  0.1774
   40DOPE  H18Y 5159   3.702   4.565   6.490  0.6633 -1.8924  0.9216
   40DOPE  H18Z 5160   3.587   4.678   6.587 -0.9762  0.4532 -0.3779
   41DOPE     N 5161   3.622   0.407   4.094  0.7642 -0.8451 -0.8499
   41DOPE   HN1 5162   3.612   0.372   3.997 -0.2406 -1.7929 -0.4343
   41DOPE   HN2 5163   3.547   0.476   4.117  0.7995 -0.5637 -1.5510
   41DOPE   HN3 5164   3.707   0.466   4.105 -0.1734  0.0866  3.0015
   41DOPE   C12 5165   3.634   0.308   4.201  0.3020  0.4433  0.5465
   41DOPE  H12A 5166   3.637   0.357   4.300 -1.4563  0.8927  0.4002
   41DOPE  H12B 5167   3.727   0.252   4.176  0.1275  0.7673 -0.9462
   41DOPE   C11 5168   3.519   0.203   4.207 -0.4436 -0.2174  0.0559
   41DOPE  H11A 5169   3.548   0.126   4.281 -0.5886  0.9530  1.3660
   41DOPE  H11B 5170   3.513   0.157   4.106  1.1575  1.9248 -1.1184
   41DOPE     P 5171   3.354   0.277   4.400 -0.3940  0.4665 -0.0926
   41DOPE   O13 5172   3.303   0.147   4.448 -0.1931  0.0140 -0.7161
   41DOPE   O14 5173   3.269   0.399   4.409 -0.2294 -0.1289 -0.0786
   41DOPE   O11 5174   3.497   0.306   4.472 -0.0556 -0.6433 -0.8240
   41DOPE   O12 5175   3.398   0.259   4.252  0.0531 -0.3705 -0.2335
   41DOPE    C1 5176   3.536   0.231   4.586  0.3633  0.3093  0.0072
   41DOPE    HA 5177   3.641   0.254   4.615  1.0896  0.7052 -2.6873
   41DOPE    HB 5178   3.524   0.121   4.580 -0.8764  0.3445  1.1637
   41DOPE    C2 5179   3.451   0.273   4.716 -0.3949  0.4880  0.7519
   41DOPE    HS 5180   3.350   0.231   4.694  0.5007 -1.0498 -0.6541
   41DOPE   O21 5181   3.456   0.414   4.736  0.6943 -0.1445  0.6689
   41DOPE   C21 5182   3.342   0.477   4.758 -0.3811  0.1892  0.5632
   41DOPE   O22 5183   3.230   0.438   4.737 -0.1327  0.1187  0.4643
   41DOPE   C22 5184   3.380   0.616   4.789 -0.0095 -0.1851  0.1285
   41DOPE   H2R 5185   3.348   0.676   4.702  0.5097 -1.5114 -1.0132
   41DOPE   H2S 5186   3.489   0.622   4.810 -0.3211  0.9839  1.5744
   41DOPE    C3 5187   3.496   0.200   4.846  0.9180 -0.0740 -0.0024
   41DOPE    HX 5188   3.583   0.260   4.880 -0.9092  2.1587  0.9994
   41DOPE    HY 5189   3.526   0.097   4.816  0.5325 -0.6096  1.3949
   41DOPE   O31 5190   3.402   0.195   4.950  0.3269 -0.0403  0.0983
   41DOPE   C31 5191   3.305   0.104   4.943  0.1540 -0.2587 -0.7311
   41DOPE   O32 5192   3.270   0.044   4.841  0.0310 -0.4583 -0.1844
   41DOPE   C32 5193   3.227   0.089   5.080 -0.4338 -0.0370  0.7968
   41DOPE   H2X 5194   3.132   0.034   5.066 -0.4235  0.3104 -0.7998
   41DOPE   H2Y 5195   3.296   0.038   5.150  0.4689 -0.6502 -0.4918
   41DOPE   C23 5196   3.305   0.657   4.916 -0.2501 -0.5974  0.4430
   41DOPE   H3R 5197   3.199   0.627   4.903 -0.3233  0.3260 -1.4167
   41DOPE   H3S 5198   3.310   0.768   4.920 -1.3991 -0.3956 -1.8441
   41DOPE   C24 5199   3.360   0.590   5.044 -0.3510  0.7398 -0.3232
   41DOPE   H4R 5200   3.469   0.608   5.051  0.1351 -2.1079  0.9482
   41DOPE   H4S 5201   3.342   0.481   5.029  0.3038  0.5470  0.2392
   41DOPE   C25 5202   3.278   0.627   5.171  0.2021  0.1408 -0.0642
   41DOPE   H5R 5203   3.185   0.567   5.164  0.4356 -0.2616  0.1843
   41DOPE   H5S 5204   3.277   0.737   5.182  0.4275  0.2234 -0.8095
   41DOPE   C26 5205   3.338   0.565   5.300 -0.0911  0.0144  0.1471
   41DOPE   H6R 5206   3.444   0.598   5.295 -0.8184  2.9120  1.9239
   41DOPE   H6S 5207   3.345   0.455   5.286 -0.1615  0.0822 -0.4434
   41DOPE   C27 5208   3.267   0.594   5.433  0.5488  0.0353  0.1825
   41DOPE   H7R 5209   3.162   0.560   5.424 -0.0832  1.7144  0.9349
   41DOPE   H7S 5210   3.266   0.703   5.451 -2.3949 -0.0488  1.0454
   41DOPE   C28 5211   3.328   0.535   5.554  0.1599  0.1994 -1.2136
   41DOPE   H8R 5212   3.434   0.568   5.554  0.3994 -0.5484 -0.7742
   41DOPE   H8S 5213   3.339   0.425   5.553 -0.2431  0.0727  1.4238
   41DOPE   C29 5214   3.271   0.590   5.685  0.4893 -0.5622 -0.3783
   41DOPE   H9R 5215   3.199   0.669   5.661  0.7558 -0.3084 -0.3568
   41DOPE  C210 5216   3.290   0.547   5.807 -0.5147  0.4775 -0.1790
   41DOPE  H10R 5217   3.234   0.595   5.890  1.3115 -1.5909  2.4252
   41DOPE  C211 5218   3.376   0.432   5.860 -0.1806 -0.0049 -0.2460
   41DOPE  H11R 5219   3.436   0.382   5.781  1.4855  0.6652  0.5481
   41DOPE  H11S 5220   3.314   0.353   5.908  0.2777 -0.1347  0.1436
   41DOPE  C212 5221   3.482   0.457   5.978 -0.2604  0.1705 -0.0451
   41DOPE  H12R 5222   3.530   0.555   5.959 -1.4322  1.1714  1.8528
   41DOPE  H12S 5223   3.558   0.378   5.960 -0.7429 -0.2126 -0.4457
   41DOPE  C213 5224   3.421   0.434   6.117 -0.0138  0.6005 -0.0729
   41DOPE  H13R 5225   3.502   0.451   6.191  0.1454  0.1562 -0.1417
   41DOPE  H13S 5226   3.397   0.325   6.121  1.6609  0.1398 -1.3647
   41DOPE  C214 5227   3.298   0.520   6.153  0.6685 -0.7975  0.2655
   41DOPE  H14R 5228   3.213   0.469   6.103  0.0747  0.5846 -0.1927
   41DOPE  H14S 5229   3.295   0.620   6.105 -0.8608 -1.0938 -0.3367
   41DOPE  C215 5230   3.269   0.556   6.299 -0.5611 -0.3458 -0.1726
   41DOPE  H15R 5231   3.176   0.612   6.321 -1.4062 -2.3261  1.6673
   41DOPE  H15S 5232   3.356   0.608   6.344  0.2074 -2.7555  1.3194
   41DOPE  C216 5233   3.247   0.427   6.383 -0.3485 -0.3130 -0.5482
   41DOPE  H16R 5234   3.342   0.370   6.376  0.2877 -0.0122  3.3660
   41DOPE  H16S 5235   3.174   0.355   6.341 -2.1627  0.8613  0.4936
   41DOPE  C217 5236   3.219   0.463   6.527 -0.5162  0.1115  0.5175
   41DOPE  H17R 5237   3.111   0.487   6.540 -0.6196 -0.3532  0.5363
   41DOPE  H17S 5238   3.288   0.547   6.548  3.3734 -3.1216  1.9849
   41DOPE  C218 5239   3.268   0.354   6.617 -0.3584 -0.2354  0.0320
   41DOPE  H18R 5240   3.193   0.282   6.655  0.2983 -0.2640  1.3161
   41DOPE  H18S 5241   3.332   0.392   6.700  0.3324 -2.9329  0.8206
   41DOPE  H18T 5242   3.348   0.302   6.561  0.6331  1.4123 -0.1473
   41DOPE   C33 5243   3.189   0.219   5.155  1.0046 -0.1372 -0.6258
   41DOPE   H3X 5244   3.143   0.279   5.073 -1.5937 -0.3106  0.6050
   41DOPE   H3Y 5245   3.279   0.273   5.192  0.5932  1.2964 -1.6127
   41DOPE   C34 5246   3.091   0.200   5.268 -0.1219 -0.2721 -0.4960
   41DOPE   H4X 5247   3.103   0.297   5.321  2.0707 -0.5079 -0.4541
   41DOPE   H4Y 5248   2.985   0.188   5.238  0.2656  1.1348 -2.7187
   41DOPE   C35 5249   3.124   0.073   5.346 -0.4317  0.4266 -0.4572
   41DOPE   H5X 5250   3.227   0.084   5.386 -0.7305  1.6611  0.0351
   41DOPE   H5Y 5251   3.106  -0.013   5.278 -0.4604  0.4593 -0.4918
   41DOPE   C36 5252   3.025   0.047   5.470  0.2762  0.4026 -0.2723
   41DOPE   H6X 5253   3.050  -0.055   5.507 -0.3952  0.3539  0.0701
   41DOPE   H6Y 5254   2.918   0.045   5.437  0.3209 -0.2904 -0.3875
   41DOPE   C37 5255   3.022   0.157   5.574 -0.1125 -0.6472  0.7979
   41DOPE   H7X 5256   3.124   0.201   5.580 -0.2678  0.3500 -2.2643
   41DOPE   H7Y 5257   2.948   0.233   5.541 -3.1217 -3.4285  0.6074
   41DOPE   C38 5258   2.980   0.108   5.708  0.2883 -1.2735  0.2246
   41DOPE   H8X 5259   3.049   0.024   5.731 -0.7089 -2.0014  0.6396
   41DOPE   H8Y 5260   2.882   0.055   5.711 -0.1356 -0.4821  0.7957
   41DOPE   C39 5261   2.989   0.219   5.821  1.1698  0.2907 -0.2730
   41DOPE   H9X 5262   3.017   0.318   5.783 -1.9905  0.7333 -1.7958
   41DOPE  C310 5263   2.981   0.190   5.952  0.7250  0.1372 -0.0177
   41DOPE  H10X 5264   2.984   0.275   6.021 -0.9154 -0.8733  1.3902
   41DOPE  C311 5265   2.964   0.062   6.034 -0.5905 -0.3047  0.3339
   41DOPE  H11X 5266   2.855   0.042   6.047 -0.3977  0.2014  3.2213
   41DOPE  H11Y 5267   3.012  -0.023   5.981 -2.9978 -1.4882 -0.0718
   41DOPE  C312 5268   3.012   0.066   6.184  0.1764 -0.0817 -0.6527
   41DOPE  H12X 5269   2.975  -0.023   6.239 -1.5132  1.4345  0.7838
   41DOPE  H12Y 5270   2.957   0.155   6.221 -0.8743 -1.1373  0.4178
   41DOPE  C313 5271   3.164   0.078   6.200 -0.3333  0.8381 -0.0228
   41DOPE  H13X 5272   3.217  -0.004   6.150  0.3368  0.9364  0.5128
   41DOPE  H13Y 5273   3.190   0.173   6.149  0.0146  1.3465  1.0529
   41DOPE  C314 5274   3.209   0.075   6.344  0.3904  0.3708 -0.6902
   41DOPE  H14X 5275   3.123   0.109   6.404  0.4260 -0.5347 -0.1107
   41DOPE  H14Y 5276   3.291   0.145   6.372 -0.8837  1.4810  0.4306
   41DOPE  C315 5277   3.229  -0.070   6.389 -0.4349  0.5403 -0.2950
   41DOPE  H15X 5278   3.309  -0.107   6.322  0.5266  0.9272  0.6126
   41DOPE  H15Y 5279   3.141  -0.131   6.359  0.2284 -0.9916  0.7684
   41DOPE  C316 5280   3.277  -0.097   6.538 -0.0700  0.0994 -0.4621
   41DOPE  H16X 5281   3.285  -0.206   6.553 -1.2919  0.2645  1.7567
   41DOPE  H16Y 5282   3.211  -0.046   6.611  1.3244  2.3131 -0.6553
   41DOPE  C317 5283   3.421  -0.040   6.570 -0.6873  0.1039 -0.2930
   41DOPE  H17X 5284   3.478  -0.067   6.478 -1.2693  1.1535 -0.9852
   41DOPE  H17Y 5285   3.428   0.070   6.568  1.1129  0.0120 -0.7185
   41DOPE  C318 5286   3.479  -0.100   6.695 -0.6876 -0.4294 -0.2328
   41DOPE  H18X 5287   3.572  -0.058   6.738 -1.2415  2.3584 -1.5404
   41DOPE  H18Y 5288   3.405  -0.098   6.778 -0.4088 -3.4814  0.2305
   41DOPE  H18Z 5289   3.487  -0.211   6.686  0.0917 -0.7421  3.0830
   42DOPE     N 5290   1.227   5.682   4.104  0.3078 -0.1802 -0.3601
   42DOPE   HN1 5291   1.191   5.588   4.130  2.5353 -0.4110  2.2965
   42DOPE   HN2 5292   1.258   5.733   4.189  1.9308 -0.4413 -0.7631
   42DOPE   HN3 5293   1.158   5.744   4.056 -1.5400 -1.1428  0.9067
   42DOPE   C12 5294   1.351   5.657   4.035  0.2302 -0.0531  0.2034
   42DOPE  H12A 5295   1.397   5.752   4.000 -0.5327 -1.0216 -3.9744
   42DOPE  H12B 5296   1.324   5.592   3.948 -3.1186  1.2011  0.1780
   42DOPE   C11 5297   1.450   5.573   4.119 -0.0627 -0.3090 -0.5727
   42DOPE  H11A 5298   1.465   5.631   4.212 -1.1620  2.3100 -1.9078
   42DOPE  H11B 5299   1.547   5.569   4.066  0.5914 -1.1740  0.6650
   42DOPE     P 5300   1.455   5.316   4.068  0.3383  0.3530  0.3490
   42DOPE   O13 5301   1.585   5.337   4.006 -0.2041 -0.3156  0.0356
   42DOPE   O14 5302   1.350   5.279   3.967  0.1303 -0.3430 -0.0189
   42DOPE   O11 5303   1.458   5.203   4.179  0.0317  0.2529  1.0654
   42DOPE   O12 5304   1.400   5.441   4.153 -0.2389  0.1298  0.0051
   42DOPE    C1 5305   1.386   5.215   4.297  0.9043 -0.3123  0.6805
   42DOPE    HA 5306   1.360   5.110   4.323 -1.4746 -0.2230 -0.9659
   42DOPE    HB 5307   1.293   5.276   4.295  1.8800  1.2207  0.4367
   42DOPE    C2 5308   1.469   5.266   4.425 -0.1632 -0.7732  1.0304
   42DOPE    HS 5309   1.487   5.373   4.398  0.8147 -1.1253  0.1842
   42DOPE   O21 5310   1.595   5.190   4.439  0.1328  0.2713 -0.0132
   42DOPE   C21 5311   1.685   5.248   4.516  0.9813  0.0589 -0.0444
   42DOPE   O22 5312   1.689   5.367   4.545 -0.1037 -0.1463  0.6494
   42DOPE   C22 5313   1.792   5.159   4.562 -0.5822 -0.0615 -0.7461
   42DOPE   H2R 5314   1.876   5.215   4.607 -2.6016  0.3267  2.9291
   42DOPE   H2S 5315   1.825   5.092   4.480  1.8881  0.8791 -0.5877
   42DOPE    C3 5316   1.374   5.266   4.550 -0.2250 -0.2839 -0.0448
   42DOPE    HX 5317   1.351   5.157   4.558 -1.7031  0.0247  0.2565
   42DOPE    HY 5318   1.277   5.308   4.517  0.1752 -0.5783 -1.7018
   42DOPE   O31 5319   1.432   5.323   4.668 -0.0047 -0.5884  0.1863
   42DOPE   C31 5320   1.441   5.456   4.670 -0.4267 -0.3838 -0.3250
   42DOPE   O32 5321   1.402   5.528   4.585  0.1636  0.3416 -0.0866
   42DOPE   C32 5322   1.511   5.507   4.802 -0.2151  0.6788  0.2598
   42DOPE   H2X 5323   1.620   5.484   4.803 -0.1331  0.9213  2.7179
   42DOPE   H2Y 5324   1.502   5.617   4.801 -0.1728  0.7600 -2.8006
   42DOPE   C23 5325   1.739   5.067   4.682 -0.1955 -0.7036 -0.4522
   42DOPE   H3R 5326   1.793   4.970   4.680 -1.5657 -1.4881 -0.5864
   42DOPE   H3S 5327   1.630   5.054   4.665 -1.0418  2.8331  1.1923
   42DOPE   C24 5328   1.755   5.133   4.816  0.1280 -0.3661  0.2010
   42DOPE   H4R 5329   1.690   5.221   4.835  1.5776  0.5072  1.3343
   42DOPE   H4S 5330   1.860   5.169   4.824 -0.2719  0.7925  0.3672
   42DOPE   C25 5331   1.724   5.036   4.936  0.7262 -0.8243 -0.7898
   42DOPE   H5R 5332   1.773   4.937   4.926  0.2188 -1.3409  1.3525
   42DOPE   H5S 5333   1.619   5.001   4.939  0.4668 -0.0187 -0.1897
   42DOPE   C26 5334   1.745   5.099   5.081 -0.0730  0.8683  0.0023
   42DOPE   H6R 5335   1.676   5.187   5.081 -1.5943 -0.2948  0.4482
   42DOPE   H6S 5336   1.849   5.136   5.093  0.1474 -0.3593  2.4698
   42DOPE   C27 5337   1.709   5.002   5.203  0.0916  0.2079  0.0139
   42DOPE   H7R 5338   1.797   4.942   5.238 -0.1256  0.1590  0.4856
   42DOPE   H7S 5339   1.627   4.934   5.172 -0.6857  1.8469 -1.6972
   42DOPE   C28 5340   1.643   5.076   5.328 -0.0048 -0.0876 -0.6025
   42DOPE   H8R 5341   1.598   5.008   5.404 -0.4118 -2.1183 -2.5360
   42DOPE   H8S 5342   1.551   5.123   5.286 -1.8002 -2.9633 -0.1709
   42DOPE   C29 5343   1.736   5.186   5.371 -0.5561  0.2620  0.0864
   42DOPE   H9R 5344   1.748   5.270   5.302 -0.7001 -0.6514 -1.0810
   42DOPE  C210 5345   1.807   5.184   5.484  0.0608  0.5606  0.5810
   42DOPE  H10R 5346   1.865   5.271   5.518  0.9454  0.3721 -0.3810
   42DOPE  C211 5347   1.801   5.078   5.588 -0.4304  0.6228 -0.2530
   42DOPE  H11R 5348   1.909   5.061   5.611 -0.6340  0.3806  0.5774
   42DOPE  H11S 5349   1.756   4.985   5.549  0.2817 -0.3387  1.1066
   42DOPE  C212 5350   1.729   5.103   5.723  0.3046  0.1524  0.9013
   42DOPE  H12R 5351   1.800   5.164   5.784 -1.1331  1.2132  1.5653
   42DOPE  H12S 5352   1.712   5.006   5.774 -0.0460 -0.5680 -0.5283
   42DOPE  C213 5353   1.609   5.196   5.713 -0.3051  0.1913 -0.2027
   42DOPE  H13R 5354   1.522   5.141   5.672 -1.1671  0.2849  1.3897
   42DOPE  H13S 5355   1.626   5.290   5.657 -1.5132  0.3065 -0.4116
   42DOPE  C214 5356   1.573   5.234   5.859  0.4546  0.2364 -0.0432
   42DOPE  H14R 5357   1.657   5.272   5.921  0.3510  1.7809 -0.8073
   42DOPE  H14S 5358   1.529   5.146   5.911 -0.6020  0.7889  0.0366
   42DOPE  C215 5359   1.456   5.338   5.859  0.4021 -0.6863  0.7037
   42DOPE  H15R 5360   1.356   5.292   5.838  0.0247  0.1104  0.7330
   42DOPE  H15S 5361   1.487   5.420   5.791 -1.8137  1.1854  1.7846
   42DOPE  C216 5362   1.440   5.394   6.001 -0.1753 -1.1811 -0.4790
   42DOPE  H16R 5363   1.534   5.446   6.026 -1.3744  1.1001 -0.4293
   42DOPE  H16S 5364   1.419   5.320   6.081 -0.5645 -1.5984 -0.9538
   42DOPE  C217 5365   1.329   5.492   6.026 -0.4945 -0.3590  0.1339
   42DOPE  H17R 5366   1.236   5.455   5.978  0.4978 -1.7013 -0.8324
   42DOPE  H17S 5367   1.358   5.581   5.965 -1.1835 -1.6356 -2.2028
   42DOPE  C218 5368   1.306   5.518   6.175  0.0043  1.2166 -0.3804
   42DOPE  H18R 5369   1.400   5.495   6.230 -0.3997  2.0613  0.6978
   42DOPE  H18S 5370   1.219   5.457   6.208  2.3169 -1.8103  0.5859
   42DOPE  H18T 5371   1.284   5.624   6.197 -0.9305  1.3731 -1.8945
   42DOPE   C33 5372   1.458   5.461   4.935 -0.2835  0.1883  0.1869
   42DOPE   H3X 5373   1.498   5.361   4.962  0.7880  0.7432  0.7714
   42DOPE   H3Y 5374   1.348   5.461   4.927 -0.2756 -0.9326 -0.0009
   42DOPE   C34 5375   1.492   5.563   5.045  0.7886 -0.1267  0.6394
   42DOPE   H4X 5376   1.602   5.573   5.057  0.4349  2.1501  2.7359
   42DOPE   H4Y 5377   1.433   5.654   5.022 -1.9626 -1.9606 -0.1712
   42DOPE   C35 5378   1.446   5.511   5.185 -0.3515 -0.5709 -0.1604
   42DOPE   H5X 5379   1.473   5.587   5.261 -1.4619 -1.0441  0.7446
   42DOPE   H5Y 5380   1.515   5.424   5.194 -0.4571 -0.5035  1.6613
   42DOPE   C36 5381   1.297   5.483   5.197  0.3795  0.0935 -0.0995
   42DOPE   H6X 5382   1.268   5.398   5.132 -1.0854  0.5190 -0.0394
   42DOPE   H6Y 5383   1.245   5.574   5.162  0.3357  0.7695  1.6282
   42DOPE   C37 5384   1.243   5.460   5.343 -0.5705 -0.6943 -0.2228
   42DOPE   H7X 5385   1.137   5.427   5.349 -0.3203 -1.9827 -1.9010
   42DOPE   H7Y 5386   1.297   5.373   5.388 -0.4309  0.1596  1.3416
   42DOPE   C38 5387   1.274   5.576   5.442  0.2090  0.6006  0.0919
   42DOPE   H8X 5388   1.212   5.666   5.422 -0.7196 -0.2376 -0.9142
   42DOPE   H8Y 5389   1.379   5.608   5.424 -0.0871  1.0026 -0.9979
   42DOPE   C39 5390   1.264   5.536   5.588 -0.0180 -0.9838  0.2771
   42DOPE   H9X 5391   1.322   5.443   5.597  1.1746 -0.1959  0.9512
   42DOPE  C310 5392   1.193   5.600   5.684  0.5101  0.1171 -0.6086
   42DOPE  H10X 5393   1.211   5.563   5.786  1.3297 -2.9336 -1.7408
   42DOPE  C311 5394   1.105   5.722   5.670  0.3863 -0.3981  0.3491
   42DOPE  H11X 5395   1.124   5.782   5.578 -0.8694  1.9490  1.5396
   42DOPE  H11Y 5396   1.002   5.682   5.658  0.1979  0.3088 -0.4819
   42DOPE  C312 5397   1.106   5.816   5.788 -0.0061  0.0049 -0.4328
   42DOPE  H12X 5398   1.048   5.909   5.768  0.7149  0.5990  0.2029
   42DOPE  H12Y 5399   1.213   5.836   5.809  0.1737  0.4880 -1.7263
   42DOPE  C313 5400   1.034   5.747   5.910  0.5092 -0.0477  0.5179
   42DOPE  H13X 5401   0.937   5.715   5.865  0.3512  2.1919 -0.9064
   42DOPE  H13Y 5402   1.098   5.663   5.945 -0.0909 -0.2613  1.1345
   42DOPE  C314 5403   0.990   5.829   6.038  0.5442  0.0544  0.4402
   42DOPE  H14X 5404   0.915   5.904   6.007 -0.1359 -0.8189 -0.0934
   42DOPE  H14Y 5405   1.086   5.878   6.067  0.2574  2.0629 -1.7417
   42DOPE  C315 5406   0.925   5.732   6.141 -0.4771  0.0589 -0.2340
   42DOPE  H15X 5407   1.001   5.670   6.193 -1.7331 -0.4728  1.0444
   42DOPE  H15Y 5408   0.860   5.657   6.090  0.6933 -1.5689  0.5579
   42DOPE  C316 5409   0.838   5.803   6.243 -0.4870 -0.2649 -0.1129
   42DOPE  H16X 5410   0.752   5.858   6.199 -0.8419 -0.3525  0.4530
   42DOPE  H16Y 5411   0.903   5.868   6.306  0.7248 -0.2400 -1.3465
   42DOPE  C317 5412   0.770   5.693   6.336  0.2170 -0.3968 -0.1873
   42DOPE  H17X 5413   0.845   5.633   6.391  1.8429  2.5159  0.9768
   42DOPE  H17Y 5414   0.717   5.745   6.418  2.4646  0.4068  0.8174
   42DOPE  C318 5415   0.665   5.601   6.258 -0.3797 -0.4695 -1.0398
   42DOPE  H18X 5416   0.609   5.539   6.331  0.8805 -1.0832 -0.5606
   42DOPE  H18Y 5417   0.590   5.662   6.203  0.6345  0.2420 -1.6761
   42DOPE  H18Z 5418   0.711   5.543   6.175  0.3167  0.7733 -1.5523
   43DOPE     N 5419   1.885   4.277   4.116  0.4686 -0.6372 -0.0294
   43DOPE   HN1 5420   1.826   4.225   4.184 -0.7332  1.2218  0.4327
   43DOPE   HN2 5421   1.983   4.268   4.147  1.1557  4.1041 -0.0627
   43DOPE   HN3 5422   1.858   4.377   4.122  1.4682 -0.0737 -2.9430
   43DOPE   C12 5423   1.843   4.225   3.976 -0.1076 -0.5645 -0.7932
   43DOPE  H12A 5424   1.921   4.248   3.901  1.7127 -3.4659  0.0747
   43DOPE  H12B 5425   1.746   4.267   3.942  0.9776  0.6191 -2.5858
   43DOPE   C11 5426   1.833   4.070   3.963 -0.1817 -0.7808  0.4178
   43DOPE  H11A 5427   1.831   4.052   3.853  0.0772 -2.0395  0.6064
   43DOPE  H11B 5428   1.742   4.022   4.006 -0.9905 -0.8423 -1.2878
   43DOPE     P 5429   2.000   3.870   3.982 -0.0298 -0.6926 -0.3441
   43DOPE   O13 5430   2.096   3.881   3.869  0.0562 -0.2805  0.6848
   43DOPE   O14 5431   1.879   3.792   3.959  0.8464  0.4422 -0.1341
   43DOPE   O11 5432   2.072   3.822   4.113  0.1737 -0.0919  0.1347
   43DOPE   O12 5433   1.950   4.013   4.025 -0.2160  0.3946  0.0029
   43DOPE    C1 5434   2.170   3.909   4.170 -0.4409 -0.0657  0.1689
   43DOPE    HA 5435   2.145   4.016   4.154  2.8254  0.5527 -1.7165
   43DOPE    HB 5436   2.273   3.887   4.135 -0.4855  0.0091 -0.0091
   43DOPE    C2 5437   2.172   3.899   4.326  0.7086 -0.1024  0.6243
   43DOPE    HS 5438   2.250   3.972   4.357  1.5806 -0.6623 -0.2271
   43DOPE   O21 5439   2.201   3.762   4.367 -0.0128 -0.3411  0.1779
   43DOPE   C21 5440   2.329   3.738   4.372 -0.6529  0.7086 -0.0213
   43DOPE   O22 5441   2.420   3.820   4.349  0.7175  0.0007 -0.0199
   43DOPE   C22 5442   2.352   3.594   4.423 -0.3411 -0.2366  0.0587
   43DOPE   H2R 5443   2.458   3.569   4.439  0.4071  2.0507 -0.7958
   43DOPE   H2S 5444   2.323   3.519   4.346 -0.2108 -1.3984  1.1111
   43DOPE    C3 5445   2.030   3.930   4.382  0.1238 -0.1561  0.3216
   43DOPE    HX 5446   1.956   3.852   4.355 -0.0146  0.2055 -0.3458
   43DOPE    HY 5447   1.993   4.024   4.336 -0.7491 -0.3162  0.6654
   43DOPE   O31 5448   2.029   3.954   4.523 -0.5951  0.7769 -0.2245
   43DOPE   C31 5449   1.917   4.016   4.573 -1.2766 -0.3647  0.0331
   43DOPE   O32 5450   1.832   4.063   4.501 -0.4009 -0.3573 -0.6046
   43DOPE   C32 5451   1.925   4.023   4.727  0.0276  0.2625 -0.3458
   43DOPE   H2X 5452   1.943   3.922   4.768 -0.0468  0.6500  0.6614
   43DOPE   H2Y 5453   2.004   4.095   4.758  1.2329 -1.3138  0.3866
   43DOPE   C23 5454   2.259   3.549   4.544 -0.4176  0.8158  0.4981
   43DOPE   H3R 5455   2.268   3.443   4.574  2.9249  1.0317  0.6365
   43DOPE   H3S 5456   2.151   3.561   4.521 -0.1191  4.0907  0.3129
   43DOPE   C24 5457   2.295   3.631   4.674 -0.4267  0.6135  0.2431
   43DOPE   H4R 5458   2.260   3.735   4.657  1.7965  1.5260  0.9002
   43DOPE   H4S 5459   2.406   3.644   4.677 -0.3006  0.2134 -1.3981
   43DOPE   C25 5460   2.238   3.567   4.805  0.7856  0.3090  0.1807
   43DOPE   H5R 5461   2.298   3.476   4.826  0.2239 -0.6448 -1.9950
   43DOPE   H5S 5462   2.134   3.535   4.785  0.6285  0.7239  0.3237
   43DOPE   C26 5463   2.250   3.654   4.930  0.2294 -0.5281 -0.2659
   43DOPE   H6R 5464   2.356   3.671   4.958  0.5491 -2.2949 -0.2497
   43DOPE   H6S 5465   2.221   3.592   5.018  1.1343 -2.5862 -1.3545
   43DOPE   C27 5466   2.178   3.796   4.924  0.3491  0.5709  0.0972
   43DOPE   H7R 5467   2.070   3.782   4.904  0.2326 -1.2458  1.7321
   43DOPE   H7S 5468   2.227   3.846   4.838  0.4140 -0.6749 -0.6021
   43DOPE   C28 5469   2.191   3.869   5.052  0.0044  0.8116  0.0306
   43DOPE   H8R 5470   2.283   3.845   5.109 -0.2822 -0.6080 -0.0590
   43DOPE   H8S 5471   2.110   3.825   5.114 -1.2249 -0.0554 -2.0735
   43DOPE   C29 5472   2.185   4.016   5.028 -0.6499  0.6734 -0.2741
   43DOPE   H9R 5473   2.235   4.053   4.937 -1.3495  1.2254 -0.4460
   43DOPE  C210 5474   2.123   4.110   5.098 -0.7554 -0.2292 -1.0772
   43DOPE  H10R 5475   2.135   4.216   5.072 -1.1041  1.1286  3.4088
   43DOPE  C211 5476   2.040   4.101   5.228 -0.5432 -0.0172 -0.1478
   43DOPE  H11R 5477   2.028   3.999   5.269 -1.2548 -0.1168 -0.5955
   43DOPE  H11S 5478   1.937   4.138   5.210 -1.2969 -1.9423 -0.0229
   43DOPE  C212 5479   2.102   4.184   5.345 -0.1094  0.2542  0.0243
   43DOPE  H12R 5480   2.093   4.291   5.317  0.9055 -0.0122 -1.4479
   43DOPE  H12S 5481   2.211   4.164   5.353  0.7712  4.2869  0.4327
   43DOPE  C213 5482   2.029   4.164   5.476 -0.0796  0.7776  0.1536
   43DOPE  H13R 5483   2.017   4.057   5.505 -0.6332  0.7326 -0.2361
   43DOPE  H13S 5484   1.926   4.202   5.461 -0.3434  0.4929  1.1539
   43DOPE  C214 5485   2.092   4.245   5.588  0.0389  0.1659  0.2937
   43DOPE  H14R 5486   2.113   4.351   5.564 -0.1468  0.6897  2.2791
   43DOPE  H14S 5487   2.190   4.200   5.616 -0.5193 -1.3301 -0.0739
   43DOPE  C215 5488   2.017   4.237   5.715  0.3371 -0.4479  0.1346
   43DOPE  H15R 5489   1.990   4.134   5.747 -1.2797  0.1015  0.6868
   43DOPE  H15S 5490   1.916   4.279   5.696  0.2293 -1.0671 -0.6618
   43DOPE  C216 5491   2.096   4.302   5.831  0.7098 -0.3417  0.0946
   43DOPE  H16R 5492   2.121   4.408   5.811  1.5182 -0.3987  0.7303
   43DOPE  H16S 5493   2.184   4.238   5.854  0.0609 -0.9832  0.9153
   43DOPE  C217 5494   2.013   4.301   5.964 -0.0218  0.2008  0.3444
   43DOPE  H17R 5495   2.012   4.193   5.990  2.4846  0.1679  0.5508
   43DOPE  H17S 5496   1.914   4.345   5.942 -0.2533 -0.6817 -0.4359
   43DOPE  C218 5497   2.096   4.374   6.068 -0.3366 -0.2291 -1.2154
   43DOPE  H18R 5498   2.199   4.333   6.059 -0.2286  0.3556 -2.8619
   43DOPE  H18S 5499   2.065   4.361   6.174  1.5607  0.2778 -0.5541
   43DOPE  H18T 5500   2.097   4.485   6.065 -3.0126 -0.1557 -1.9814
   43DOPE   C33 5501   1.784   4.083   4.773  0.6386 -0.6164  0.3626
   43DOPE   H3X 5502   1.694   4.022   4.749 -0.7926  1.4892  0.1098
   43DOPE   H3Y 5503   1.771   4.185   4.729 -2.1046 -1.1784 -0.3389
   43DOPE   C34 5504   1.782   4.093   4.926 -0.3827 -0.5156  0.2535
   43DOPE   H4X 5505   1.789   3.993   4.975 -3.3313 -0.3478  1.2076
   43DOPE   H4Y 5506   1.858   4.161   4.969 -0.2987  0.2645 -1.0641
   43DOPE   C35 5507   1.637   4.136   4.959 -0.8556  0.2146 -0.6603
   43DOPE   H5X 5508   1.570   4.050   4.939 -0.9204 -0.1842  1.1507
   43DOPE   H5Y 5509   1.611   4.222   4.893 -0.2568 -0.1293 -1.3652
   43DOPE   C36 5510   1.620   4.195   5.097  0.0321 -0.4329 -0.1867
   43DOPE   H6X 5511   1.530   4.261   5.102 -0.1094 -0.5228 -1.2941
   43DOPE   H6Y 5512   1.708   4.254   5.129  0.6338 -1.0339 -0.7103
   43DOPE   C37 5513   1.600   4.083   5.197 -0.3825 -0.1473 -0.6253
   43DOPE   H7X 5514   1.511   4.022   5.173 -0.2593 -0.9340  0.8050
   43DOPE   H7Y 5515   1.692   4.023   5.184  1.2988  2.4406 -1.5882
   43DOPE   C38 5516   1.617   4.127   5.346  0.1370  0.3663 -0.2546
   43DOPE   H8X 5517   1.706   4.194   5.341  0.4930 -0.1822 -2.3034
   43DOPE   H8Y 5518   1.637   4.040   5.412 -1.5214  0.0068 -0.1973
   43DOPE   C39 5519   1.509   4.215   5.403 -0.5313  0.0399  0.0556
   43DOPE   H9X 5520   1.431   4.230   5.327  1.1004 -0.8796 -1.8949
   43DOPE  C310 5521   1.506   4.289   5.511  0.2470  0.2831 -0.1765
   43DOPE  H10X 5522   1.415   4.351   5.519 -0.0164  0.6845 -4.1588
   43DOPE  C311 5523   1.604   4.285   5.625 -0.3481  0.8256  0.2859
   43DOPE  H11X 5524   1.704   4.246   5.598 -1.2944 -0.8681 -0.8966
   43DOPE  H11Y 5525   1.623   4.391   5.653 -0.7274  1.6463 -2.2885
   43DOPE  C312 5526   1.551   4.221   5.752  0.6115 -0.4316  0.4121
   43DOPE  H12X 5527   1.446   4.256   5.766  0.4532  0.7717 -2.9447
   43DOPE  H12Y 5528   1.598   4.277   5.836  1.6280  1.5134 -1.3496
   43DOPE  C313 5529   1.554   4.071   5.749 -0.3728  0.4217 -0.1191
   43DOPE  H13X 5530   1.482   4.044   5.669  0.4666 -0.0926 -0.7169
   43DOPE  H13Y 5531   1.649   4.028   5.711 -0.5404  2.2314 -2.8404
   43DOPE  C314 5532   1.500   4.002   5.876  0.5004  0.6324  0.3269
   43DOPE  H14X 5533   1.532   4.056   5.967 -0.1107 -0.0195  0.9355
   43DOPE  H14Y 5534   1.535   3.897   5.872  1.5722  0.9737 -3.1976
   43DOPE  C315 5535   1.348   3.995   5.871  0.4906 -0.2450  0.5708
   43DOPE  H15X 5536   1.322   3.936   5.781  0.0500 -1.1038  1.2466
   43DOPE  H15Y 5537   1.299   4.092   5.846 -0.1437 -1.0836 -1.6362
   43DOPE  C316 5538   1.288   3.927   6.000 -0.6102  0.1627 -0.3451
   43DOPE  H16X 5539   1.296   4.002   6.082 -1.0744  1.9423 -1.8471
   43DOPE  H16Y 5540   1.348   3.840   6.034 -1.9507  0.0650  1.9845
   43DOPE  C317 5541   1.137   3.878   5.974  0.0976  0.4555  0.5302
   43DOPE  H17X 5542   1.110   3.834   6.073  1.3143  1.0623  1.1649
   43DOPE  H17Y 5543   1.075   3.970   5.970 -0.0923  0.3254  0.5212
   43DOPE  C318 5544   1.114   3.786   5.858  0.1755 -0.7571  0.0277
   43DOPE  H18X 5545   1.214   3.753   5.822 -0.2671  0.2529 -2.3354
   43DOPE  H18Y 5546   1.062   3.691   5.882 -1.3961  0.1539  0.3458
   43DOPE  H18Z 5547   1.041   3.833   5.789  0.9231  1.3712  0.5972
   44DOPE     N 5548   4.397   2.332   4.018 -0.2504 -0.2580  0.1054
   44DOPE   HN1 5549   4.481   2.271   4.014 -1.8249 -2.5920  0.6764
   44DOPE   HN2 5550   4.322   2.274   3.976  0.5293 -1.3795  0.2315
   44DOPE   HN3 5551   4.416   2.418   3.963 -0.2339 -0.8457 -0.8171
   44DOPE   C12 5552   4.349   2.385   4.154 -0.2996 -0.3180  0.9337
   44DOPE  H12A 5553   4.327   2.307   4.230 -0.8945 -1.6903 -0.6029
   44DOPE  H12B 5554   4.253   2.435   4.130 -0.3365 -0.1971  1.3157
   44DOPE   C11 5555   4.458   2.475   4.212 -0.2790  0.0758 -0.0098
   44DOPE  H11A 5556   4.545   2.417   4.249 -0.0989 -0.9086 -1.8273
   44DOPE  H11B 5557   4.417   2.534   4.296  1.8192  4.0330 -1.4989
   44DOPE     P 5558   4.465   2.687   4.057  0.1646 -0.0042 -0.0707
   44DOPE   O13 5559   4.326   2.654   4.015  0.0984 -0.5481 -0.5318
   44DOPE   O14 5560   4.556   2.743   3.951  0.4311  0.1157  0.0750
   44DOPE   O11 5561   4.476   2.777   4.179  1.0340 -0.2199 -0.9075
   44DOPE   O12 5562   4.530   2.559   4.116 -0.1326  0.0490  0.2097
   44DOPE    C1 5563   4.582   2.781   4.274 -0.6528 -0.6384  0.1182
   44DOPE    HA 5564   4.652   2.862   4.246 -0.7609 -0.0916  1.3289
   44DOPE    HB 5565   4.645   2.690   4.271 -0.8504 -0.7468 -1.7228
   44DOPE    C2 5566   4.523   2.794   4.418  0.3303  0.6444 -0.2217
   44DOPE    HS 5567   4.460   2.709   4.452 -0.8711  2.1661  1.5389
   44DOPE   O21 5568   4.454   2.917   4.433  0.6369  0.0782  0.2114
   44DOPE   C21 5569   4.371   2.926   4.525 -0.0858  0.3101 -0.0177
   44DOPE   O22 5570   4.313   2.834   4.583  0.1366 -0.7371  0.2853
   44DOPE   C22 5571   4.360   3.074   4.558  0.3998  0.5699 -0.3094
   44DOPE   H2R 5572   4.350   3.131   4.463  1.2206  2.0269  0.4471
   44DOPE   H2S 5573   4.459   3.113   4.589  1.1665 -0.3561 -1.5037
   44DOPE    C3 5574   4.641   2.792   4.520 -0.1155  0.4886  0.6607
   44DOPE    HX 5575   4.708   2.879   4.506 -0.0063  0.4613  1.0088
   44DOPE    HY 5576   4.710   2.710   4.489 -0.1107  1.2842 -1.6049
   44DOPE   O31 5577   4.604   2.781   4.658 -0.4136  0.0632  0.0715
   44DOPE   C31 5578   4.564   2.655   4.694  0.2280 -0.0911  0.1034
   44DOPE   O32 5579   4.585   2.556   4.628  0.1636  0.1891  0.0670
   44DOPE   C32 5580   4.505   2.661   4.835  0.1837 -0.0238  0.6506
   44DOPE   H2X 5581   4.546   2.755   4.878  2.1008 -0.3255 -0.4027
   44DOPE   H2Y 5582   4.396   2.678   4.833  0.1767  0.1253  1.6291
   44DOPE   C23 5583   4.263   3.124   4.664  0.4668  0.1375  0.2374
   44DOPE   H3R 5584   4.176   3.057   4.655 -0.3288  0.9221  1.6640
   44DOPE   H3S 5585   4.239   3.230   4.640  0.4673 -0.1940 -1.3046
   44DOPE   C24 5586   4.307   3.121   4.813  0.1647  0.4740 -0.4914
   44DOPE   H4R 5587   4.250   3.194   4.874  1.2244  0.5613  0.4375
   44DOPE   H4S 5588   4.407   3.169   4.811  0.5704 -0.1550  1.7841
   44DOPE   C25 5589   4.320   2.987   4.892  0.2523  0.1618  0.1212
   44DOPE   H5R 5590   4.386   2.919   4.833  1.8108  1.7538 -0.0217
   44DOPE   H5S 5591   4.216   2.946   4.897 -0.1404  1.0993 -0.2402
   44DOPE   C26 5592   4.371   3.005   5.041  0.4470 -0.5250  0.1220
   44DOPE   H6R 5593   4.468   3.059   5.035  0.8875 -1.2891  0.3373
   44DOPE   H6S 5594   4.389   2.901   5.073  0.4394 -0.2745  0.9594
   44DOPE   C27 5595   4.285   3.077   5.144  0.7606 -0.2798  0.4613
   44DOPE   H7R 5596   4.197   3.009   5.152  0.5362 -0.0682 -0.1773
   44DOPE   H7S 5597   4.252   3.180   5.118 -0.0362 -0.9707 -1.3952
   44DOPE   C28 5598   4.345   3.079   5.281 -0.1948 -0.2410 -0.1699
   44DOPE   H8R 5599   4.439   3.138   5.277  0.6445 -1.6232 -1.9163
   44DOPE   H8S 5600   4.374   2.976   5.310 -2.7441 -0.0870  3.5246
   44DOPE   C29 5601   4.254   3.131   5.384  0.2178 -0.1539 -0.8336
   44DOPE   H9R 5602   4.164   3.181   5.345  1.1663 -1.4263 -5.1308
   44DOPE  C210 5603   4.268   3.119   5.518  0.2590  0.2675  0.5901
   44DOPE  H10R 5604   4.176   3.129   5.578 -0.0062 -0.5403  0.3342
   44DOPE  C211 5605   4.392   3.064   5.597  0.1864 -0.0127  0.2669
   44DOPE  H11R 5606   4.486   3.094   5.548 -1.4494  0.4038 -2.8731
   44DOPE  H11S 5607   4.398   2.954   5.605  0.0598  0.0887  4.5013
   44DOPE  C212 5608   4.413   3.114   5.744 -0.5231 -0.1477 -0.4974
   44DOPE  H12R 5609   4.393   3.222   5.758  0.5774 -0.0470  0.4937
   44DOPE  H12S 5610   4.514   3.089   5.783 -0.6500 -0.0650 -0.1058
   44DOPE  C213 5611   4.308   3.048   5.832 -0.6569 -0.3188 -0.1441
   44DOPE  H13R 5612   4.296   2.938   5.831  1.6126 -0.6557  1.0556
   44DOPE  H13S 5613   4.209   3.092   5.808 -0.3214 -0.2451 -1.4406
   44DOPE  C214 5614   4.346   3.075   5.986  0.2448 -0.2873 -0.1356
   44DOPE  H14R 5615   4.333   3.184   6.000 -1.9637 -0.5600  0.3269
   44DOPE  H14S 5616   4.454   3.054   6.006  1.3839  2.4575 -2.7901
   44DOPE  C215 5617   4.266   3.021   6.096  0.1328 -0.1922 -0.2010
   44DOPE  H15R 5618   4.283   2.913   6.113 -2.8531 -0.8307 -0.6924
   44DOPE  H15S 5619   4.160   3.040   6.065  0.5270  1.1244 -0.8329
   44DOPE  C216 5620   4.279   3.074   6.237  0.3659 -0.1399 -0.1034
   44DOPE  H16R 5621   4.202   3.033   6.305  0.5598 -1.7255 -0.7798
   44DOPE  H16S 5622   4.250   3.181   6.225 -1.5782 -0.5619  0.5328
   44DOPE  C217 5623   4.413   3.043   6.294 -0.6163 -0.4656  0.3395
   44DOPE  H17R 5624   4.497   3.082   6.233 -0.8277 -1.7988 -0.8441
   44DOPE  H17S 5625   4.433   2.934   6.294  0.6640 -0.2604  1.1717
   44DOPE  C218 5626   4.429   3.091   6.438  0.1807 -0.4798  0.5513
   44DOPE  H18R 5627   4.423   3.201   6.430 -2.6238 -0.6531 -0.9635
   44DOPE  H18S 5628   4.526   3.060   6.483  0.4411  0.8536  0.9434
   44DOPE  H18T 5629   4.346   3.063   6.506  0.2046 -1.3952  0.2175
   44DOPE   C33 5630   4.547   2.551   4.932 -0.1612  0.2869 -0.2232
   44DOPE   H3X 5631   4.651   2.517   4.912  0.1442  0.1971  1.3864
   44DOPE   H3Y 5632   4.484   2.460   4.929 -1.3449  1.0988 -0.6631
   44DOPE   C34 5633   4.559   2.608   5.074 -0.5383 -0.0973  0.0116
   44DOPE   H4X 5634   4.645   2.678   5.075 -1.1581  0.7267  2.2857
   44DOPE   H4Y 5635   4.464   2.661   5.100  1.2246  1.5976  3.6623
   44DOPE   C35 5636   4.576   2.509   5.189  0.0778 -0.1353 -0.1028
   44DOPE   H5X 5637   4.663   2.440   5.189  0.3214  0.1471  1.3014
   44DOPE   H5Y 5638   4.489   2.442   5.176 -0.5434  0.4469  0.9373
   44DOPE   C36 5639   4.553   2.562   5.329 -0.1338 -1.3444 -0.5494
   44DOPE   H6X 5640   4.527   2.483   5.403 -0.2692  0.4221  1.3692
   44DOPE   H6Y 5641   4.471   2.637   5.323 -0.2160 -1.3180  0.6442
   44DOPE   C37 5642   4.679   2.631   5.386  0.5705  0.4074 -0.0979
   44DOPE   H7X 5643   4.770   2.573   5.361  0.9862  1.5488 -1.3947
   44DOPE   H7Y 5644   4.693   2.727   5.332  0.4518 -0.2938 -1.4260
   44DOPE   C38 5645   4.686   2.635   5.538  0.0456 -0.1118  0.7045
   44DOPE   H8X 5646   4.787   2.673   5.563  0.9003 -1.8727  0.1506
   44DOPE   H8Y 5647   4.690   2.533   5.581 -1.5608 -0.0365  1.0847
   44DOPE   C39 5648   4.571   2.718   5.592  0.1119  0.3318  0.0298
   44DOPE   H9X 5649   4.515   2.770   5.514 -1.5132 -0.6738  0.4838
   44DOPE  C310 5650   4.551   2.747   5.721  0.5773 -0.3190  0.3604
   44DOPE  H10X 5651   4.454   2.794   5.746 -0.6303 -1.3857 -1.9970
   44DOPE  C311 5652   4.609   2.676   5.841 -0.1961 -0.3969  0.0867
   44DOPE  H11X 5653   4.652   2.577   5.818  0.2131 -0.1175 -0.3813
   44DOPE  H11Y 5654   4.685   2.745   5.885 -1.2011  1.0160 -0.2984
   44DOPE  C312 5655   4.495   2.654   5.945 -0.2232 -0.7760  0.4517
   44DOPE  H12X 5656   4.400   2.613   5.904 -0.4899  0.1188  0.1369
   44DOPE  H12Y 5657   4.462   2.753   5.986  0.9113 -0.0907 -0.2366
   44DOPE  C313 5658   4.548   2.563   6.057 -0.3996  0.6121 -0.4983
   44DOPE  H13X 5659   4.562   2.460   6.018  0.3581 -0.0833  1.4980
   44DOPE  H13Y 5660   4.650   2.596   6.087 -0.4389 -0.7327  1.2559
   44DOPE  C314 5661   4.470   2.561   6.189 -0.3918  0.3135 -0.5444
   44DOPE  H14X 5662   4.373   2.509   6.176 -0.8143  0.8809  0.2605
   44DOPE  H14Y 5663   4.436   2.664   6.214 -0.5834 -0.1844  1.3893
   44DOPE  C315 5664   4.537   2.502   6.314 -0.0208 -0.8519 -0.0969
   44DOPE  H15X 5665   4.457   2.509   6.391  1.2586  0.4034  1.1933
   44DOPE  H15Y 5666   4.628   2.556   6.349  0.5110 -0.8686 -1.4132
   44DOPE  C316 5667   4.572   2.350   6.301 -0.3676  0.0244  0.2262
   44DOPE  H16X 5668   4.621   2.334   6.203 -0.5366  2.1992 -0.2583
   44DOPE  H16Y 5669   4.472   2.303   6.289  0.1446 -1.0334 -0.0931
   44DOPE  C317 5670   4.643   2.282   6.422  1.0405 -0.7499 -0.0498
   44DOPE  H17X 5671   4.606   2.329   6.515  0.0463  0.0183 -0.8075
   44DOPE  H17Y 5672   4.617   2.175   6.411  0.4698 -0.6879  0.6641
   44DOPE  C318 5673   4.795   2.314   6.415  0.3712 -0.1979  0.2938
   44DOPE  H18X 5674   4.857   2.277   6.500 -0.5515  1.1954  1.6169
   44DOPE  H18Y 5675   4.843   2.278   6.321 -1.9117 -0.9214 -0.6708
   44DOPE  H18Z 5676   4.810   2.424   6.410 -0.0641 -0.1807 -0.7811
   45DOPE     N 5677   4.732   2.467   3.500 -0.1913  0.4161  0.0512
   45DOPE   HN1 5678   4.686   2.558   3.519  1.1652  0.7792  1.9041
   45DOPE   HN2 5679   4.695   2.415   3.418  0.0412 -0.7885  0.6806
   45DOPE   HN3 5680   4.716   2.399   3.578 -0.0961 -0.1212 -0.3898
   45DOPE   C12 5681   4.874   2.498   3.483 -0.3375 -0.4051  0.3855
   45DOPE  H12A 5682   4.900   2.588   3.542  0.8483 -0.5055  0.0487
   45DOPE  H12B 5683   4.888   2.523   3.375  1.9621 -1.8813  0.2787
   45DOPE   C11 5684   4.972   2.380   3.524  0.2406 -0.1238  0.2784
   45DOPE  H11A 5685   5.073   2.418   3.498  0.9675 -2.1853 -0.1124
   45DOPE  H11B 5686   4.948   2.286   3.470 -1.0784 -0.2719  1.0719
   45DOPE     P 5687   4.894   2.245   3.733 -0.3176  0.5100 -0.0289
   45DOPE   O13 5688   4.950   2.113   3.712  0.0007 -0.2345 -0.1096
   45DOPE   O14 5689   4.756   2.274   3.690 -0.3587 -0.0357 -0.5800
   45DOPE   O11 5690   4.904   2.288   3.883 -0.1572 -0.2211 -0.1029
   45DOPE   O12 5691   4.983   2.353   3.661 -0.4654  0.5422  0.0634
   45DOPE    C1 5692   4.907   2.424   3.930  0.4227 -0.6981 -0.7267
   45DOPE    HA 5693   4.808   2.473   3.931  0.8140  0.1495 -1.9206
   45DOPE    HB 5694   4.960   2.494   3.862  0.6574 -2.2129 -2.1530
   45DOPE    C2 5695   4.974   2.428   4.060 -0.7092  0.0537 -0.7481
   45DOPE    HS 5696   5.080   2.412   4.029 -0.8851  0.2096 -1.4558
   45DOPE   O21 5697   4.918   2.320   4.143 -0.1739  0.0293 -0.1487
   45DOPE   C21 5698   5.005   2.228   4.184  0.6205  0.8717 -0.2415
   45DOPE   O22 5699   5.118   2.218   4.146 -0.4720 -0.2906  0.1900
   45DOPE   C22 5700   4.936   2.121   4.277 -0.6810 -0.4936  0.4403
   45DOPE   H2R 5701   5.022   2.055   4.299 -0.3167 -0.0954  0.2300
   45DOPE   H2S 5702   4.863   2.079   4.205  1.8264  1.3100 -3.5389
   45DOPE    C3 5703   4.963   2.565   4.140 -0.1765 -0.2395 -0.2538
   45DOPE    HX 5704   4.854   2.560   4.164 -0.6904  0.7392 -2.1570
   45DOPE    HY 5705   4.990   2.649   4.073  0.7470  0.2114  0.6677
   45DOPE   O31 5706   5.035   2.573   4.260  0.2657 -0.4026 -0.0004
   45DOPE   C31 5707   4.994   2.659   4.342 -0.1289 -0.3991 -0.0270
   45DOPE   O32 5708   4.908   2.741   4.323  0.2743 -0.3022 -0.1157
   45DOPE   C32 5709   5.062   2.639   4.477 -0.2175 -0.0802 -0.4768
   45DOPE   H2X 5710   5.073   2.529   4.487  1.3308  0.2125  2.0310
   45DOPE   H2Y 5711   5.165   2.678   4.490 -0.3331  0.4475 -1.0770
   45DOPE   C23 5712   4.875   2.187   4.401 -0.1889 -0.0337 -0.3907
   45DOPE   H3R 5713   4.824   2.100   4.448  0.0267 -0.5485 -1.1047
   45DOPE   H3S 5714   4.796   2.256   4.363  0.8322  0.5090 -1.5842
   45DOPE   C24 5715   4.970   2.253   4.502 -0.3835 -0.7060  0.2109
   45DOPE   H4R 5716   5.016   2.342   4.453  0.7239 -0.7205  1.1620
   45DOPE   H4S 5717   5.061   2.196   4.531  1.4090  1.9156  0.1367
   45DOPE   C25 5718   4.906   2.301   4.633  0.2404  1.2588  0.3194
   45DOPE   H5R 5719   4.816   2.365   4.621 -0.9757 -0.3137  0.6119
   45DOPE   H5S 5720   4.991   2.354   4.679  0.3331  1.7268 -0.3822
   45DOPE   C26 5721   4.875   2.179   4.725  0.0933  0.2651  0.6926
   45DOPE   H6R 5722   4.977   2.141   4.748  0.4468 -0.9465 -2.4135
   45DOPE   H6S 5723   4.821   2.097   4.673  1.3466  0.9120 -1.7304
   45DOPE   C27 5724   4.803   2.222   4.846  0.9270  0.4983 -0.3753
   45DOPE   H7R 5725   4.701   2.263   4.832  1.6476  2.7842  0.6954
   45DOPE   H7S 5726   4.858   2.309   4.887 -0.6558  0.2426  2.5457
   45DOPE   C28 5727   4.808   2.114   4.957 -0.5572  0.0758  1.0259
   45DOPE   H8R 5728   4.915   2.110   4.987 -0.4066 -0.0654  0.4870
   45DOPE   H8S 5729   4.765   2.018   4.921 -1.9078  1.0714 -0.1295
   45DOPE   C29 5730   4.725   2.155   5.076 -0.1599  0.8475  0.4751
   45DOPE   H9R 5731   4.616   2.155   5.056  0.0267 -0.7968 -0.7341
   45DOPE  C210 5732   4.764   2.191   5.195 -0.3996  0.4724 -0.3573
   45DOPE  H10R 5733   4.684   2.195   5.271  2.1400  1.8258  2.4608
   45DOPE  C211 5734   4.911   2.194   5.240 -0.6581  0.0571  0.3650
   45DOPE  H11R 5735   4.971   2.250   5.166 -1.3404 -1.3694 -1.3406
   45DOPE  H11S 5736   4.953   2.091   5.231  0.8717  0.6820  0.0269
   45DOPE  C212 5737   4.933   2.254   5.382 -0.2434  0.1303  0.1834
   45DOPE  H12R 5738   4.931   2.364   5.373 -1.6809  0.1630  0.7341
   45DOPE  H12S 5739   5.039   2.233   5.408 -1.0940 -0.5556  3.6104
   45DOPE  C213 5740   4.840   2.194   5.480  0.1317  0.1144 -0.1955
   45DOPE  H13R 5741   4.815   2.092   5.442  1.7087  0.0594 -1.1815
   45DOPE  H13S 5742   4.755   2.262   5.499 -0.2632 -0.8012  1.5115
   45DOPE  C214 5743   4.911   2.164   5.609 -0.5461 -0.1868 -0.3496
   45DOPE  H14R 5744   4.966   2.251   5.649  0.0107 -1.0137  0.7348
   45DOPE  H14S 5745   4.984   2.081   5.600 -0.1306  0.0242  0.8601
   45DOPE  C215 5746   4.821   2.120   5.723 -0.3495  0.2245  0.1694
   45DOPE  H15R 5747   4.756   2.039   5.685 -1.7098  1.6549 -0.6698
   45DOPE  H15S 5748   4.753   2.199   5.763 -0.6794 -0.9242  1.9772
   45DOPE  C216 5749   4.912   2.070   5.843 -0.1179 -0.5479 -0.1518
   45DOPE  H16R 5750   4.965   2.155   5.891 -0.0990 -0.2875 -0.6312
   45DOPE  H16S 5751   4.982   2.001   5.792 -1.1161 -1.6704 -0.0462
   45DOPE  C217 5752   4.840   1.995   5.956 -0.2529 -0.3627 -0.0451
   45DOPE  H17R 5753   4.912   1.968   6.037  1.8338 -0.8666 -1.9553
   45DOPE  H17S 5754   4.806   1.897   5.918  0.9792 -0.7566 -0.1714
   45DOPE  C218 5755   4.723   2.066   6.014  0.0125 -0.2760 -0.5243
   45DOPE  H18R 5756   4.655   2.106   5.935 -0.5016  1.1169  0.5732
   45DOPE  H18S 5757   4.758   2.155   6.071 -1.4398  0.4828 -0.7645
   45DOPE  H18T 5758   4.665   1.998   6.080  0.8679 -0.5174  0.0001
   45DOPE   C33 5759   4.979   2.690   4.597 -0.3046  0.0761 -0.6845
   45DOPE   H3X 5760   4.887   2.628   4.609 -1.2377  1.4590 -0.4462
   45DOPE   H3Y 5761   4.946   2.795   4.584  0.0989  0.1293 -1.3138
   45DOPE   C34 5762   5.066   2.680   4.728 -0.2430 -0.3072 -0.2134
   45DOPE   H4X 5763   5.093   2.573   4.743  2.8211  0.0910 -2.1085
   45DOPE   H4Y 5764   5.155   2.741   4.704 -0.7026 -0.6136 -3.1326
   45DOPE   C35 5765   4.989   2.728   4.843 -0.0408  0.3568 -0.0377
   45DOPE   H5X 5766   4.882   2.702   4.831 -0.0842 -0.3090  1.4704
   45DOPE   H5Y 5767   4.996   2.839   4.848  0.6801  0.5435 -3.1297
   45DOPE   C36 5768   5.051   2.661   4.967  0.0340  0.3370 -1.1740
   45DOPE   H6X 5769   5.159   2.684   4.956  0.5038  0.3366  2.3364
   45DOPE   H6Y 5770   5.045   2.551   4.966  0.9758  0.2482  0.1644
   45DOPE   C37 5771   5.011   2.732   5.104  0.2979  0.2156 -0.3494
   45DOPE   H7X 5772   5.051   2.835   5.102 -0.9406  0.7109 -0.0066
   45DOPE   H7Y 5773   4.902   2.750   5.110  0.1943 -0.2350 -0.7808
   45DOPE   C38 5774   5.066   2.652   5.233  0.1042  0.1250  0.6596
   45DOPE   H8X 5775   5.015   2.554   5.234  0.7435 -0.2216  0.2169
   45DOPE   H8Y 5776   5.021   2.721   5.308 -3.0316  0.2905 -1.2167
   45DOPE   C39 5777   5.216   2.646   5.230 -0.2079 -0.9916 -0.4175
   45DOPE   H9X 5778   5.264   2.571   5.164 -0.4543 -0.6537 -0.9864
   45DOPE  C310 5779   5.291   2.721   5.315  0.3097 -0.2906 -0.8033
   45DOPE  H10X 5780   5.400   2.706   5.306  0.4340 -0.8131  1.1546
   45DOPE  C311 5781   5.238   2.825   5.420 -0.0459 -0.3174  0.2516
   45DOPE  H11X 5782   5.294   2.918   5.399  0.0934 -0.7785 -1.5226
   45DOPE  H11Y 5783   5.130   2.851   5.407  0.2260  0.6074 -0.2231
   45DOPE  C312 5784   5.263   2.787   5.563  0.0238 -0.7153  0.0627
   45DOPE  H12X 5785   5.199   2.860   5.617  1.8212  1.0240 -0.0627
   45DOPE  H12Y 5786   5.368   2.800   5.597 -0.2189 -0.5917  0.7780
   45DOPE  C313 5787   5.209   2.634   5.594  0.5134 -0.6149 -0.2444
   45DOPE  H13X 5788   5.113   2.640   5.538  0.4384 -0.4104 -0.0938
   45DOPE  H13Y 5789   5.281   2.568   5.542  2.1337  0.4683  0.5615
   45DOPE  C314 5790   5.195   2.599   5.748 -0.3468  0.1409  0.0416
   45DOPE  H14X 5791   5.142   2.680   5.803  1.7605  1.6036  0.0755
   45DOPE  H14Y 5792   5.297   2.586   5.792 -1.0699 -1.7007  1.2635
   45DOPE  C315 5793   5.116   2.471   5.770 -0.4247  0.6364  0.1565
   45DOPE  H15X 5794   5.146   2.384   5.708 -2.9772 -0.3293  0.1483
   45DOPE  H15Y 5795   5.011   2.481   5.734 -1.2092 -3.0489  0.9388
   45DOPE  C316 5796   5.115   2.435   5.921 -0.2213  0.1224  0.7772
   45DOPE  H16X 5797   5.203   2.463   5.982 -1.6502 -0.6821  3.3425
   45DOPE  H16Y 5798   5.111   2.325   5.939 -0.0250  0.3474  2.3391
   45DOPE  C317 5799   4.996   2.493   5.999 -0.3205 -0.7602 -0.1480
   45DOPE  H17X 5800   4.992   2.602   5.978 -1.6257 -0.6304  0.6447
   45DOPE  H17Y 5801   4.903   2.451   5.956 -0.6750 -1.4703  1.2375
   45DOPE  C318 5802   4.994   2.462   6.154 -0.3546  0.2708 -0.4983
   45DOPE  H18X 5803   5.054   2.370   6.169  0.4059  0.6749 -1.0066
   45DOPE  H18Y 5804   5.036   2.543   6.217  0.6192  2.2925 -3.5076
   45DOPE  H18Z 5805   4.894   2.437   6.194 -0.3360 -2.3846 -1.9020
   46DOPE     N 5806   5.104   6.553   3.531 -0.6121 -0.6951  0.3450
   46DOPE   HN1 5807   5.166   6.496   3.470 -0.1247  1.8556 -1.7245
   46DOPE   HN2 5808   5.007   6.535   3.497 -1.6871  0.6386  2.4890
   46DOPE   HN3 5809   5.116   6.652   3.502 -0.4070 -1.2320 -1.5434
   46DOPE   C12 5810   5.104   6.517   3.676  0.2275  0.3211 -0.4072
   46DOPE  H12A 5811   5.177   6.586   3.724  0.2801  0.6195 -0.9034
   46DOPE  H12B 5812   5.107   6.407   3.687 -1.3851  0.0109 -2.3198
   46DOPE   C11 5813   4.968   6.549   3.735  0.1719  0.2920 -0.1542
   46DOPE  H11A 5814   4.975   6.526   3.843  4.1629  1.2321 -0.0481
   46DOPE  H11B 5815   4.901   6.473   3.690  1.1073 -1.0021  0.5752
   46DOPE     P 5816   4.821   6.751   3.799  0.3710  0.2433  0.7222
   46DOPE   O13 5817   4.706   6.657   3.823  0.3567 -0.1989  0.1214
   46DOPE   O14 5818   4.783   6.879   3.744  0.0293 -0.2960  0.0852
   46DOPE   O11 5819   4.902   6.784   3.925 -0.0666 -0.7800  0.1145
   46DOPE   O12 5820   4.932   6.683   3.699  1.0000  0.5722 -0.2774
   46DOPE    C1 5821   5.034   6.847   3.919 -0.6137 -0.5148  0.4461
   46DOPE    HA 5822   5.028   6.954   3.891 -0.5104 -0.5832  0.1600
   46DOPE    HB 5823   5.097   6.790   3.847 -1.2259 -0.1918 -0.3704
   46DOPE    C2 5824   5.094   6.850   4.065 -0.2942  0.6021 -0.3779
   46DOPE    HS 5825   5.092   6.745   4.102 -0.7264 -0.0278 -2.0835
   46DOPE   O21 5826   5.014   6.937   4.149  0.0066  0.3003 -0.7717
   46DOPE   C21 5827   4.917   6.893   4.231 -0.0172  0.0900  0.1884
   46DOPE   O22 5828   4.883   6.777   4.252 -0.5918  0.3338  0.2909
   46DOPE   C22 5829   4.860   7.010   4.312  0.7185 -0.2504 -0.4987
   46DOPE   H2R 5830   4.779   6.963   4.371 -0.3446  1.2920 -0.6730
   46DOPE   H2S 5831   4.810   7.078   4.239 -0.4157 -0.4095  0.1246
   46DOPE    C3 5832   5.234   6.914   4.071 -0.5499  0.2340 -0.1556
   46DOPE    HX 5833   5.221   7.023   4.061 -0.3242  0.3692  0.9015
   46DOPE    HY 5834   5.294   6.875   3.986 -0.1136  0.3316  0.1033
   46DOPE   O31 5835   5.305   6.887   4.194  0.0447 -0.0906  0.4636
   46DOPE   C31 5836   5.372   6.772   4.209 -0.1608 -0.5549 -0.2040
   46DOPE   O32 5837   5.385   6.681   4.128 -0.1141  0.2664  0.1293
   46DOPE   C32 5838   5.422   6.773   4.353  0.1809 -0.1844  0.4319
   46DOPE   H2X 5839   5.452   6.878   4.375 -1.2762  0.4868 -0.6316
   46DOPE   H2Y 5840   5.340   6.754   4.427 -0.6152  1.0596 -0.1024
   46DOPE   C23 5841   4.964   7.077   4.402  0.1886 -0.2237  0.0918
   46DOPE   H3R 5842   4.906   7.157   4.453 -2.2537 -0.2605 -2.3876
   46DOPE   H3S 5843   5.051   7.122   4.348  1.4188 -0.2018  1.9972
   46DOPE   C24 5844   5.029   6.986   4.500  0.3423  0.9013  0.0069
   46DOPE   H4R 5845   5.061   6.889   4.454 -0.1872  0.6070  0.2487
   46DOPE   H4S 5846   4.955   6.958   4.578 -0.2012  2.3392  0.0390
   46DOPE   C25 5847   5.149   7.051   4.562 -0.8300  0.4797  0.2964
   46DOPE   H5R 5848   5.134   7.161   4.573  0.2220  0.6345  0.3360
   46DOPE   H5S 5849   5.230   7.043   4.486 -0.8535  0.8134  0.2324
   46DOPE   C26 5850   5.204   6.983   4.689  0.5733  0.5553  0.7126
   46DOPE   H6R 5851   5.238   6.883   4.655 -0.3042  0.8454 -1.1729
   46DOPE   H6S 5852   5.125   6.974   4.767 -3.1878  2.8395 -2.4888
   46DOPE   C27 5853   5.335   7.046   4.735  0.1830 -0.4965 -0.7564
   46DOPE   H7R 5854   5.315   7.143   4.786  2.4990 -0.6220  0.5003
   46DOPE   H7S 5855   5.396   7.076   4.648  3.7092  1.6540  2.1835
   46DOPE   C28 5856   5.421   6.962   4.820  0.4094 -0.3320  1.0319
   46DOPE   H8R 5857   5.449   6.866   4.772 -0.4907 -0.3909  0.6133
   46DOPE   H8S 5858   5.368   6.934   4.913  1.3703  0.1437  1.7424
   46DOPE   C29 5859   5.541   7.038   4.863 -1.0987  0.1525 -0.6146
   46DOPE   H9R 5860   5.606   7.063   4.778 -0.4933 -0.2950 -0.2968
   46DOPE  C210 5861   5.572   7.095   4.987 -0.2720  0.0567 -0.7631
   46DOPE  H10R 5862   5.671   7.140   5.001 -0.1848 -0.6678  1.2397
   46DOPE  C211 5863   5.487   7.082   5.110 -0.0981 -0.6524  0.2951
   46DOPE  H11R 5864   5.380   7.068   5.084 -0.1232 -0.1665  0.1457
   46DOPE  H11S 5865   5.490   7.178   5.166 -2.2603 -0.3294 -0.0464
   46DOPE  C212 5866   5.531   6.980   5.218 -0.4856 -0.0791 -0.9563
   46DOPE  H12R 5867   5.627   7.021   5.257 -0.8017  0.7172 -1.0005
   46DOPE  H12S 5868   5.559   6.882   5.174  0.2557 -1.2773  1.9392
   46DOPE  C213 5869   5.439   6.956   5.343 -0.0659 -0.0919 -0.5034
   46DOPE  H13R 5870   5.489   6.891   5.418  0.5106  3.1330  2.1331
   46DOPE  H13S 5871   5.342   6.918   5.304 -0.0503  0.6498 -1.3018
   46DOPE  C214 5872   5.407   7.082   5.423 -0.5288 -0.0322 -0.0479
   46DOPE  H14R 5873   5.344   7.141   5.353 -3.5754  0.6577  3.0018
   46DOPE  H14S 5874   5.497   7.136   5.459 -2.3221  3.2171 -0.0162
   46DOPE  C215 5875   5.310   7.050   5.545  0.5691  0.1434  0.6192
   46DOPE  H15R 5876   5.357   6.967   5.601  0.8064  0.0571  0.2978
   46DOPE  H15S 5877   5.215   7.010   5.505 -0.4336  1.3367  1.7206
   46DOPE  C216 5878   5.290   7.176   5.631  0.5745 -0.0812 -0.4388
   46DOPE  H16R 5879   5.247   7.252   5.563  0.2229  0.6162  0.5349
   46DOPE  H16S 5880   5.386   7.214   5.672  0.1036  0.4143  0.2170
   46DOPE  C217 5881   5.194   7.149   5.751 -0.2129 -0.5417  0.5064
   46DOPE  H17R 5882   5.099   7.141   5.692  1.0980  1.4595 -2.1082
   46DOPE  H17S 5883   5.190   7.245   5.807  1.1809 -0.4429  0.4718
   46DOPE  C218 5884   5.237   7.031   5.834 -0.1072 -0.0515 -0.1752
   46DOPE  H18R 5885   5.234   6.940   5.771 -0.5359  0.0840 -0.3556
   46DOPE  H18S 5886   5.169   7.017   5.921 -0.6321 -0.5342 -0.6581
   46DOPE  H18T 5887   5.339   7.046   5.876 -1.3235  1.7330  2.4886
   46DOPE   C33 5888   5.528   6.659   4.376 -0.2878 -1.2217 -1.2796
   46DOPE   H3X 5889   5.605   6.681   4.299  0.5523 -0.1751 -0.1716
   46DOPE   H3Y 5890   5.484   6.557   4.369 -2.6861 -0.5402  1.9008
   46DOPE   C34 5891   5.569   6.675   4.520  0.2088 -0.2989  0.5029
   46DOPE   H4X 5892   5.639   6.761   4.531 -0.0913 -0.1250  1.1550
   46DOPE   H4Y 5893   5.480   6.690   4.586 -0.4334 -2.4749  0.2048
   46DOPE   C35 5894   5.644   6.548   4.577  0.0462 -0.4549 -0.2975
   46DOPE   H5X 5895   5.732   6.522   4.514 -0.5438  0.4939 -1.5663
   46DOPE   H5Y 5896   5.581   6.457   4.588  0.4825 -0.7635 -0.3105
   46DOPE   C36 5897   5.710   6.576   4.710  0.0189  0.0336 -0.2922
   46DOPE   H6X 5898   5.634   6.625   4.775  0.1256 -3.5085  2.8852
   46DOPE   H6Y 5899   5.786   6.654   4.691 -1.4576  1.3903 -0.8343
   46DOPE   C37 5900   5.758   6.456   4.798  0.2501 -0.5733  0.2672
   46DOPE   H7X 5901   5.681   6.379   4.819  0.9333 -2.0024 -2.1097
   46DOPE   H7Y 5902   5.844   6.409   4.745 -0.0139 -0.0575 -0.6323
   46DOPE   C38 5903   5.809   6.499   4.941 -0.2812 -0.4508 -0.0024
   46DOPE   H8X 5904   5.894   6.570   4.926 -0.1734 -1.0623 -2.8430
   46DOPE   H8Y 5905   5.850   6.411   4.995  1.1169 -0.4777 -1.0606
   46DOPE   C39 5906   5.715   6.567   5.043 -0.1633 -0.5643 -0.4796
   46DOPE   H9X 5907   5.608   6.586   5.027 -0.5616 -1.0859  1.3652
   46DOPE  C310 5908   5.762   6.573   5.172  0.1253  0.6043  0.9016
   46DOPE  H10X 5909   5.687   6.603   5.246  1.8022  1.1014  2.4521
   46DOPE  C311 5910   5.900   6.529   5.223 -0.6011  0.0321 -0.5340
   46DOPE  H11X 5911   5.969   6.491   5.144  0.8838  1.7061 -0.1011
   46DOPE  H11Y 5912   5.948   6.620   5.265 -0.2603 -0.6380  0.5616
   46DOPE  C312 5913   5.906   6.424   5.343  0.5244 -0.4561 -0.2475
   46DOPE  H12X 5914   6.011   6.400   5.374  0.3596  0.9605  1.5984
   46DOPE  H12Y 5915   5.877   6.325   5.302 -0.2610 -0.7045  0.8620
   46DOPE  C313 5916   5.825   6.470   5.472 -0.2561 -0.3053  0.6254
   46DOPE  H13X 5917   5.720   6.446   5.446  0.5592 -0.2356 -3.5010
   46DOPE  H13Y 5918   5.861   6.402   5.552  0.0885 -0.4448  0.3539
   46DOPE  C314 5919   5.850   6.605   5.532  0.1062  0.0379 -0.4227
   46DOPE  H14X 5920   5.825   6.685   5.459  0.8943 -0.2350 -0.9951
   46DOPE  H14Y 5921   5.959   6.620   5.542  0.2534  0.3640 -2.2341
   46DOPE  C315 5922   5.774   6.632   5.660  0.4592 -0.0231  0.2886
   46DOPE  H15X 5923   5.836   6.589   5.742  1.1069 -1.6728 -0.9965
   46DOPE  H15Y 5924   5.676   6.582   5.649  0.3307  0.1231  0.7307
   46DOPE  C316 5925   5.750   6.783   5.681 -0.3769  0.5591 -0.1256
   46DOPE  H16X 5926   5.731   6.831   5.582 -2.3126  1.7853  0.7879
   46DOPE  H16Y 5927   5.824   6.841   5.739 -0.8825  0.0521  1.0624
   46DOPE  C317 5928   5.610   6.812   5.738  0.3421 -0.0511 -0.1209
   46DOPE  H17X 5929   5.627   6.918   5.766 -2.1586  0.9368 -1.9893
   46DOPE  H17Y 5930   5.532   6.810   5.659  1.5260  0.8601 -1.3651
   46DOPE  C318 5931   5.556   6.732   5.859 -0.0380 -0.2051  0.2618
   46DOPE  H18X 5932   5.543   6.624   5.837 -2.4400 -0.1601  1.2180
   46DOPE  H18Y 5933   5.628   6.739   5.944 -0.2251  0.9363  0.3414
   46DOPE  H18Z 5934   5.452   6.761   5.885 -0.3489  0.2085 -1.3382
   47DOPE     N 5935   2.811   1.136   3.844 -0.2491  0.1608 -0.4105
   47DOPE   HN1 5936   2.888   1.082   3.801  0.4158  0.4994  0.3353
   47DOPE   HN2 5937   2.779   1.212   3.780 -1.2090  2.8710  2.9927
   47DOPE   HN3 5938   2.843   1.181   3.932 -1.2405 -1.8658  1.0614
   47DOPE   C12 5939   2.700   1.040   3.886  0.2103  0.0415  0.0729
   47DOPE  H12A 5940   2.715   0.940   3.840 -1.6650 -0.5475  0.6660
   47DOPE  H12B 5941   2.605   1.084   3.848  0.5301  0.5845 -0.1184
   47DOPE   C11 5942   2.705   1.008   4.036  0.7829 -1.0530 -0.0919
   47DOPE  H11A 5943   2.619   0.943   4.062 -0.1204  0.0887 -0.1477
   47DOPE  H11B 5944   2.702   1.100   4.099  0.0863 -0.0432 -1.5215
   47DOPE     P 5945   2.952   0.966   4.126 -0.0453 -0.5162  0.0866
   47DOPE   O13 5946   3.003   1.091   4.069  0.3982  0.3065 -0.2972
   47DOPE   O14 5947   3.047   0.853   4.102 -0.0620 -0.0048 -0.4306
   47DOPE   O11 5948   2.932   0.985   4.279  0.0802  0.2452 -0.2304
   47DOPE   O12 5949   2.818   0.921   4.065 -0.4686  0.2633  0.6175
   47DOPE    C1 5950   2.862   1.098   4.336 -0.2769 -0.1283  0.5522
   47DOPE    HA 5951   2.753   1.078   4.337 -0.9717  3.1341  0.2017
   47DOPE    HB 5952   2.878   1.193   4.280 -2.0991  1.1152  2.0015
   47DOPE    C2 5953   2.887   1.123   4.489  0.1006  0.4318 -0.3794
   47DOPE    HS 5954   2.993   1.151   4.506  0.5264 -1.2653 -0.0643
   47DOPE   O21 5955   2.848   1.006   4.565 -0.1996  0.3313  0.1908
   47DOPE   C21 5956   2.951   0.919   4.585  0.8738 -0.4604  0.7733
   47DOPE   O22 5957   3.069   0.950   4.577  0.1337 -0.3626  0.3283
   47DOPE   C22 5958   2.897   0.798   4.659 -0.1338  0.0958  0.0007
   47DOPE   H2R 5959   2.978   0.722   4.665  0.0018  0.2358 -0.0540
   47DOPE   H2S 5960   2.813   0.757   4.599 -0.2150 -0.3774  0.4332
   47DOPE    C3 5961   2.800   1.244   4.529  0.4108 -0.1717  0.8171
   47DOPE    HX 5962   2.691   1.230   4.508  0.8267 -0.5785 -1.3569
   47DOPE    HY 5963   2.835   1.329   4.466  2.2359 -0.1405  1.8310
   47DOPE   O31 5964   2.815   1.281   4.670  0.2532  0.1848  0.0375
   47DOPE   C31 5965   2.923   1.359   4.696 -0.3541 -1.0639 -0.1173
   47DOPE   O32 5966   3.008   1.397   4.614 -0.4413 -0.1540  0.0999
   47DOPE   C32 5967   2.921   1.407   4.841 -0.8747  1.1955  0.1132
   47DOPE   H2X 5968   2.856   1.497   4.844 -1.3506  0.8851 -0.6183
   47DOPE   H2Y 5969   2.868   1.325   4.894 -0.4821 -0.2706 -1.6734
   47DOPE   C23 5970   2.850   0.832   4.805 -0.1248  0.9492 -0.9231
   47DOPE   H3R 5971   2.828   0.745   4.869  0.4368  1.1504 -0.4483
   47DOPE   H3S 5972   2.758   0.893   4.796 -0.8677 -0.2063 -1.3602
   47DOPE   C24 5973   2.966   0.908   4.873 -0.3731 -0.7929 -0.4203
   47DOPE   H4R 5974   2.943   1.013   4.844 -1.7386 -0.8771  0.3307
   47DOPE   H4S 5975   3.064   0.870   4.837 -1.4752 -3.4452 -0.7881
   47DOPE   C25 5976   2.961   0.907   5.024  0.1938  0.1692  0.2521
   47DOPE   H5R 5977   2.989   0.805   5.057 -0.7480 -0.2370 -0.1913
   47DOPE   H5S 5978   2.862   0.936   5.064  0.7094  1.3456  0.7455
   47DOPE   C26 5979   3.064   0.998   5.090  0.1330 -0.0250  0.4811
   47DOPE   H6R 5980   3.036   1.102   5.062 -0.0853 -0.0836  0.4796
   47DOPE   H6S 5981   3.168   0.975   5.057 -0.4119  1.5977 -2.8490
   47DOPE   C27 5982   3.056   1.002   5.248 -0.4635  0.2911  0.6593
   47DOPE   H7R 5983   3.076   0.896   5.275 -0.9184 -0.0358 -0.2498
   47DOPE   H7S 5984   2.958   1.030   5.292 -0.6822 -2.5084  2.2497
   47DOPE   C28 5985   3.165   1.099   5.298 -0.5246  0.7373 -0.7711
   47DOPE   H8R 5986   3.181   1.188   5.232 -0.7554  3.4242  2.5193
   47DOPE   H8S 5987   3.263   1.047   5.306  0.0722  2.0523  1.4027
   47DOPE   C29 5988   3.123   1.173   5.420 -0.2680  0.4236 -0.1057
   47DOPE   H9R 5989   3.057   1.258   5.403  1.0619  1.2790 -1.2137
   47DOPE  C210 5990   3.184   1.166   5.542 -0.5096 -0.3960 -0.0250
   47DOPE  H10R 5991   3.152   1.240   5.617 -1.9000 -0.5703 -0.4027
   47DOPE  C211 5992   3.307   1.091   5.571 -0.1926  0.3537 -0.2487
   47DOPE  H11R 5993   3.391   1.129   5.509 -0.3152  0.4743 -0.3413
   47DOPE  H11S 5994   3.300   0.982   5.554  0.6451  0.2911 -0.2364
   47DOPE  C212 5995   3.356   1.104   5.718  0.5726 -0.1523  0.7339
   47DOPE  H12R 5996   3.283   1.065   5.792 -2.5428 -0.8327 -2.4118
   47DOPE  H12S 5997   3.378   1.210   5.744  0.0842  0.0969  0.1496
   47DOPE  C213 5998   3.490   1.036   5.740 -0.4530  0.4758  0.4826
   47DOPE  H13R 5999   3.507   1.059   5.848  1.1254 -0.6936  0.5202
   47DOPE  H13S 6000   3.569   1.088   5.683 -1.5300  0.3116 -1.2378
   47DOPE  C214 6001   3.496   0.882   5.707  0.1047 -0.2399 -0.5476
   47DOPE  H14R 6002   3.416   0.856   5.635  2.1794  1.7574 -3.8363
   47DOPE  H14S 6003   3.490   0.822   5.800  2.6352 -0.9048 -0.7397
   47DOPE  C215 6004   3.633   0.842   5.655  0.3277 -0.6822 -0.6818
   47DOPE  H15R 6005   3.645   0.732   5.668 -3.5030 -1.2748 -1.1749
   47DOPE  H15S 6006   3.712   0.891   5.717 -0.7893 -0.3387  0.5040
   47DOPE  C216 6007   3.657   0.888   5.506 -0.1751  0.4177  0.3562
   47DOPE  H16R 6008   3.766   0.893   5.486 -0.2039  1.5617  0.4003
   47DOPE  H16S 6009   3.610   0.989   5.501 -2.5495 -0.5396  1.5524
   47DOPE  C217 6010   3.571   0.804   5.412  0.0970 -0.3756  0.8962
   47DOPE  H17R 6011   3.465   0.805   5.444 -0.8643 -0.7922 -2.0352
   47DOPE  H17S 6012   3.603   0.698   5.420  1.6882 -0.0807 -0.9503
   47DOPE  C218 6013   3.574   0.852   5.270  0.0832 -0.2184 -0.1131
   47DOPE  H18R 6014   3.529   0.787   5.192 -0.4337  1.3676 -1.2046
   47DOPE  H18S 6015   3.679   0.868   5.238  0.8582 -3.0081  0.7265
   47DOPE  H18T 6016   3.519   0.949   5.266 -0.2841 -0.2856  1.9326
   47DOPE   C33 6017   3.061   1.436   4.900  0.2152 -0.3996 -0.7199
   47DOPE   H3X 6018   3.118   1.515   4.847 -0.1903  0.1554 -0.3419
   47DOPE   H3Y 6019   3.112   1.339   4.914 -0.1759 -0.4139  0.7868
   47DOPE   C34 6020   3.041   1.497   5.041  0.6160 -0.5427 -0.1430
   47DOPE   H4X 6021   2.989   1.595   5.026  1.0578  0.1569  2.4759
   47DOPE   H4Y 6022   2.979   1.430   5.104 -0.4162 -1.3965 -1.9896
   47DOPE   C35 6023   3.164   1.523   5.118 -0.2093 -0.3571  0.4564
   47DOPE   H5X 6024   3.221   1.578   5.040  0.5307  1.9898  2.5245
   47DOPE   H5Y 6025   3.222   1.431   5.143 -1.5450 -1.0513  1.0923
   47DOPE   C36 6026   3.134   1.622   5.235 -0.0452  0.3792  0.6723
   47DOPE   H6X 6027   3.112   1.718   5.184  1.3438 -0.0581 -0.8301
   47DOPE   H6Y 6028   3.225   1.633   5.299 -1.4242 -0.6358  2.9139
   47DOPE   C37 6029   3.013   1.598   5.319 -0.3950  0.4912 -0.2870
   47DOPE   H7X 6030   2.924   1.595   5.253  0.4194  0.9138 -1.4433
   47DOPE   H7Y 6031   3.013   1.501   5.373 -2.2638  1.0355  0.7821
   47DOPE   C38 6032   3.003   1.714   5.420 -0.2312 -0.6147 -1.2880
   47DOPE   H8X 6033   2.905   1.712   5.472  1.1033  1.3570  1.5600
   47DOPE   H8Y 6034   3.011   1.811   5.366 -1.4852 -0.5753 -1.4258
   47DOPE   C39 6035   3.117   1.706   5.523 -0.3082  0.7160  0.4702
   47DOPE   H9X 6036   3.222   1.734   5.502  0.2867 -1.2365  0.6472
   47DOPE  C310 6037   3.097   1.658   5.645 -0.1149  0.4257  0.3836
   47DOPE  H10X 6038   3.182   1.665   5.715  0.4168  0.4338 -0.2523
   47DOPE  C311 6039   2.974   1.596   5.704  0.3827  0.0865 -0.3421
   47DOPE  H11X 6040   2.906   1.552   5.627 -0.7695 -1.1134  1.2911
   47DOPE  H11Y 6041   3.003   1.515   5.774  1.7850  0.1513 -0.8050
   47DOPE  C312 6042   2.911   1.703   5.794 -0.1969 -0.0193 -0.6529
   47DOPE  H12X 6043   2.826   1.646   5.838  0.3967 -0.6458 -0.2999
   47DOPE  H12Y 6044   2.866   1.775   5.723 -0.9926 -0.3660 -0.5146
   47DOPE  C313 6045   3.006   1.751   5.908  0.1302 -0.1216 -0.1511
   47DOPE  H13X 6046   3.035   1.664   5.970  1.7330 -0.4924 -1.3456
   47DOPE  H13Y 6047   3.094   1.805   5.865 -0.9694 -0.3950 -2.9381
   47DOPE  C314 6048   2.937   1.849   6.003  0.3675 -0.4176 -1.1735
   47DOPE  H14X 6049   3.006   1.849   6.090  0.3192 -4.6277 -0.9716
   47DOPE  H14Y 6050   2.846   1.801   6.045  1.7580 -1.4212  0.8218
   47DOPE  C315 6051   2.904   1.989   5.954 -0.0363 -0.5104  0.4037
   47DOPE  H15X 6052   2.860   1.984   5.852  0.1741 -1.5252  0.3501
   47DOPE  H15Y 6053   2.998   2.046   5.943 -1.2184  1.5815  0.6720
   47DOPE  C316 6054   2.811   2.064   6.039 -0.5613 -0.7128 -0.1696
   47DOPE  H16X 6055   2.853   2.042   6.139 -0.7799 -2.1975 -0.3825
   47DOPE  H16Y 6056   2.706   2.026   6.032 -1.4960  1.4436  1.0400
   47DOPE  C317 6057   2.803   2.219   6.015 -0.2405  0.2776 -0.1623
   47DOPE  H17X 6058   2.731   2.259   6.090  1.7157  1.0643  1.3804
   47DOPE  H17Y 6059   2.908   2.243   6.042  0.5979 -2.8693 -0.2320
   47DOPE  C318 6060   2.772   2.265   5.870  0.4631 -0.7630 -0.4999
   47DOPE  H18X 6061   2.827   2.194   5.804  1.5837 -0.4423  0.0701
   47DOPE  H18Y 6062   2.664   2.260   5.844  0.7550  1.7427 -2.5714
   47DOPE  H18Z 6063   2.801   2.371   5.856  2.8795 -1.6092 -2.6533
   48DOPE     N 6064   5.364   2.444   3.700 -0.2183  0.3936  0.2142
   48DOPE   HN1 6065   5.456   2.425   3.744  0.1733 -1.8575 -1.4362
   48DOPE   HN2 6066   5.372   2.412   3.601  2.5848  4.3243 -1.0919
   48DOPE   HN3 6067   5.341   2.546   3.695  1.1638  0.7073 -0.3591
   48DOPE   C12 6068   5.283   2.357   3.794 -0.1910 -0.7319  0.6657
   48DOPE  H12A 6069   5.194   2.327   3.735  0.5385  0.9978 -1.4808
   48DOPE  H12B 6070   5.250   2.414   3.882 -0.1849 -0.8162  0.7226
   48DOPE   C11 6071   5.363   2.239   3.839 -0.5627  0.3769 -0.0819
   48DOPE  H11A 6072   5.309   2.180   3.915 -0.3468 -1.2720 -1.1608
   48DOPE  H11B 6073   5.453   2.277   3.893 -0.4957 -1.3947  1.1016
   48DOPE     P 6074   5.468   2.018   3.746  0.3944 -0.3159  0.2205
   48DOPE   O13 6075   5.610   2.022   3.711 -0.6889 -0.0959  0.6076
   48DOPE   O14 6076   5.384   1.923   3.673 -0.6358  0.6462 -0.0685
   48DOPE   O11 6077   5.456   1.990   3.898  0.4157  0.1012  0.3946
   48DOPE   O12 6078   5.413   2.165   3.724  0.1059 -0.1859 -0.5375
   48DOPE    C1 6079   5.552   1.900   3.962  0.7655 -0.5831 -0.0158
   48DOPE    HA 6080   5.651   1.949   3.956 -0.0559  1.0465 -1.1814
   48DOPE    HB 6081   5.562   1.808   3.902  1.2940  1.0445 -2.5972
   48DOPE    C2 6082   5.517   1.888   4.111  0.3828  0.1523  0.4317
   48DOPE    HS 6083   5.420   1.833   4.116  0.2206 -0.3039 -3.9782
   48DOPE   O21 6084   5.510   2.015   4.166 -0.2993 -0.0331 -0.1816
   48DOPE   C21 6085   5.425   2.041   4.262  0.0736  0.3924  0.1456
   48DOPE   O22 6086   5.338   1.972   4.309 -0.2152  0.2482  0.3206
   48DOPE   C22 6087   5.438   2.189   4.282 -0.2059  0.1149  0.5718
   48DOPE   H2R 6088   5.403   2.234   4.186 -1.7916 -2.0288  0.0732
   48DOPE   H2S 6089   5.541   2.226   4.303 -1.1055  1.7680  2.5076
   48DOPE    C3 6090   5.606   1.788   4.180 -0.4839  0.1210  0.0181
   48DOPE    HX 6091   5.715   1.810   4.176 -0.6652  1.1123  0.4826
   48DOPE    HY 6092   5.585   1.692   4.127  1.1995  0.2484 -0.9499
   48DOPE   O31 6093   5.584   1.768   4.317 -0.2381  0.4443 -0.3403
   48DOPE   C31 6094   5.483   1.694   4.356 -0.7050  0.7546  0.1923
   48DOPE   O32 6095   5.421   1.622   4.287  0.1725 -0.4244 -0.2105
   48DOPE   C32 6096   5.458   1.715   4.502 -0.3197 -0.7899 -0.9945
   48DOPE   H2X 6097   5.554   1.706   4.557 -0.3785  1.2462 -0.4772
   48DOPE   H2Y 6098   5.413   1.816   4.509  2.0236  0.3154 -0.8902
   48DOPE   C23 6099   5.346   2.247   4.397 -0.1810  0.3361  0.6529
   48DOPE   H3R 6100   5.250   2.192   4.392  0.3526 -0.4973 -1.3327
   48DOPE   H3S 6101   5.329   2.357   4.388  2.3324  0.8615  1.5287
   48DOPE   C24 6102   5.407   2.237   4.533  0.2819  0.2898 -0.4271
   48DOPE   H4R 6103   5.501   2.295   4.543  1.0979 -0.7963 -1.5336
   48DOPE   H4S 6104   5.434   2.131   4.551  0.0506 -0.0794 -2.0951
   48DOPE   C25 6105   5.316   2.279   4.651 -0.4024  0.5397 -0.3930
   48DOPE   H5R 6106   5.233   2.205   4.656 -0.4296  0.6207  2.5690
   48DOPE   H5S 6107   5.278   2.381   4.628  0.8600  1.0190 -0.3985
   48DOPE   C26 6108   5.397   2.283   4.779 -0.1561 -0.1015  0.3415
   48DOPE   H6R 6109   5.469   2.363   4.753 -1.6136  0.4259 -2.3361
   48DOPE   H6S 6110   5.463   2.196   4.800  0.1201  0.2164  0.8097
   48DOPE   C27 6111   5.324   2.340   4.906  1.1982  0.1398 -0.5840
   48DOPE   H7R 6112   5.260   2.425   4.875 -1.7758 -1.7113  0.0994
   48DOPE   H7S 6113   5.403   2.363   4.980  0.6200 -0.1004  0.1155
   48DOPE   C28 6114   5.224   2.240   4.974  1.0173 -1.2113  0.1238
   48DOPE   H8R 6115   5.144   2.221   4.900  1.3036  2.5037 -1.3571
   48DOPE   H8S 6116   5.168   2.293   5.054 -0.0444 -0.3201 -1.1655
   48DOPE   C29 6117   5.278   2.108   5.028 -0.0565 -0.0074 -0.3002
   48DOPE   H9R 6118   5.231   2.021   4.979  0.3662 -1.0061  1.0069
   48DOPE  C210 6119   5.365   2.091   5.127 -0.2755  0.1166  0.4650
   48DOPE  H10R 6120   5.397   1.988   5.150  0.8413  0.3462  0.0408
   48DOPE  C211 6121   5.417   2.204   5.215  0.1350  0.3593  0.0027
   48DOPE  H11R 6122   5.377   2.303   5.183 -1.0652 -0.2291 -0.3933
   48DOPE  H11S 6123   5.527   2.212   5.205  0.4250 -2.3639  0.1571
   48DOPE  C212 6124   5.380   2.182   5.370  0.0525 -1.2176 -0.7409
   48DOPE  H12R 6125   5.433   2.088   5.398  1.1956 -0.5466 -0.6245
   48DOPE  H12S 6126   5.272   2.170   5.394  0.6298 -1.2498  2.1658
   48DOPE  C213 6127   5.446   2.287   5.450 -0.4627  0.1442 -0.0808
   48DOPE  H13R 6128   5.397   2.384   5.426 -0.9138 -0.3511 -1.2341
   48DOPE  H13S 6129   5.550   2.313   5.421 -0.5116  2.1069  1.3074
   48DOPE  C214 6130   5.431   2.266   5.603 -0.8386 -0.3204 -0.3907
   48DOPE  H14R 6131   5.468   2.165   5.632 -1.1668 -0.1782  0.5641
   48DOPE  H14S 6132   5.322   2.268   5.622 -0.5053  1.3870  1.6944
   48DOPE  C215 6133   5.503   2.375   5.683 -0.4132 -0.2533  1.3852
   48DOPE  H15R 6134   5.460   2.470   5.644  2.0592 -0.1226 -1.3002
   48DOPE  H15S 6135   5.612   2.383   5.665 -0.3416  2.4216  2.4205
   48DOPE  C216 6136   5.493   2.360   5.835  0.3883  0.9905  0.5796
   48DOPE  H16R 6137   5.388   2.337   5.864  0.4639  0.2608  0.3012
   48DOPE  H16S 6138   5.517   2.456   5.886  0.5122  1.0518  0.4098
   48DOPE  C217 6139   5.584   2.251   5.894  0.1942 -0.0602  0.0205
   48DOPE  H17R 6140   5.688   2.258   5.854  0.0584 -1.3672 -0.6193
   48DOPE  H17S 6141   5.545   2.151   5.866 -1.5920  1.1241 -1.9615
   48DOPE  C218 6142   5.590   2.241   6.050 -0.1693  0.2724 -0.3960
   48DOPE  H18R 6143   5.635   2.329   6.101 -1.1810  0.2593  0.5424
   48DOPE  H18S 6144   5.644   2.152   6.088 -0.5021  0.4237  0.4486
   48DOPE  H18T 6145   5.486   2.228   6.085  0.5381 -1.4004  1.2924
   48DOPE   C33 6146   5.357   1.621   4.567 -0.4993  0.2496 -0.4888
   48DOPE   H3X 6147   5.401   1.519   4.578 -0.2189  0.6384  3.3032
   48DOPE   H3Y 6148   5.266   1.618   4.503  0.8789  0.2475 -2.5456
   48DOPE   C34 6149   5.320   1.662   4.713  0.0612 -0.9529  0.2263
   48DOPE   H4X 6150   5.255   1.750   4.732 -0.9002 -1.9651  1.8239
   48DOPE   H4Y 6151   5.259   1.579   4.754 -0.4401  0.4907  2.6447
   48DOPE   C35 6152   5.440   1.660   4.808 -0.2401  0.0514  0.5169
   48DOPE   H5X 6153   5.481   1.761   4.785 -3.7656  1.4015 -0.5101
   48DOPE   H5Y 6154   5.513   1.579   4.786  0.1651  0.7128 -0.6490
   48DOPE   C36 6155   5.410   1.644   4.959 -0.0262 -0.2103 -0.3432
   48DOPE   H6X 6156   5.377   1.540   4.979  1.5597 -0.2026  2.8192
   48DOPE   H6Y 6157   5.326   1.715   4.979  0.0664  0.3116 -1.7010
   48DOPE   C37 6158   5.536   1.670   5.052  0.2908  0.2028  0.2986
   48DOPE   H7X 6159   5.603   1.582   5.035  0.5727  0.0804  1.9446
   48DOPE   H7Y 6160   5.593   1.760   5.021  1.3727 -0.2616  0.8773
   48DOPE   C38 6161   5.482   1.684   5.195 -0.2154 -0.3265 -0.3060
   48DOPE   H8X 6162   5.420   1.593   5.206 -0.9373  0.3139  1.3596
   48DOPE   H8Y 6163   5.418   1.773   5.213  1.5829  0.9973 -0.1477
   48DOPE   C39 6164   5.597   1.694   5.297 -0.2879 -0.0886 -0.2756
   48DOPE   H9X 6165   5.652   1.788   5.278 -0.4121  0.1297  0.3980
   48DOPE  C310 6166   5.640   1.608   5.387 -0.1763 -0.3812 -0.0815
   48DOPE  H10X 6167   5.717   1.635   5.460  2.2613 -0.1705 -2.5531
   48DOPE  C311 6168   5.587   1.475   5.412  0.9596  0.9189 -0.6712
   48DOPE  H11X 6169   5.565   1.412   5.323 -1.7152 -1.8244  1.6831
   48DOPE  H11Y 6170   5.649   1.412   5.479  0.9332  0.8593 -0.7024
   48DOPE  C312 6171   5.447   1.472   5.484  0.0340  0.3927 -0.4948
   48DOPE  H12X 6172   5.402   1.371   5.474 -0.3859  0.5194  0.0806
   48DOPE  H12Y 6173   5.376   1.543   5.437 -1.5072  1.4700  3.0838
   48DOPE  C313 6174   5.439   1.513   5.638 -0.1506  0.2709  0.0219
   48DOPE  H13X 6175   5.478   1.616   5.652  1.8361 -0.0266 -2.5569
   48DOPE  H13Y 6176   5.331   1.516   5.664  0.4641 -0.5768  3.0693
   48DOPE  C314 6177   5.474   1.393   5.729  0.6390  0.8066  0.6453
   48DOPE  H14X 6178   5.582   1.369   5.723  0.7152  1.5595 -2.1261
   48DOPE  H14Y 6179   5.417   1.313   5.678  0.4305  2.1052 -1.2276
   48DOPE  C315 6180   5.431   1.425   5.862  0.2554 -0.0801 -0.3572
   48DOPE  H15X 6181   5.320   1.418   5.866  0.2572  0.3767  2.5838
   48DOPE  H15Y 6182   5.456   1.528   5.896 -1.5348  0.0808  0.6089
   48DOPE  C316 6183   5.497   1.344   5.978  0.2597  0.2892 -0.1841
   48DOPE  H16X 6184   5.608   1.354   5.974  0.5946 -0.0383  3.9362
   48DOPE  H16Y 6185   5.485   1.236   5.956  1.9639  0.3905 -1.8777
   48DOPE  C317 6186   5.438   1.373   6.119  0.3083  0.3559 -0.0711
   48DOPE  H17X 6187   5.443   1.484   6.130 -0.1626  0.4486 -0.7101
   48DOPE  H17Y 6188   5.331   1.341   6.121  0.6093 -0.6195  0.5286
   48DOPE  C318 6189   5.526   1.305   6.219  0.0137 -0.3963 -0.6466
   48DOPE  H18X 6190   5.532   1.195   6.207  0.0731 -0.4689  0.0095
   48DOPE  H18Y 6191   5.626   1.353   6.217 -0.7816  1.3239 -0.7694
   48DOPE  H18Z 6192   5.486   1.321   6.321  1.4320 -1.6881  0.1483
   49DOPE     N 6193   3.242   6.721   4.575  0.0330 -0.4287 -0.7259
   49DOPE   HN1 6194   3.148   6.706   4.532  0.2843 -0.8742 -1.1294
   49DOPE   HN2 6195   3.240   6.765   4.669  0.4948 -1.0624 -0.4199
   49DOPE   HN3 6196   3.302   6.781   4.515  1.5363 -0.2567  0.9036
   49DOPE   C12 6197   3.302   6.588   4.581  0.0936  0.4467  0.9248
   49DOPE  H12A 6198   3.301   6.547   4.478 -1.0944 -2.2205  1.8978
   49DOPE  H12B 6199   3.241   6.528   4.653 -1.4149 -1.0554 -1.4734
   49DOPE   C11 6200   3.442   6.588   4.637  0.0908 -0.5377 -0.2399
   49DOPE  H11A 6201   3.473   6.486   4.671 -0.7335 -0.5641  0.4632
   49DOPE  H11B 6202   3.442   6.659   4.722 -3.5287 -1.2559  0.5309
   49DOPE     P 6203   3.683   6.655   4.586  0.0583 -0.2088 -0.4865
   49DOPE   O13 6204   3.712   6.800   4.592 -0.4514  0.3127  0.1933
   49DOPE   O14 6205   3.770   6.567   4.507 -0.5975 -0.8316 -0.3247
   49DOPE   O11 6206   3.684   6.609   4.737 -0.4874 -0.2741 -0.6476
   49DOPE   O12 6207   3.537   6.630   4.540  0.0352  0.0146  0.5137
   49DOPE    C1 6208   3.741   6.489   4.782 -0.1984  0.4739 -0.2298
   49DOPE    HA 6209   3.850   6.496   4.764 -0.5772  2.4320 -2.2587
   49DOPE    HB 6210   3.705   6.400   4.726 -0.5468  1.1953 -1.1717
   49DOPE    C2 6211   3.710   6.464   4.934 -0.3925 -0.3202  0.5554
   49DOPE    HS 6212   3.600   6.449   4.941 -0.3139 -0.6193  1.2502
   49DOPE   O21 6213   3.749   6.575   5.014 -0.4762 -0.3608 -0.7248
   49DOPE   C21 6214   3.664   6.676   5.024 -0.6180 -0.0009  0.5774
   49DOPE   O22 6215   3.555   6.681   4.963  0.0046  0.1435  0.1569
   49DOPE   C22 6216   3.718   6.780   5.126 -1.0350 -0.1529 -0.9910
   49DOPE   H2R 6217   3.809   6.832   5.088  1.8314 -2.2402  2.4099
   49DOPE   H2S 6218   3.757   6.717   5.209 -0.9428 -0.3634 -1.1937
   49DOPE    C3 6219   3.780   6.334   4.999  0.9196 -0.4369  0.1783
   49DOPE    HX 6220   3.890   6.349   4.997  0.5556  2.9965 -0.1262
   49DOPE    HY 6221   3.746   6.247   4.938  1.8299 -0.4390 -0.3381
   49DOPE   O31 6222   3.716   6.305   5.127 -0.1797  0.4036 -0.1646
   49DOPE   C31 6223   3.784   6.322   5.238  0.1978  0.4429 -0.0450
   49DOPE   O32 6224   3.895   6.365   5.235  0.1781  0.1732 -0.3894
   49DOPE   C32 6225   3.706   6.274   5.364  0.2405  0.3149  0.5081
   49DOPE   H2X 6226   3.609   6.327   5.363 -0.4383 -0.8965 -0.0436
   49DOPE   H2Y 6227   3.690   6.165   5.351  0.4170  0.3197  0.2495
   49DOPE   C23 6228   3.613   6.867   5.191 -0.7962 -0.3978 -0.0292
   49DOPE   H3R 6229   3.514   6.818   5.201 -1.6881  1.3676  0.2524
   49DOPE   H3S 6230   3.593   6.958   5.130  0.2334  0.9377  1.5234
   49DOPE   C24 6231   3.642   6.910   5.334 -0.0073 -0.3439  0.0985
   49DOPE   H4R 6232   3.562   6.984   5.354  2.1911  1.7631  1.6255
   49DOPE   H4S 6233   3.735   6.970   5.329 -0.8822  0.9861 -0.9626
   49DOPE   C25 6234   3.641   6.788   5.432 -0.0280 -0.3813 -0.3356
   49DOPE   H5R 6235   3.718   6.721   5.390  0.7308  0.2945 -0.0513
   49DOPE   H5S 6236   3.539   6.743   5.431  0.4696 -1.5699  0.3936
   49DOPE   C26 6237   3.695   6.825   5.574  0.0868 -0.5983 -0.1414
   49DOPE   H6R 6238   3.652   6.924   5.598  3.8470  1.4832 -1.1386
   49DOPE   H6S 6239   3.802   6.854   5.563 -0.0492  0.6669  1.5553
   49DOPE   C27 6240   3.676   6.723   5.682 -0.0941  0.9143  0.4740
   49DOPE   H7R 6241   3.736   6.637   5.646  0.7196  0.2209  3.2418
   49DOPE   H7S 6242   3.571   6.688   5.672  0.2984  0.0944 -1.0610
   49DOPE   C28 6243   3.716   6.776   5.820 -0.1238  0.5768 -0.0291
   49DOPE   H8R 6244   3.681   6.707   5.900  1.5040  0.5213  0.6797
   49DOPE   H8S 6245   3.678   6.880   5.831 -0.5571  0.2603  1.8289
   49DOPE   C29 6246   3.862   6.795   5.845 -0.4321 -0.6327  0.6829
   49DOPE   H9R 6247   3.927   6.848   5.774 -0.6592  0.4373  1.2645
   49DOPE  C210 6248   3.931   6.734   5.940 -0.2252  0.1866  0.2484
   49DOPE  H10R 6249   4.034   6.767   5.960  0.1577 -0.7102 -0.1739
   49DOPE  C211 6250   3.886   6.644   6.052  0.2125  0.1608 -0.0537
   49DOPE  H11R 6251   3.955   6.558   6.064 -1.8342 -1.5097  0.3044
   49DOPE  H11S 6252   3.785   6.598   6.042  1.0487 -1.5924 -0.6733
   49DOPE  C212 6253   3.895   6.709   6.183  0.3619 -0.7532 -0.8295
   49DOPE  H12R 6254   3.997   6.752   6.194  0.4163 -1.1481  0.3032
   49DOPE  H12S 6255   3.896   6.643   6.272  1.5431  2.5107  1.7894
   49DOPE  C213 6256   3.783   6.810   6.200  0.3936  0.2643 -0.5665
   49DOPE  H13R 6257   3.690   6.751   6.214  0.8809 -0.4280 -0.1403
   49DOPE  H13S 6258   3.771   6.884   6.118  0.2541 -0.3049 -1.0667
   49DOPE  C214 6259   3.795   6.893   6.323  0.6313 -0.1220  0.0022
   49DOPE  H14R 6260   3.879   6.966   6.320 -0.7761  1.5411 -0.4936
   49DOPE  H14S 6261   3.795   6.824   6.411  0.4335 -0.2262 -0.0807
   49DOPE  C215 6262   3.676   6.989   6.336  0.7516 -0.3607 -0.0127
   49DOPE  H15R 6263   3.589   6.924   6.356  0.2189 -0.0629 -1.2695
   49DOPE  H15S 6264   3.667   7.052   6.245 -0.2753  0.2391  0.4812
   49DOPE  C216 6265   3.698   7.083   6.455  0.3160 -0.0997 -0.0935
   49DOPE  H16R 6266   3.707   7.024   6.549 -1.2982 -0.6710 -0.2604
   49DOPE  H16S 6267   3.603   7.141   6.470  0.1393 -0.7249  1.4252
   49DOPE  C217 6268   3.811   7.192   6.423 -0.5965  0.5216 -0.2930
   49DOPE  H17R 6269   3.795   7.226   6.319 -4.1387  1.6361  0.4602
   49DOPE  H17S 6270   3.912   7.146   6.427 -0.0442  1.7000 -0.1771
   49DOPE  C218 6271   3.804   7.317   6.516  0.2536 -0.4008  0.6155
   49DOPE  H18R 6272   3.812   7.287   6.623  2.4784 -3.1206 -0.1988
   49DOPE  H18S 6273   3.713   7.374   6.488  0.3249 -0.6815 -0.2112
   49DOPE  H18T 6274   3.886   7.387   6.490 -1.1940  1.4491  0.7850
   49DOPE   C33 6275   3.780   6.295   5.497  0.2714 -0.9002  0.1544
   49DOPE   H3X 6276   3.830   6.394   5.501  1.3172 -1.2706 -2.4250
   49DOPE   H3Y 6277   3.857   6.216   5.506  0.2290 -0.9275  0.2911
   49DOPE   C34 6278   3.683   6.278   5.610  0.2122  0.5520 -0.4259
   49DOPE   H4X 6279   3.597   6.348   5.605 -0.0938  0.2261  0.1141
   49DOPE   H4Y 6280   3.639   6.176   5.612  0.8129  0.1638  4.0249
   49DOPE   C35 6281   3.753   6.290   5.745 -0.0730  0.5869 -0.5179
   49DOPE   H5X 6282   3.795   6.392   5.733  3.2166 -0.9785 -4.3849
   49DOPE   H5Y 6283   3.835   6.220   5.769 -0.0459  0.1295 -1.8628
   49DOPE   C36 6284   3.653   6.283   5.863 -0.1447 -0.3119  0.3799
   49DOPE   H6X 6285   3.607   6.182   5.860  0.1918 -0.4413 -1.5314
   49DOPE   H6Y 6286   3.571   6.357   5.857 -0.6692 -0.8900  0.2791
   49DOPE   C37 6287   3.720   6.298   6.003 -0.8770  0.2747  0.8607
   49DOPE   H7X 6288   3.794   6.215   6.007  0.0704  1.0774  0.5047
   49DOPE   H7Y 6289   3.787   6.386   6.007  0.2977 -0.6512  3.0460
   49DOPE   C38 6290   3.624   6.290   6.120 -0.2241 -0.1942 -0.2812
   49DOPE   H8X 6291   3.681   6.276   6.214 -3.2815  1.6436  2.0771
   49DOPE   H8Y 6292   3.564   6.197   6.108  0.1125 -0.5783  0.8262
   49DOPE   C39 6293   3.540   6.415   6.127 -0.7701 -0.9144  0.3436
   49DOPE   H9X 6294   3.509   6.446   6.026 -0.1907 -0.5557  0.2691
   49DOPE  C310 6295   3.501   6.483   6.232 -0.5792 -0.1918  0.3991
   49DOPE  H10X 6296   3.443   6.575   6.218  0.0849  0.3082  0.9356
   49DOPE  C311 6297   3.545   6.443   6.373  0.0480  0.2535 -0.5754
   49DOPE  H11X 6298   3.480   6.489   6.450  1.9557 -0.6599  1.6815
   49DOPE  H11Y 6299   3.534   6.332   6.370 -0.2253  0.2289  0.8130
   49DOPE  C312 6300   3.695   6.471   6.398  0.2280 -0.2673  0.2652
   49DOPE  H12X 6301   3.701   6.582   6.398 -0.3619 -0.2006 -1.8887
   49DOPE  H12Y 6302   3.749   6.420   6.315  2.0655  0.3763  1.0045
   49DOPE  C313 6303   3.738   6.418   6.535 -0.1969 -0.2042 -0.2521
   49DOPE  H13X 6304   3.665   6.449   6.613 -0.4413 -0.9446 -0.1857
   49DOPE  H13Y 6305   3.742   6.308   6.523 -1.1350 -0.4714  1.6206
   49DOPE  C314 6306   3.871   6.469   6.584 -0.7702  0.0820 -0.4709
   49DOPE  H14X 6307   3.952   6.447   6.511  0.5390 -0.7379  1.1853
   49DOPE  H14Y 6308   3.902   6.408   6.671 -0.6852 -0.4520 -0.8703
   49DOPE  C315 6309   3.864   6.619   6.613  0.4006 -0.1647 -0.1416
   49DOPE  H15X 6310   3.800   6.653   6.696 -0.6856 -1.3082 -0.4957
   49DOPE  H15Y 6311   3.830   6.672   6.521 -1.1933  0.3439  0.7119
   49DOPE  C316 6312   4.000   6.680   6.654 -0.5923 -0.6106  0.1420
   49DOPE  H16X 6313   3.980   6.786   6.682  0.6017  1.1557 -4.7524
   49DOPE  H16Y 6314   4.066   6.692   6.566 -0.5168  0.6694  0.3539
   49DOPE  C317 6315   4.093   6.604   6.762 -0.3561 -0.3518  0.0277
   49DOPE  H17X 6316   4.038   6.593   6.858 -2.1760 -1.7330 -1.0896
   49DOPE  H17Y 6317   4.121   6.503   6.724 -0.2209 -0.2516 -0.1389
   49DOPE  C318 6318   4.222   6.675   6.813 -0.2070  0.2739 -0.3010
   49DOPE  H18X 6319   4.293   6.661   6.728 -0.2720 -1.7136 -0.0816
   49DOPE  H18Y 6320   4.214   6.785   6.829 -0.1666  0.2539 -0.1427
   49DOPE  H18Z 6321   4.267   6.623   6.900  2.0003 -1.2404 -2.2316
   50DOPE     N 6322   0.796   6.168   3.802 -0.5327 -0.1480 -0.2075
   50DOPE   HN1 6323   0.876   6.133   3.859 -0.1064 -0.8020 -1.1932
   50DOPE   HN2 6324   0.838   6.224   3.725  1.5607 -2.7880 -1.1387
   50DOPE   HN3 6325   0.731   6.230   3.854 -0.3066  0.5378 -0.7256
   50DOPE   C12 6326   0.728   6.050   3.744 -0.3225 -0.5285 -0.5089
   50DOPE  H12A 6327   0.652   6.089   3.672 -0.4698 -1.2326 -0.7417
   50DOPE  H12B 6328   0.672   5.999   3.826 -0.7327 -0.1898 -0.5784
   50DOPE   C11 6329   0.833   5.957   3.667  1.0102  0.2360  0.6725
   50DOPE  H11A 6330   0.880   6.002   3.576  0.9174 -2.3065 -0.7363
   50DOPE  H11B 6331   0.793   5.862   3.625 -0.1005  1.4330 -1.0924
   50DOPE     P 6332   0.963   5.813   3.857  0.1876  0.3183 -0.1097
   50DOPE   O13 6333   1.073   5.836   3.951 -0.5317  0.7635  0.5592
   50DOPE   O14 6334   0.981   5.700   3.760  0.0768 -0.9054 -0.1210
   50DOPE   O11 6335   0.824   5.808   3.921  0.6473  0.2139 -0.0535
   50DOPE   O12 6336   0.945   5.928   3.755 -0.3856 -0.5653 -1.0977
   50DOPE    C1 6337   0.800   5.869   4.050 -0.4240 -0.2996  0.2495
   50DOPE    HA 6338   0.699   5.915   4.048 -0.5245 -0.5315 -0.4937
   50DOPE    HB 6339   0.883   5.940   4.068  0.1859  0.2353 -3.7721
   50DOPE    C2 6340   0.801   5.773   4.159 -0.4641  0.5891 -0.3948
   50DOPE    HS 6341   0.895   5.714   4.156 -0.7946 -0.4152  3.3849
   50DOPE   O21 6342   0.683   5.689   4.136 -0.3007  0.4641 -0.2836
   50DOPE   C21 6343   0.683   5.572   4.192 -0.1126 -0.0308  0.3053
   50DOPE   O22 6344   0.782   5.512   4.234  0.4871  0.1604  0.5739
   50DOPE   C22 6345   0.550   5.516   4.192 -0.1046 -0.2975  0.9234
   50DOPE   H2R 6346   0.536   5.459   4.097  1.9772 -1.9557  1.5206
   50DOPE   H2S 6347   0.480   5.602   4.190  1.1956  0.8008  1.4619
   50DOPE    C3 6348   0.789   5.848   4.301  0.0694  0.1008 -0.0580
   50DOPE    HX 6349   0.683   5.883   4.298  0.2721  0.6717 -2.1447
   50DOPE    HY 6350   0.865   5.929   4.300  1.1116 -0.7082  2.9645
   50DOPE   O31 6351   0.815   5.760   4.414  0.3368  0.0455 -0.1642
   50DOPE   C31 6352   0.944   5.752   4.452 -0.5142  0.4488 -0.1780
   50DOPE   O32 6353   1.037   5.804   4.399  0.2808 -0.0938 -0.4602
   50DOPE   C32 6354   0.947   5.642   4.560 -0.1981  0.0715 -0.2801
   50DOPE   H2X 6355   0.856   5.642   4.623  1.0610 -1.1672  1.6313
   50DOPE   H2Y 6356   0.935   5.543   4.510 -0.7044 -0.1264  0.2299
   50DOPE   C23 6357   0.526   5.411   4.306  0.7073  0.2784  0.5498
   50DOPE   H3R 6358   0.591   5.321   4.292  0.5020 -0.0890  1.8433
   50DOPE   H3S 6359   0.422   5.377   4.289  1.0162 -1.2894  1.5121
   50DOPE   C24 6360   0.538   5.480   4.443 -0.9373 -0.2646 -0.5290
   50DOPE   H4R 6361   0.459   5.552   4.471 -0.5585  0.0124 -0.1780
   50DOPE   H4S 6362   0.642   5.517   4.460 -0.7522 -0.5153 -1.0669
   50DOPE   C25 6363   0.514   5.370   4.547 -0.0070  0.5690 -0.1473
   50DOPE   H5R 6364   0.588   5.290   4.522  0.0723  0.5708  0.0775
   50DOPE   H5S 6365   0.414   5.324   4.535  0.1138  0.5026 -0.9982
   50DOPE   C26 6366   0.548   5.415   4.688  0.4038 -0.0285  0.7195
   50DOPE   H6R 6367   0.494   5.508   4.715 -0.4538 -0.4758  0.5661
   50DOPE   H6S 6368   0.653   5.450   4.697 -0.0137  1.5328 -0.1039
   50DOPE   C27 6369   0.523   5.299   4.791 -0.7253  0.0606 -0.3173
   50DOPE   H7R 6370   0.605   5.234   4.754 -0.0002  0.8140 -0.0573
   50DOPE   H7S 6371   0.432   5.236   4.785 -0.2956 -0.4696 -1.6163
   50DOPE   C28 6372   0.557   5.327   4.937  0.2558  0.0808 -0.3316
   50DOPE   H8R 6373   0.644   5.395   4.942  0.5991 -0.4383  1.4078
   50DOPE   H8S 6374   0.585   5.235   4.993  0.6509  0.0357 -0.6050
   50DOPE   C29 6375   0.427   5.390   4.983 -0.3052  0.1567 -0.4983
   50DOPE   H9R 6376   0.393   5.485   4.938 -0.2900 -1.4167 -4.1746
   50DOPE  C210 6377   0.348   5.340   5.080 -0.1655  0.2752  0.2327
   50DOPE  H10R 6378   0.247   5.380   5.102 -0.4239 -0.5600  0.6054
   50DOPE  C211 6379   0.392   5.227   5.169  0.4048  0.0456  0.0945
   50DOPE  H11R 6380   0.494   5.234   5.211  0.7953 -2.7268 -0.2314
   50DOPE  H11S 6381   0.385   5.133   5.111  0.8019  1.5208 -2.4801
   50DOPE  C212 6382   0.280   5.212   5.276  0.0453  0.0836 -0.8438
   50DOPE  H12R 6383   0.297   5.118   5.333  0.0617 -0.2792 -1.4471
   50DOPE  H12S 6384   0.187   5.197   5.218  0.5447  0.3042 -1.7128
   50DOPE  C213 6385   0.251   5.327   5.377  0.4494  0.1216 -0.3980
   50DOPE  H13R 6386   0.203   5.406   5.316  1.4135  1.6351  0.7215
   50DOPE  H13S 6387   0.350   5.374   5.399 -0.1225  0.5496  1.4166
   50DOPE  C214 6388   0.178   5.291   5.506 -0.5467  0.6753  0.9095
   50DOPE  H14R 6389   0.252   5.246   5.577 -0.5474 -1.7020 -0.4850
   50DOPE  H14S 6390   0.114   5.206   5.476 -1.3753  1.1649  1.2697
   50DOPE  C215 6391   0.110   5.410   5.559 -0.1296 -0.0389 -0.0401
   50DOPE  H15R 6392   0.053   5.458   5.476 -1.2260 -0.1269  0.6470
   50DOPE  H15S 6393   0.176   5.489   5.600 -1.5838  1.5622 -0.6833
   50DOPE  C216 6394  -0.001   5.382   5.655  0.5994  0.3543 -0.0278
   50DOPE  H16R 6395   0.058   5.338   5.738  1.2134  0.2682 -0.5021
   50DOPE  H16S 6396  -0.071   5.302   5.622  1.3494 -0.8188  1.1255
   50DOPE  C217 6397  -0.054   5.510   5.715  0.0894 -0.1279  0.5755
   50DOPE  H17R 6398  -0.150   5.532   5.663  0.5196 -0.1004 -0.2249
   50DOPE  H17S 6399   0.009   5.600   5.699 -0.4976  0.2064  0.0873
   50DOPE  C218 6400  -0.081   5.489   5.866 -0.2007 -0.4026 -0.1224
   50DOPE  H18R 6401  -0.150   5.403   5.877  0.3756 -0.9151 -0.4157
   50DOPE  H18S 6402  -0.132   5.571   5.921 -1.6540 -0.9092 -0.6803
   50DOPE  H18T 6403   0.007   5.450   5.921  0.2822 -0.5014 -0.9402
   50DOPE   C33 6404   1.075   5.642   4.650  0.3415  0.5337  0.1102
   50DOPE   H3X 6405   1.168   5.655   4.591 -0.0215  1.6096 -0.2481
   50DOPE   H3Y 6406   1.084   5.542   4.698  0.2530  0.7415  0.5643
   50DOPE   C34 6407   1.064   5.745   4.761  0.4627  0.4414 -0.0187
   50DOPE   H4X 6408   1.075   5.853   4.736  0.1191  0.4970  0.0633
   50DOPE   H4Y 6409   0.965   5.734   4.810 -0.0980  0.1634 -1.1838
   50DOPE   C35 6410   1.166   5.726   4.872 -0.3121  0.9746  0.5776
   50DOPE   H5X 6411   1.269   5.746   4.834 -1.4836  5.2434 -0.9447
   50DOPE   H5Y 6412   1.164   5.625   4.917 -2.5117  1.3662  1.4679
   50DOPE   C36 6413   1.159   5.823   4.995  0.1395  0.3903 -0.3223
   50DOPE   H6X 6414   1.170   5.930   4.966  0.6251  1.0341  1.9861
   50DOPE   H6Y 6415   1.252   5.799   5.051  0.8346  3.0624 -0.1939
   50DOPE   C37 6416   1.039   5.800   5.086 -0.0713  0.2714  0.2071
   50DOPE   H7X 6417   0.946   5.834   5.036 -1.3314 -2.6708  0.3412
   50DOPE   H7Y 6418   1.011   5.695   5.111  0.2390 -0.2027 -1.3128
   50DOPE   C38 6419   1.048   5.890   5.214  0.2928  0.5350 -0.0042
   50DOPE   H8X 6420   1.141   5.857   5.265  0.7253  0.6708 -0.6780
   50DOPE   H8Y 6421   0.969   5.853   5.283  0.1500 -2.0398 -1.4070
   50DOPE   C39 6422   1.041   6.042   5.189 -0.3457  0.2356  1.0939
   50DOPE   H9X 6423   1.085   6.063   5.091 -1.2305  0.7001  0.7865
   50DOPE  C310 6424   0.973   6.133   5.257  0.2935 -0.3362  0.1033
   50DOPE  H10X 6425   0.984   6.240   5.233  0.7770 -0.7614 -1.7522
   50DOPE  C311 6426   0.899   6.103   5.382  0.4525 -0.3621 -0.6082
   50DOPE  H11X 6427   0.931   6.019   5.447  1.4678  2.3802  2.7526
   50DOPE  H11Y 6428   0.907   6.184   5.459 -0.3437 -2.8833  2.3548
   50DOPE  C312 6429   0.752   6.073   5.359 -0.5633  0.2976  0.3749
   50DOPE  H12X 6430   0.747   6.017   5.264 -0.6048 -0.5686  0.8752
   50DOPE  H12Y 6431   0.685   6.161   5.345  0.0119  0.4207 -1.9011
   50DOPE  C313 6432   0.695   5.981   5.470  0.0984 -0.2458  0.0729
   50DOPE  H13X 6433   0.590   5.961   5.440  1.2083 -2.1545 -3.0650
   50DOPE  H13Y 6434   0.747   5.885   5.489  0.0509 -0.0516  1.2657
   50DOPE  C314 6435   0.696   6.065   5.598 -0.7324 -0.4515 -0.7724
   50DOPE  H14X 6436   0.664   6.170   5.586  0.4535 -0.1517 -1.5608
   50DOPE  H14Y 6437   0.804   6.068   5.624 -0.6108  2.6670 -1.3183
   50DOPE  C315 6438   0.615   6.006   5.709  0.4133  0.2002  0.8098
   50DOPE  H15X 6439   0.639   5.898   5.703 -0.4499  0.0576 -0.4829
   50DOPE  H15Y 6440   0.506   6.021   5.693  1.0641  2.3665 -2.6411
   50DOPE  C316 6441   0.659   6.048   5.853 -0.2156  0.2070 -0.2499
   50DOPE  H16X 6442   0.648   6.159   5.858 -0.8426  0.0941  2.5738
   50DOPE  H16Y 6443   0.768   6.035   5.865 -0.0611  1.8062  0.3267
   50DOPE  C317 6444   0.586   5.965   5.961 -0.1471 -0.7361  0.1980
   50DOPE  H17X 6445   0.625   5.862   5.964  1.0505 -0.3600 -1.2577
   50DOPE  H17Y 6446   0.620   6.017   6.053  1.5427  0.8322 -1.2409
   50DOPE  C318 6447   0.436   5.965   5.946 -0.0008 -0.4747 -0.1824
   50DOPE  H18X 6448   0.389   5.933   6.042  0.8297 -1.6121 -0.1282
   50DOPE  H18Y 6449   0.408   6.067   5.914 -0.5418 -1.3359 -2.6337
   50DOPE  H18Z 6450   0.400   5.898   5.865 -3.0245  0.7906  0.0031
   51DOPE     N 6451   2.513   2.502   3.712 -0.1080  0.4681  0.5095
   51DOPE   HN1 6452   2.551   2.532   3.804  0.2237  1.5868  0.0360
   51DOPE   HN2 6453   2.573   2.542   3.636  0.0681  1.5040  1.1648
   51DOPE   HN3 6454   2.421   2.551   3.713  0.0024  0.7472  2.7350
   51DOPE   C12 6455   2.523   2.355   3.673 -0.1266  0.5498  0.5268
   51DOPE  H12A 6456   2.504   2.357   3.564 -2.3662 -0.8555  0.8104
   51DOPE  H12B 6457   2.447   2.299   3.732  1.8125 -3.0531 -0.1061
   51DOPE   C11 6458   2.667   2.308   3.705 -0.3067  0.5145  1.2187
   51DOPE  H11A 6459   2.732   2.370   3.639 -0.6647  1.7778  2.0083
   51DOPE  H11B 6460   2.678   2.201   3.676  1.9095  1.0402 -0.1686
   51DOPE     P 6461   2.681   2.231   3.945 -0.2994 -0.0790 -0.0978
   51DOPE   O13 6462   2.730   2.286   4.073 -0.6979 -0.0129 -0.1610
   51DOPE   O14 6463   2.749   2.109   3.896  0.5517  0.0963 -1.1947
   51DOPE   O11 6464   2.530   2.208   3.955 -1.0013 -0.2181 -0.5629
   51DOPE   O12 6465   2.699   2.334   3.839 -0.3535 -0.4720  0.1253
   51DOPE    C1 6466   2.452   2.250   4.065 -0.3313 -0.3588 -0.4179
   51DOPE    HA 6467   2.344   2.255   4.040 -0.3272  0.4396 -0.3171
   51DOPE    HB 6468   2.476   2.354   4.098  1.4644 -0.9903  0.3811
   51DOPE    C2 6469   2.476   2.155   4.185  0.2046 -0.2765 -0.1746
   51DOPE    HS 6470   2.586   2.141   4.181  0.4311  1.5626 -1.6693
   51DOPE   O21 6471   2.389   2.037   4.167 -0.0701 -0.3853 -0.4793
   51DOPE   C21 6472   2.449   1.930   4.201 -0.4169 -0.1508  0.7132
   51DOPE   O22 6473   2.566   1.920   4.243  0.2120 -0.4195  0.1124
   51DOPE   C22 6474   2.357   1.810   4.170  0.4404  0.3000 -0.2865
   51DOPE   H2R 6475   2.423   1.741   4.113  1.2778 -0.0777  1.0945
   51DOPE   H2S 6476   2.264   1.834   4.114 -0.2686 -0.1608  0.6625
   51DOPE    C3 6477   2.444   2.244   4.311 -0.2211 -0.3760  0.3168
   51DOPE    HX 6478   2.342   2.280   4.285 -0.3270 -0.8794  0.0181
   51DOPE    HY 6479   2.527   2.318   4.307  0.4778 -1.1097  0.8611
   51DOPE   O31 6480   2.432   2.173   4.434 -0.4090 -0.8831 -0.1899
   51DOPE   C31 6481   2.539   2.177   4.515  0.0712 -0.4640  0.6495
   51DOPE   O32 6482   2.645   2.233   4.490 -0.0460 -0.0258 -0.5555
   51DOPE   C32 6483   2.498   2.098   4.643  0.2027 -0.4454  0.0011
   51DOPE   H2X 6484   2.396   2.132   4.671  0.2254 -0.2597 -0.1374
   51DOPE   H2Y 6485   2.496   1.996   4.600 -1.1351 -0.2915 -0.3377
   51DOPE   C23 6486   2.323   1.733   4.296  0.3220  0.1527 -0.3332
   51DOPE   H3R 6487   2.413   1.703   4.354 -0.1654 -0.2751  0.2112
   51DOPE   H3S 6488   2.266   1.642   4.266 -1.7376 -0.1153  3.7926
   51DOPE   C24 6489   2.226   1.806   4.391 -0.8102  0.1962 -0.9036
   51DOPE   H4R 6490   2.130   1.810   4.335 -0.5519  0.4790 -1.3314
   51DOPE   H4S 6491   2.272   1.904   4.414  0.6731 -0.6880  0.0386
   51DOPE   C25 6492   2.205   1.731   4.524  0.6417  0.6237 -0.7627
   51DOPE   H5R 6493   2.303   1.705   4.569  0.2570 -1.6578 -1.1078
   51DOPE   H5S 6494   2.155   1.636   4.497  1.3291 -0.1442  0.5699
   51DOPE   C26 6495   2.136   1.814   4.623 -0.0463  0.1743 -0.7211
   51DOPE   H6R 6496   2.053   1.861   4.565  1.7072  0.9832 -2.6926
   51DOPE   H6S 6497   2.202   1.892   4.666  1.8302 -1.7692  0.0558
   51DOPE   C27 6498   2.085   1.732   4.739  0.2547 -0.1632 -0.4501
   51DOPE   H7R 6499   2.172   1.702   4.801 -0.1517 -0.2302  0.0986
   51DOPE   H7S 6500   2.034   1.636   4.712 -1.6343  0.6844 -0.0507
   51DOPE   C28 6501   1.993   1.813   4.836 -0.0845  0.5375 -0.9679
   51DOPE   H8R 6502   1.897   1.838   4.788  0.1418  2.3754 -0.5332
   51DOPE   H8S 6503   2.049   1.903   4.870  0.9125 -0.0640 -0.9578
   51DOPE   C29 6504   1.962   1.716   4.947  0.1587  0.2399  0.0515
   51DOPE   H9R 6505   1.988   1.610   4.930 -0.6549  0.0244  0.1029
   51DOPE  C210 6506   1.890   1.748   5.055 -0.3457 -0.1102  0.0685
   51DOPE  H10R 6507   1.864   1.665   5.122 -1.0322  0.4372  0.4991
   51DOPE  C211 6508   1.827   1.885   5.071  0.1182  0.3022 -0.3983
   51DOPE  H11R 6509   1.800   1.921   4.970  0.1427 -1.2383 -0.9714
   51DOPE  H11S 6510   1.906   1.954   5.110 -1.8316  2.2167  0.4033
   51DOPE  C212 6511   1.691   1.899   5.148  0.0194 -0.1939  0.0510
   51DOPE  H12R 6512   1.603   1.844   5.109 -0.7242  1.0335 -0.0687
   51DOPE  H12S 6513   1.659   2.006   5.156 -0.9868 -0.5396  0.7819
   51DOPE  C213 6514   1.690   1.834   5.293 -1.0156 -0.2282 -0.4251
   51DOPE  H13R 6515   1.682   1.723   5.290 -2.9486 -0.1056 -2.1339
   51DOPE  H13S 6516   1.592   1.874   5.327 -0.9924  1.1179 -1.8311
   51DOPE  C214 6517   1.806   1.866   5.389  0.3867  0.0621 -0.1680
   51DOPE  H14R 6518   1.901   1.825   5.349  1.1230  0.2829  1.2731
   51DOPE  H14S 6519   1.775   1.816   5.483 -0.7774  2.8559  1.0465
   51DOPE  C215 6520   1.824   2.020   5.411  0.0874  0.4060 -0.0660
   51DOPE  H15R 6521   1.850   2.069   5.314 -0.9221  0.2540 -0.4313
   51DOPE  H15S 6522   1.904   2.040   5.485 -0.0556  2.0846 -0.3268
   51DOPE  C216 6523   1.689   2.089   5.457 -0.2250  0.3205 -0.1365
   51DOPE  H16R 6524   1.603   2.070   5.391 -0.5012  1.8675 -0.2671
   51DOPE  H16S 6525   1.710   2.198   5.459 -0.5614  0.3814  1.3231
   51DOPE  C217 6526   1.657   2.048   5.602 -0.6119 -0.2952  0.0330
   51DOPE  H17R 6527   1.742   1.998   5.653 -1.2020 -1.9482 -0.5312
   51DOPE  H17S 6528   1.585   1.963   5.602 -1.1991  0.1977 -0.3768
   51DOPE  C218 6529   1.594   2.156   5.694  0.8487 -0.2976  0.3067
   51DOPE  H18R 6530   1.663   2.236   5.728  0.8315 -1.6643  3.9920
   51DOPE  H18S 6531   1.571   2.115   5.795  0.2393  1.0570  0.7383
   51DOPE  H18T 6532   1.506   2.205   5.647  0.2035 -0.5877  1.1871
   51DOPE   C33 6533   2.603   2.101   4.757 -0.1355 -0.2448 -0.1089
   51DOPE   H3X 6534   2.596   2.195   4.815 -1.5466  0.1778 -0.9114
   51DOPE   H3Y 6535   2.706   2.090   4.716 -0.4165 -1.2011 -0.5899
   51DOPE   C34 6536   2.574   1.996   4.864 -0.3301  0.6121 -0.1023
   51DOPE   H4X 6537   2.489   2.036   4.922  1.5659  1.9818  1.8948
   51DOPE   H4Y 6538   2.548   1.903   4.808  2.8361 -0.3395 -0.1945
   51DOPE   C35 6539   2.700   1.979   4.960 -0.4213  0.2519 -0.6572
   51DOPE   H5X 6540   2.754   2.069   4.998 -1.3315 -0.8893  3.8146
   51DOPE   H5Y 6541   2.780   1.929   4.901  0.3902  1.2084 -0.4045
   51DOPE   C36 6542   2.672   1.899   5.087  0.1585  0.8929 -0.6614
   51DOPE   H6X 6543   2.767   1.903   5.144 -0.2834  0.4127  0.1184
   51DOPE   H6Y 6544   2.642   1.796   5.060 -3.4244  1.6161  0.0473
   51DOPE   C37 6545   2.566   1.971   5.172  0.5604 -0.5674  0.0009
   51DOPE   H7X 6546   2.594   2.077   5.154  1.5834 -0.7680  0.3601
   51DOPE   H7Y 6547   2.469   1.956   5.120 -0.3121  2.4372  0.5594
   51DOPE   C38 6548   2.563   1.952   5.324  0.5145 -0.4867  0.4731
   51DOPE   H8X 6549   2.520   1.850   5.338 -0.4346 -0.2516 -0.5832
   51DOPE   H8Y 6550   2.486   2.014   5.374  2.6585  1.8603  1.0627
   51DOPE   C39 6551   2.685   1.963   5.412 -0.3945  0.6038  0.0598
   51DOPE   H9X 6552   2.782   1.952   5.362  1.1157  1.2018  2.6930
   51DOPE  C310 6553   2.694   1.990   5.545  0.4657 -0.2878 -0.4527
   51DOPE  H10X 6554   2.786   1.974   5.603  1.6579  0.3746 -2.1118
   51DOPE  C311 6555   2.570   2.024   5.632 -0.5848 -0.7805 -0.6613
   51DOPE  H11X 6556   2.583   2.130   5.663 -0.6620 -0.7494 -0.7358
   51DOPE  H11Y 6557   2.475   2.012   5.576  0.1870  0.9794 -2.4596
   51DOPE  C312 6558   2.567   1.944   5.764 -0.5495 -0.3879 -0.1884
   51DOPE  H12X 6559   2.489   1.997   5.823  0.2205  1.6498 -0.8888
   51DOPE  H12Y 6560   2.658   1.961   5.825  1.1535 -0.3777 -2.5657
   51DOPE  C313 6561   2.543   1.797   5.743 -0.3803 -0.8636 -0.0876
   51DOPE  H13X 6562   2.454   1.782   5.679  1.2018 -0.5440 -2.4973
   51DOPE  H13Y 6563   2.626   1.750   5.685  1.0596  0.8627  0.4748
   51DOPE  C314 6564   2.535   1.718   5.879  0.4239  0.3503  0.0387
   51DOPE  H14X 6565   2.635   1.724   5.926  0.1580 -1.9446  0.9970
   51DOPE  H14Y 6566   2.515   1.618   5.836  1.6152  0.8958 -1.8981
   51DOPE  C315 6567   2.425   1.760   5.981  0.2979  0.0326 -0.0583
   51DOPE  H15X 6568   2.325   1.730   5.943  0.4546 -0.5655  0.0045
   51DOPE  H15Y 6569   2.416   1.869   6.002 -3.9460 -0.0099 -0.7677
   51DOPE  C316 6570   2.422   1.692   6.115 -1.0183  0.1055  0.2802
   51DOPE  H16X 6571   2.332   1.727   6.170 -1.0988 -0.8107  0.7528
   51DOPE  H16Y 6572   2.515   1.694   6.176  0.7067 -1.7383 -2.0996
   51DOPE  C317 6573   2.397   1.533   6.116  0.0654  0.4318 -0.4851
   51DOPE  H17X 6574   2.291   1.523   6.083  0.3322  0.8616 -1.5175
   51DOPE  H17Y 6575   2.462   1.492   6.035  2.5473  2.9172  0.1048
   51DOPE  C318 6576   2.422   1.463   6.249  0.1248 -0.1972 -0.1773
   51DOPE  H18X 6577   2.380   1.362   6.227  1.9182 -0.8169 -0.9092
   51DOPE  H18Y 6578   2.529   1.465   6.279 -0.2715  2.4866  1.3448
   51DOPE  H18Z 6579   2.355   1.502   6.329 -0.2498 -2.9594  0.9679
   52DOPE     N 6580   0.920   3.650   3.602  0.3827 -0.1332 -0.1247
   52DOPE   HN1 6581   0.970   3.560   3.592 -0.5416 -1.0127  2.4116
   52DOPE   HN2 6582   0.878   3.631   3.695 -1.0683  1.2870 -0.4322
   52DOPE   HN3 6583   0.833   3.657   3.544  0.1674  2.2230  0.3925
   52DOPE   C12 6584   1.000   3.777   3.606  0.0736  0.7914  0.2288
   52DOPE  H12A 6585   1.022   3.797   3.499 -0.2323  0.3294  0.0727
   52DOPE  H12B 6586   1.092   3.774   3.669  1.0756  4.4499 -0.8795
   52DOPE   C11 6587   0.911   3.895   3.657  0.3148 -0.1040 -0.1014
   52DOPE  H11A 6588   0.974   3.986   3.673  0.5280 -0.1681 -0.5522
   52DOPE  H11B 6589   0.859   3.859   3.748 -0.3918  1.5923  0.2024
   52DOPE     P 6590   0.763   4.057   3.511  0.2208  0.1613  0.1924
   52DOPE   O13 6591   0.650   4.049   3.419  0.6927  0.0793 -0.2497
   52DOPE   O14 6592   0.869   4.144   3.462 -0.3647 -0.0194  0.7224
   52DOPE   O11 6593   0.721   4.119   3.650 -0.1296 -0.2330  0.0790
   52DOPE   O12 6594   0.813   3.915   3.550  0.2332 -0.4087  0.4721
   52DOPE    C1 6595   0.636   4.033   3.729  0.6533 -0.8964  1.4495
   52DOPE    HA 6596   0.669   3.927   3.737  0.0935 -1.0397  1.8984
   52DOPE    HB 6597   0.533   4.036   3.689  1.1102 -0.7723  0.2441
   52DOPE    C2 6598   0.613   4.083   3.867 -0.3683  0.1001  0.2168
   52DOPE    HS 6599   0.570   4.003   3.930  0.2662 -0.2214  0.2578
   52DOPE   O21 6600   0.520   4.194   3.851  0.0133  0.3597 -0.4357
   52DOPE   C21 6601   0.450   4.225   3.959 -0.3573  0.5107 -0.1632
   52DOPE   O22 6602   0.425   4.154   4.057 -0.3852  0.2403 -0.0040
   52DOPE   C22 6603   0.400   4.373   3.959 -0.3486 -0.6566  0.1821
   52DOPE   H2R 6604   0.333   4.387   3.871  1.2680  0.9561 -0.8655
   52DOPE   H2S 6605   0.485   4.439   3.933 -0.0466 -0.1422  2.2728
   52DOPE    C3 6606   0.748   4.128   3.931  0.5501 -0.2433  0.0447
   52DOPE    HX 6607   0.805   4.190   3.860  0.2054  0.9703  0.7924
   52DOPE    HY 6608   0.798   4.030   3.944  3.0859  0.8125 -1.1069
   52DOPE   O31 6609   0.723   4.207   4.055 -0.9209  0.5716  0.1674
   52DOPE   C31 6610   0.825   4.192   4.142  0.8515  0.1927  0.5748
   52DOPE   O32 6611   0.934   4.155   4.113 -0.7457  0.3106  1.0322
   52DOPE   C32 6612   0.780   4.236   4.276  0.0137  0.7929  0.2519
   52DOPE   H2X 6613   0.793   4.346   4.267 -2.4588  1.1133 -0.1202
   52DOPE   H2Y 6614   0.672   4.216   4.285 -0.1213  0.8915 -0.9512
   52DOPE   C23 6615   0.315   4.424   4.078  0.1451  0.2488 -0.8661
   52DOPE   H3R 6616   0.243   4.343   4.102  0.9471 -0.4396 -0.7163
   52DOPE   H3S 6617   0.247   4.510   4.063  1.5117  1.4232 -0.5584
   52DOPE   C24 6618   0.404   4.459   4.200  0.1800  0.0265 -0.0691
   52DOPE   H4R 6619   0.466   4.546   4.171 -1.0242  1.0648  0.3399
   52DOPE   H4S 6620   0.467   4.369   4.217  1.7449  1.4268  2.1286
   52DOPE   C25 6621   0.329   4.503   4.332  0.7051  0.3782 -0.1514
   52DOPE   H5R 6622   0.243   4.432   4.330  1.4317 -0.5273 -0.1371
   52DOPE   H5S 6623   0.297   4.608   4.320  0.6106  0.3800  0.1196
   52DOPE   C26 6624   0.404   4.496   4.463  0.4184  0.2272 -0.0274
   52DOPE   H6R 6625   0.492   4.564   4.462  0.7017 -0.0027 -3.6451
   52DOPE   H6S 6626   0.442   4.392   4.462 -0.0440 -0.0058 -3.0122
   52DOPE   C27 6627   0.319   4.518   4.587 -0.0109  0.3702  0.6403
   52DOPE   H7R 6628   0.238   4.442   4.597 -3.8141  3.8974 -0.7715
   52DOPE   H7S 6629   0.263   4.611   4.565  1.3101  1.0796  0.1347
   52DOPE   C28 6630   0.408   4.542   4.712  0.1230  0.7055 -0.1532
   52DOPE   H8R 6631   0.334   4.585   4.782 -0.8059 -0.3034 -0.4861
   52DOPE   H8S 6632   0.482   4.620   4.684 -1.0917  1.8598 -0.2338
   52DOPE   C29 6633   0.474   4.416   4.762  0.2532 -0.1581 -0.4632
   52DOPE   H9R 6634   0.537   4.358   4.693 -0.7965 -1.4826 -0.3491
   52DOPE  C210 6635   0.442   4.354   4.875 -0.3737  0.9902 -0.5114
   52DOPE  H10R 6636   0.495   4.259   4.892 -0.5532  0.3811 -2.9830
   52DOPE  C211 6637   0.351   4.405   4.992  0.0280 -0.2619  0.6273
   52DOPE  H11R 6638   0.284   4.319   5.014  0.8306 -0.4579  2.5573
   52DOPE  H11S 6639   0.276   4.478   4.956  1.0616  0.4724 -0.0733
   52DOPE  C212 6640   0.427   4.458   5.112 -0.6930 -0.4787 -1.2777
   52DOPE  H12R 6641   0.456   4.562   5.085 -0.2850 -0.4670 -0.8042
   52DOPE  H12S 6642   0.514   4.393   5.132  2.1683  3.3935  0.0285
   52DOPE  C213 6643   0.334   4.465   5.231 -0.5322 -0.0027 -0.1633
   52DOPE  H13R 6644   0.298   4.366   5.266  0.3556 -0.4452 -0.4784
   52DOPE  H13S 6645   0.247   4.527   5.200 -0.3712 -0.8069 -2.3542
   52DOPE  C214 6646   0.407   4.528   5.359  0.0449  0.2631  0.4454
   52DOPE  H14R 6647   0.458   4.622   5.328  0.1861  0.3090  0.8084
   52DOPE  H14S 6648   0.489   4.458   5.384  1.1323  1.2463 -0.2750
   52DOPE  C215 6649   0.333   4.553   5.492  0.3209 -0.2332  0.7307
   52DOPE  H15R 6650   0.401   4.593   5.570  0.3170 -1.3638  1.3445
   52DOPE  H15S 6651   0.289   4.460   5.536  0.1195  0.0452  1.1217
   52DOPE  C216 6652   0.212   4.641   5.460 -0.3143  0.1899 -0.5893
   52DOPE  H16R 6653   0.127   4.571   5.443 -1.9474  1.3851  2.0179
   52DOPE  H16S 6654   0.245   4.698   5.370  0.3673 -1.6488 -1.5544
   52DOPE  C217 6655   0.180   4.743   5.569  0.4275 -0.2217 -0.5646
   52DOPE  H17R 6656   0.117   4.823   5.525 -0.5572 -1.7552 -2.0732
   52DOPE  H17S 6657   0.280   4.784   5.594 -0.1705  0.9513  0.0085
   52DOPE  C218 6658   0.106   4.688   5.689 -0.2133  0.1487 -0.1065
   52DOPE  H18R 6659   0.157   4.611   5.751  0.1319  1.4903  1.3265
   52DOPE  H18S 6660   0.097   4.773   5.759  0.7725  0.5467 -0.4499
   52DOPE  H18T 6661   0.003   4.651   5.669 -0.6807  2.8878 -4.0433
   52DOPE   C33 6662   0.865   4.179   4.396  0.1476  0.7114 -0.6585
   52DOPE   H3X 6663   0.938   4.256   4.429  0.6944 -0.5396  1.1847
   52DOPE   H3Y 6664   0.928   4.088   4.385 -0.6308 -0.3372  2.5223
   52DOPE   C34 6665   0.772   4.152   4.518 -0.2319 -0.3218 -0.3562
   52DOPE   H4X 6666   0.729   4.252   4.536  1.0080  0.2406 -0.3944
   52DOPE   H4Y 6667   0.704   4.068   4.492 -0.5719  0.5417 -2.4029
   52DOPE   C35 6668   0.848   4.128   4.656  0.4826  0.3788  0.5549
   52DOPE   H5X 6669   0.932   4.200   4.656 -0.9038  2.0989 -0.8692
   52DOPE   H5Y 6670   0.894   4.027   4.653  2.0689  1.0655  0.9798
   52DOPE   C36 6671   0.750   4.153   4.766  0.2570  1.3440 -0.5385
   52DOPE   H6X 6672   0.662   4.087   4.752  1.7773 -0.5543 -1.6928
   52DOPE   H6Y 6673   0.719   4.260   4.769 -0.5865  1.0800  1.6796
   52DOPE   C37 6674   0.807   4.113   4.908  0.0682  0.3056  0.2706
   52DOPE   H7X 6675   0.828   4.005   4.920 -1.4572  0.0412  0.8807
   52DOPE   H7Y 6676   0.907   4.161   4.914  0.7514 -1.0731  0.2004
   52DOPE   C38 6677   0.727   4.162   5.025 -0.4979  0.1558 -0.4754
   52DOPE   H8X 6678   0.682   4.262   5.008 -1.3332 -0.4948 -2.3677
   52DOPE   H8Y 6679   0.806   4.170   5.103 -1.3336 -1.0417  0.5310
   52DOPE   C39 6680   0.615   4.068   5.062 -0.3557 -0.2347  0.4161
   52DOPE   H9X 6681   0.556   4.033   4.976  0.4362  0.7345 -0.5493
   52DOPE  C310 6682   0.591   4.008   5.181  0.0744 -0.0073 -0.1536
   52DOPE  H10X 6683   0.504   3.940   5.190  3.0647 -4.2740 -0.2158
   52DOPE  C311 6684   0.654   4.052   5.319  0.0840 -0.1769 -0.1403
   52DOPE  H11X 6685   0.685   3.965   5.382 -0.5165 -1.8176 -2.0085
   52DOPE  H11Y 6686   0.751   4.101   5.297 -0.3471  0.0808 -1.5408
   52DOPE  C312 6687   0.557   4.149   5.394  0.5219 -0.7800 -0.7628
   52DOPE  H12X 6688   0.521   4.226   5.323  1.2756 -1.3628 -1.7873
   52DOPE  H12Y 6689   0.622   4.186   5.476 -0.1820 -2.4902  0.6262
   52DOPE  C313 6690   0.438   4.072   5.453 -0.1483 -0.7380 -0.5361
   52DOPE  H13X 6691   0.371   4.037   5.371 -0.4626 -1.5227  0.0453
   52DOPE  H13Y 6692   0.468   3.987   5.517  1.2455  1.4456  1.9032
   52DOPE  C314 6693   0.359   4.162   5.553  0.2508  0.1424  0.1584
   52DOPE  H14X 6694   0.271   4.100   5.582  0.5300 -1.1154 -1.4981
   52DOPE  H14Y 6695   0.330   4.250   5.492 -0.3141  0.9485  1.5312
   52DOPE  C315 6696   0.434   4.218   5.672  0.3939  0.6257  0.2023
   52DOPE  H15X 6697   0.498   4.307   5.650  1.9393 -0.3444  0.5750
   52DOPE  H15Y 6698   0.508   4.141   5.704 -1.4161 -2.3518 -2.2804
   52DOPE  C316 6699   0.342   4.258   5.777  0.2091 -0.3861 -0.1398
   52DOPE  H16X 6700   0.272   4.174   5.797 -2.7893  2.1166  0.7526
   52DOPE  H16Y 6701   0.277   4.339   5.737  1.5157  0.2614 -1.0223
   52DOPE  C317 6702   0.393   4.320   5.908 -0.1607 -0.8065 -0.0933
   52DOPE  H17X 6703   0.315   4.309   5.986  0.2607  0.2209  0.4987
   52DOPE  H17Y 6704   0.486   4.268   5.940  0.0372 -0.8501 -0.7233
   52DOPE  C318 6705   0.434   4.466   5.888  0.1499  0.1979 -0.4866
   52DOPE  H18X 6706   0.347   4.532   5.867 -0.9982 -1.8518 -2.5691
   52DOPE  H18Y 6707   0.479   4.513   5.978 -0.4542 -1.1340  0.5503
   52DOPE  H18Z 6708   0.501   4.489   5.804  0.5106  3.1437  0.4970
   53DOPE     N 6709   5.532   6.237   3.826  0.1373  0.2836  0.2551
   53DOPE   HN1 6710   5.504   6.306   3.753  1.6611 -1.1012 -1.7589
   53DOPE   HN2 6711   5.443   6.183   3.836 -1.0174  1.4135 -2.7181
   53DOPE   HN3 6712   5.564   6.287   3.911  0.5030 -0.1488  0.3750
   53DOPE   C12 6713   5.624   6.139   3.756  0.0336 -0.3585  0.5605
   53DOPE  H12A 6714   5.671   6.074   3.833 -0.8900 -1.1240  0.4948
   53DOPE  H12B 6715   5.696   6.190   3.688 -1.0681 -0.1712 -0.4978
   53DOPE   C11 6716   5.533   6.055   3.662  0.3004 -0.2875 -0.2118
   53DOPE  H11A 6717   5.601   5.980   3.616  1.5903  0.4590  0.4218
   53DOPE  H11B 6718   5.482   6.116   3.584 -0.7809 -1.4372 -0.4371
   53DOPE     P 6719   5.376   5.855   3.728 -0.0596  0.4107  0.1234
   53DOPE   O13 6720   5.393   5.821   3.583  0.3796 -0.2235 -0.1427
   53DOPE   O14 6721   5.239   5.845   3.788 -0.1711  0.1024  0.5368
   53DOPE   O11 6722   5.471   5.754   3.808 -0.4343  0.8818 -0.7253
   53DOPE   O12 6723   5.437   5.996   3.754  0.2583 -0.2969  0.0418
   53DOPE    C1 6724   5.524   5.807   3.925 -0.8268 -0.1827 -0.5539
   53DOPE    HA 6725   5.597   5.887   3.901  0.7776 -1.8718 -1.4820
   53DOPE    HB 6726   5.573   5.723   3.977 -2.5425 -1.4355 -0.8544
   53DOPE    C2 6727   5.415   5.864   4.035 -0.3043  0.0699  0.2109
   53DOPE    HS 6728   5.350   5.943   3.992 -0.9029 -1.4089 -1.7883
   53DOPE   O21 6729   5.492   5.907   4.145 -0.7575  0.0873  0.0409
   53DOPE   C21 6730   5.533   6.034   4.146  0.0513 -0.1970 -0.2710
   53DOPE   O22 6731   5.502   6.113   4.062  0.2320 -0.2074 -0.3865
   53DOPE   C22 6732   5.623   6.061   4.262 -0.2754 -0.4230  1.0405
   53DOPE   H2R 6733   5.673   5.965   4.288 -0.7820 -0.3637  2.2839
   53DOPE   H2S 6734   5.552   6.090   4.342 -2.2885 -0.5792 -0.6120
   53DOPE    C3 6735   5.304   5.774   4.083 -0.3837 -0.0165 -0.2469
   53DOPE    HX 6736   5.235   5.752   3.998  0.6258  0.0020 -1.1064
   53DOPE    HY 6737   5.245   5.826   4.160  2.0919  0.2836  1.5732
   53DOPE   O31 6738   5.359   5.648   4.125 -0.1026  0.4093 -0.6510
   53DOPE   C31 6739   5.383   5.638   4.260  0.2759  0.6508 -0.1142
   53DOPE   O32 6740   5.378   5.734   4.335  0.1433 -0.0394 -0.0417
   53DOPE   C32 6741   5.425   5.492   4.290 -0.0784 -0.0696  0.2323
   53DOPE   H2X 6742   5.375   5.425   4.217  0.2781  0.2615 -0.3283
   53DOPE   H2Y 6743   5.530   5.483   4.257 -0.1931  0.5686 -0.3438
   53DOPE   C23 6744   5.726   6.176   4.233  0.0483 -0.2228  0.0350
   53DOPE   H3R 6745   5.673   6.273   4.218  1.4213  0.6559  0.7102
   53DOPE   H3S 6746   5.785   6.150   4.142  0.7215 -1.2505  0.7456
   53DOPE   C24 6747   5.826   6.211   4.344 -0.5680  0.0090  0.3111
   53DOPE   H4R 6748   5.897   6.126   4.354 -0.4950  0.1221  0.7592
   53DOPE   H4S 6749   5.768   6.219   4.438 -0.3475  0.1928  0.4320
   53DOPE   C25 6750   5.912   6.337   4.314 -0.2265  0.0041  0.0433
   53DOPE   H5R 6751   5.838   6.418   4.301 -1.0051 -0.7826 -0.5778
   53DOPE   H5S 6752   5.953   6.321   4.213  0.5343  0.5058  0.2685
   53DOPE   C26 6753   6.020   6.369   4.418 -0.3843 -0.2009 -0.7095
   53DOPE   H6R 6754   6.105   6.297   4.415 -2.1023 -2.3192 -2.4842
   53DOPE   H6S 6755   5.965   6.373   4.514 -0.2958  1.6039 -0.7022
   53DOPE   C27 6756   6.084   6.516   4.405  0.1730 -0.0785  0.1818
   53DOPE   H7R 6757   6.005   6.591   4.427 -0.1132 -0.8911  2.0984
   53DOPE   H7S 6758   6.107   6.531   4.297  0.6624 -1.2394  0.1043
   53DOPE   C28 6759   6.204   6.530   4.507 -0.0239 -0.2570 -0.0720
   53DOPE   H8R 6760   6.284   6.590   4.458 -0.1696  1.8562  2.0759
   53DOPE   H8S 6761   6.242   6.427   4.517  0.0511 -0.3505 -1.1582
   53DOPE   C29 6762   6.168   6.592   4.640 -0.9200  0.6049  0.0514
   53DOPE   H9R 6763   6.147   6.700   4.633  1.0016  0.9557 -0.8593
   53DOPE  C210 6764   6.164   6.530   4.758  0.9568  0.3693  0.0723
   53DOPE  H10R 6765   6.141   6.592   4.846  0.8420  1.3745 -0.6461
   53DOPE  C211 6766   6.188   6.384   4.786  0.3762 -0.8909 -0.0681
   53DOPE  H11R 6767   6.296   6.360   4.771  1.0986 -1.1905  4.2733
   53DOPE  H11S 6768   6.121   6.321   4.724 -1.3830 -0.7330  1.5828
   53DOPE  C212 6769   6.155   6.344   4.940 -0.6835  0.2545 -0.1080
   53DOPE  H12R 6770   6.155   6.233   4.933 -2.8900  0.0972  1.3750
   53DOPE  H12S 6771   6.048   6.369   4.955 -1.6234 -1.2378 -3.4460
   53DOPE  C213 6772   6.267   6.398   5.038  1.0498  0.6852  0.7904
   53DOPE  H13R 6773   6.271   6.509   5.042  1.6516  0.7863 -1.1799
   53DOPE  H13S 6774   6.366   6.371   4.994  0.7373 -0.0603  0.5179
   53DOPE  C214 6775   6.250   6.329   5.173  0.3759 -0.0226  0.9074
   53DOPE  H14R 6776   6.267   6.220   5.192  0.1740  0.1140  1.9316
   53DOPE  H14S 6777   6.145   6.342   5.204  0.3951  1.5405  0.3846
   53DOPE  C215 6778   6.343   6.406   5.270  0.7034 -0.1069 -0.1933
   53DOPE  H15R 6779   6.316   6.513   5.263  0.7778 -0.0080  0.9247
   53DOPE  H15S 6780   6.450   6.389   5.243  0.8584  1.0018 -0.3184
   53DOPE  C216 6781   6.333   6.368   5.422  0.1398  0.2883  0.7458
   53DOPE  H16R 6782   6.342   6.258   5.427 -0.9996  0.2357  2.1099
   53DOPE  H16S 6783   6.229   6.396   5.450  0.6023  1.4092  1.4573
   53DOPE  C217 6784   6.422   6.447   5.520  0.5188  0.2196 -0.5350
   53DOPE  H17R 6785   6.405   6.399   5.618  2.6117  2.0177  0.8073
   53DOPE  H17S 6786   6.383   6.551   5.527 -1.3319 -0.5007  0.2634
   53DOPE  C218 6787   6.564   6.434   5.478 -0.7802 -0.7367 -0.0786
   53DOPE  H18R 6788   6.636   6.485   5.546 -0.2333  0.5625 -1.5595
   53DOPE  H18S 6789   6.585   6.477   5.378 -0.1059 -0.8413  0.0128
   53DOPE  H18T 6790   6.600   6.330   5.492  3.1514  0.4506 -0.1891
   53DOPE   C33 6791   5.401   5.455   4.439 -0.2592  0.0657  0.0782
   53DOPE   H3X 6792   5.293   5.454   4.468 -0.4999  1.2518 -0.6870
   53DOPE   H3Y 6793   5.458   5.527   4.501  0.6406 -0.5637  0.0034
   53DOPE   C34 6794   5.470   5.317   4.469  0.0318 -0.3172 -0.1933
   53DOPE   H4X 6795   5.459   5.257   4.376 -1.4403 -3.2839  1.7396
   53DOPE   H4Y 6796   5.581   5.321   4.469  0.0534 -0.7689  0.6499
   53DOPE   C35 6797   5.416   5.248   4.592  0.0966 -0.0361 -0.2674
   53DOPE   H5X 6798   5.471   5.152   4.601  3.0692  1.0622 -4.0849
   53DOPE   H5Y 6799   5.306   5.232   4.581  0.0921  0.2206 -0.6131
   53DOPE   C36 6800   5.428   5.319   4.725  1.2041  0.0262 -0.0720
   53DOPE   H6X 6801   5.394   5.247   4.802  1.3061 -0.7201 -0.7032
   53DOPE   H6Y 6802   5.363   5.408   4.738  0.6344 -0.3869 -0.0635
   53DOPE   C37 6803   5.569   5.353   4.760 -0.2778 -0.1057  0.0433
   53DOPE   H7X 6804   5.613   5.265   4.811 -0.2281 -0.7555 -1.0933
   53DOPE   H7Y 6805   5.636   5.364   4.672  0.3144  0.8628  0.5899
   53DOPE   C38 6806   5.573   5.487   4.836  0.6900  0.0669 -0.3889
   53DOPE   H8X 6807   5.518   5.564   4.778  1.8549  0.4039 -1.0853
   53DOPE   H8Y 6808   5.675   5.531   4.852  0.7933  0.0726 -1.0537
   53DOPE   C39 6809   5.501   5.478   4.961  1.0038  0.6480 -0.4296
   53DOPE   H9X 6810   5.405   5.427   4.950  0.1133  1.7406  1.5614
   53DOPE  C310 6811   5.533   5.528   5.080 -0.1332  0.5415  0.5441
   53DOPE  H10X 6812   5.469   5.521   5.170  0.1273 -0.7217  0.6508
   53DOPE  C311 6813   5.652   5.617   5.101  0.7860  0.5682 -0.0469
   53DOPE  H11X 6814   5.688   5.670   5.010 -0.3057  0.4764 -0.5483
   53DOPE  H11Y 6815   5.615   5.686   5.180 -0.3933 -2.0752  1.8334
   53DOPE  C312 6816   5.757   5.537   5.164  0.1174 -1.1037 -0.4176
   53DOPE  H12X 6817   5.799   5.477   5.079  0.0887  0.0218 -1.2521
   53DOPE  H12Y 6818   5.715   5.480   5.249 -0.6142 -1.9099 -1.2947
   53DOPE  C313 6819   5.866   5.631   5.221 -0.2139 -0.5427  1.2620
   53DOPE  H13X 6820   5.921   5.672   5.134  1.0593 -2.5410  1.0661
   53DOPE  H13Y 6821   5.821   5.717   5.276 -1.8279 -1.5739  1.6371
   53DOPE  C314 6822   5.971   5.573   5.314  0.3128  0.3745 -0.2921
   53DOPE  H14X 6823   6.050   5.650   5.330 -0.8124  1.0880  2.4250
   53DOPE  H14Y 6824   6.011   5.482   5.265  0.9729  0.7764 -0.5139
   53DOPE  C315 6825   5.903   5.531   5.445  0.1654  0.0543 -0.1981
   53DOPE  H15X 6826   5.839   5.442   5.423 -0.1949 -0.3569  2.2309
   53DOPE  H15Y 6827   5.841   5.620   5.468  0.5371  0.1207  0.6026
   53DOPE  C316 6828   5.997   5.491   5.564 -0.5359 -0.2654 -0.3985
   53DOPE  H16X 6829   6.053   5.398   5.539 -1.5382 -1.7177  2.3727
   53DOPE  H16Y 6830   5.937   5.467   5.654  1.1484 -1.5422  0.4466
   53DOPE  C317 6831   6.104   5.596   5.605  0.1684  0.1042 -0.4750
   53DOPE  H17X 6832   6.167   5.619   5.517 -1.0718  0.4493 -1.3031
   53DOPE  H17Y 6833   6.040   5.686   5.617  0.9292  0.8590 -1.8179
   53DOPE  C318 6834   6.182   5.551   5.730 -0.6707 -0.1331 -0.5066
   53DOPE  H18X 6835   6.232   5.452   5.720 -1.5880 -0.7495  0.7069
   53DOPE  H18Y 6836   6.257   5.625   5.765 -1.8068  1.4469 -1.2845
   53DOPE  H18Z 6837   6.115   5.541   5.818 -1.3412 -1.0576 -1.1099
   54DOPE     N 6838   1.665   5.005   4.227  0.3661 -0.3857 -0.4501
   54DOPE   HN1 6839   1.745   5.069   4.244 -1.5087  1.8322  0.5611
   54DOPE   HN2 6840   1.582   5.066   4.240  1.1379  0.5770  0.0519
   54DOPE   HN3 6841   1.659   4.935   4.304  1.1474 -0.3829 -0.3761
   54DOPE   C12 6842   1.670   4.941   4.092  0.0124 -0.7636 -0.7419
   54DOPE  H12A 6843   1.642   5.020   4.019 -0.5813  0.5228  0.8166
   54DOPE  H12B 6844   1.593   4.861   4.089 -0.6407 -0.1362 -0.9907
   54DOPE   C11 6845   1.800   4.876   4.066  0.0100  0.1222 -0.0300
   54DOPE  H11A 6846   1.887   4.946   4.070  1.7028 -1.7775 -1.3754
   54DOPE  H11B 6847   1.794   4.825   3.968 -1.3321 -0.7123  0.4555
   54DOPE     P 6848   1.928   4.665   4.162  0.0349  0.0978 -0.3222
   54DOPE   O13 6849   1.975   4.648   4.303  0.5106  0.0848  0.0232
   54DOPE   O14 6850   2.027   4.702   4.063  0.2572 -0.7616  0.1582
   54DOPE   O11 6851   1.845   4.535   4.114 -0.6705 -0.1954  0.4378
   54DOPE   O12 6852   1.820   4.781   4.172  0.1277  0.1737 -0.0373
   54DOPE    C1 6853   1.701   4.535   4.101  0.7056  0.0074 -0.2397
   54DOPE    HA 6854   1.668   4.452   4.036  2.7480 -0.3380 -0.9301
   54DOPE    HB 6855   1.663   4.626   4.049 -0.8648 -1.1218 -1.1329
   54DOPE    C2 6856   1.612   4.512   4.230  0.1236 -0.9427 -0.4259
   54DOPE    HS 6857   1.582   4.608   4.277  1.0675 -0.3696 -0.9612
   54DOPE   O21 6858   1.700   4.448   4.324 -0.4698  0.3411  0.3198
   54DOPE   C21 6859   1.704   4.496   4.446 -0.7314 -0.2157 -0.4096
   54DOPE   O22 6860   1.630   4.585   4.487  0.4203 -0.1710 -0.0598
   54DOPE   C22 6861   1.805   4.412   4.535  0.5206 -0.1162  0.2876
   54DOPE   H2R 6862   1.879   4.373   4.461 -0.3996  0.3211 -0.9003
   54DOPE   H2S 6863   1.750   4.318   4.555 -1.8890  0.9919 -0.7442
   54DOPE    C3 6864   1.485   4.430   4.211 -0.3861  0.1660  0.2055
   54DOPE    HX 6865   1.514   4.326   4.184  1.0323  0.5385  0.2192
   54DOPE    HY 6866   1.428   4.473   4.126 -2.5350 -1.5748  0.6557
   54DOPE   O31 6867   1.386   4.441   4.314 -0.5869  0.5351  0.4960
   54DOPE   C31 6868   1.407   4.356   4.412 -0.4536 -0.2066 -0.5326
   54DOPE   O32 6869   1.490   4.267   4.419  0.4906  0.0900  0.1770
   54DOPE   C32 6870   1.300   4.386   4.521  0.5796 -0.0343  0.2134
   54DOPE   H2X 6871   1.262   4.490   4.514  2.0414  0.5213  0.1422
   54DOPE   H2Y 6872   1.212   4.320   4.506 -0.4136  1.3910 -0.5183
   54DOPE   C23 6873   1.866   4.488   4.656  0.4606  0.4246  0.1265
   54DOPE   H3R 6874   1.913   4.586   4.633  0.6379 -0.0256 -1.5540
   54DOPE   H3S 6875   1.948   4.421   4.689  1.7145  1.2708 -1.2012
   54DOPE   C24 6876   1.753   4.487   4.769 -0.4874  0.6941 -0.4376
   54DOPE   H4R 6877   1.726   4.379   4.772  3.9843 -0.6118  0.6525
   54DOPE   H4S 6878   1.677   4.556   4.725 -0.5501  0.1375 -1.2274
   54DOPE   C25 6879   1.798   4.539   4.907  0.5224 -0.3922 -0.3536
   54DOPE   H5R 6880   1.858   4.632   4.909 -0.4688  0.2823  2.4060
   54DOPE   H5S 6881   1.862   4.462   4.954 -0.6213 -0.4826  1.1146
   54DOPE   C26 6882   1.677   4.541   5.002 -0.5759  0.4034 -0.2962
   54DOPE   H6R 6883   1.632   4.442   5.027  0.0656  0.1493 -0.1350
   54DOPE   H6S 6884   1.598   4.599   4.950 -0.9074  0.6036  0.4208
   54DOPE   C27 6885   1.718   4.610   5.142 -0.3079  0.2367 -0.1056
   54DOPE   H7R 6886   1.758   4.713   5.126 -1.8986  1.1426  1.3214
   54DOPE   H7S 6887   1.790   4.546   5.197 -2.1874 -0.8684  1.1718
   54DOPE   C28 6888   1.595   4.621   5.243  0.6952 -0.2003  0.1925
   54DOPE   H8R 6889   1.536   4.528   5.233  1.0119 -0.1736 -3.0642
   54DOPE   H8S 6890   1.523   4.701   5.215 -0.5294 -0.6690  1.8316
   54DOPE   C29 6891   1.641   4.648   5.382 -0.5771  0.1599 -0.7877
   54DOPE   H9R 6892   1.750   4.660   5.397 -0.1555 -0.2475 -3.1072
   54DOPE  C210 6893   1.555   4.658   5.488  0.3184  0.0238 -0.3271
   54DOPE  H10R 6894   1.598   4.687   5.585  1.2789 -0.3590 -0.6313
   54DOPE  C211 6895   1.403   4.639   5.472 -0.5786  0.7663 -0.4478
   54DOPE  H11R 6896   1.376   4.535   5.498  2.8393  0.0224  0.5081
   54DOPE  H11S 6897   1.377   4.653   5.365 -0.0754 -0.6273 -0.7759
   54DOPE  C212 6898   1.327   4.745   5.552  0.6664 -0.1932 -0.6074
   54DOPE  H12R 6899   1.221   4.743   5.517  0.6044 -0.2343 -0.4229
   54DOPE  H12S 6900   1.367   4.847   5.536  1.9853 -0.6465 -0.3180
   54DOPE  C213 6901   1.311   4.719   5.709  0.0090  0.0763  0.5186
   54DOPE  H13R 6902   1.237   4.787   5.755  1.4916  1.6971  0.6103
   54DOPE  H13S 6903   1.410   4.741   5.755  0.1141  2.3196 -0.6501
   54DOPE  C214 6904   1.278   4.574   5.752 -0.0474 -0.3410 -0.7921
   54DOPE  H14R 6905   1.358   4.502   5.725 -0.1240 -0.5294 -0.5309
   54DOPE  H14S 6906   1.181   4.548   5.704 -0.6448 -0.4104  0.3911
   54DOPE  C215 6907   1.242   4.559   5.897 -0.5669  0.6978  0.3559
   54DOPE  H15R 6908   1.168   4.636   5.928 -1.3780 -0.3189  1.0326
   54DOPE  H15S 6909   1.333   4.584   5.955  0.7327 -0.7468 -0.9676
   54DOPE  C216 6910   1.194   4.415   5.939  0.2849 -0.3338  0.0442
   54DOPE  H16R 6911   1.273   4.345   5.905 -0.3594 -1.5568  0.9519
   54DOPE  H16S 6912   1.100   4.402   5.881  0.1957  0.7801 -0.0723
   54DOPE  C217 6913   1.184   4.395   6.088 -0.1876 -0.3618  0.2804
   54DOPE  H17R 6914   1.135   4.296   6.093 -1.2273  0.1025 -0.4273
   54DOPE  H17S 6915   1.120   4.468   6.140 -1.3225  1.3018 -3.1725
   54DOPE  C218 6916   1.308   4.391   6.173 -0.3868  0.5766  0.3346
   54DOPE  H18R 6917   1.368   4.306   6.132 -0.8083 -0.2999  1.4921
   54DOPE  H18S 6918   1.278   4.368   6.277  1.4285  1.6432  1.1484
   54DOPE  H18T 6919   1.375   4.479   6.168  0.8107 -0.3496 -0.8128
   54DOPE   C33 6920   1.359   4.369   4.660  0.3944  0.6043 -0.5798
   54DOPE   H3X 6921   1.445   4.439   4.672 -0.7586  2.1885 -1.2643
   54DOPE   H3Y 6922   1.383   4.264   4.687 -1.6593  0.1213 -0.4420
   54DOPE   C34 6923   1.256   4.408   4.760  0.5132 -0.1601 -0.2022
   54DOPE   H4X 6924   1.230   4.516   4.752  0.6867 -0.0428  0.7397
   54DOPE   H4Y 6925   1.162   4.353   4.738  0.4895 -1.5833  2.9615
   54DOPE   C35 6926   1.311   4.376   4.905 -0.2669 -1.0094 -0.1157
   54DOPE   H5X 6927   1.407   4.430   4.914 -1.5910  1.4251  0.1444
   54DOPE   H5Y 6928   1.339   4.268   4.904  3.9753 -0.0483 -0.3633
   54DOPE   C36 6929   1.220   4.416   5.022 -0.1828 -0.3753 -0.0964
   54DOPE   H6X 6930   1.121   4.376   4.989 -0.9266  0.8803  0.5371
   54DOPE   H6Y 6931   1.225   4.527   5.022 -1.4211 -0.2535  2.2577
   54DOPE   C37 6932   1.259   4.358   5.160  0.4707  0.6515  0.2858
   54DOPE   H7X 6933   1.263   4.247   5.150  1.2964  0.9011 -3.8576
   54DOPE   H7Y 6934   1.356   4.406   5.182  0.2737  0.3169  2.0422
   54DOPE   C38 6935   1.155   4.378   5.272 -0.3537 -0.1964  0.7198
   54DOPE   H8X 6936   1.209   4.359   5.368  1.7969 -1.5563 -0.6703
   54DOPE   H8Y 6937   1.063   4.318   5.256 -0.8510  1.4800 -4.4711
   54DOPE   C39 6938   1.118   4.527   5.264  0.6156 -0.3238 -0.1290
   54DOPE   H9X 6939   1.202   4.595   5.244  2.5422 -2.4322  0.3531
   54DOPE  C310 6940   0.999   4.583   5.274 -0.0788  0.5491 -0.2071
   54DOPE  H10X 6941   0.993   4.692   5.262  0.0630  0.6815  0.8045
   54DOPE  C311 6942   0.866   4.517   5.314 -0.1335 -0.2793  0.1033
   54DOPE  H11X 6943   0.798   4.496   5.229  0.7126 -0.7587 -0.4752
   54DOPE  H11Y 6944   0.887   4.415   5.353 -0.4663 -0.7035 -0.8064
   54DOPE  C312 6945   0.791   4.594   5.422 -0.4619 -0.3864 -0.6303
   54DOPE  H12X 6946   0.706   4.525   5.438 -1.2626  0.8933  0.8575
   54DOPE  H12Y 6947   0.738   4.685   5.385 -3.6001 -2.0457 -0.4888
   54DOPE  C313 6948   0.870   4.613   5.555 -0.1845 -0.7622 -0.2035
   54DOPE  H13X 6949   0.924   4.517   5.567 -0.5322 -1.0902 -1.2434
   54DOPE  H13Y 6950   0.939   4.696   5.529 -0.4377  0.0414  1.5135
   54DOPE  C314 6951   0.771   4.647   5.673 -0.1806 -0.5670  0.2785
   54DOPE  H14X 6952   0.715   4.551   5.671  1.4705 -1.5732 -0.6308
   54DOPE  H14Y 6953   0.702   4.729   5.643  0.9406  1.5188  2.9700
   54DOPE  C315 6954   0.856   4.689   5.793 -0.0867  0.2383 -0.1660
   54DOPE  H15X 6955   0.930   4.764   5.758  0.7499 -0.8118 -0.6955
   54DOPE  H15Y 6956   0.924   4.603   5.810 -0.5178 -0.3712 -1.4603
   54DOPE  C316 6957   0.781   4.719   5.925 -0.3619  0.5504 -0.3571
   54DOPE  H16X 6958   0.850   4.718   6.012  0.4340  1.1680 -0.9617
   54DOPE  H16Y 6959   0.716   4.630   5.937 -0.8216  1.0414  0.9232
   54DOPE  C317 6960   0.716   4.852   5.910 -0.5265  0.1481 -0.3493
   54DOPE  H17X 6961   0.793   4.918   5.867  1.8545 -2.5824 -0.5765
   54DOPE  H17Y 6962   0.629   4.836   5.842 -0.2277 -0.4963 -0.5830
   54DOPE  C318 6963   0.670   4.907   6.045 -0.1986 -0.0572 -0.9952
   54DOPE  H18X 6964   0.619   5.004   6.024 -0.0179 -0.4129 -3.2773
   54DOPE  H18Y 6965   0.591   4.841   6.086  0.5489 -0.3703 -0.0116
   54DOPE  H18Z 6966   0.753   4.909   6.119 -0.1938 -1.2264 -0.9569
   55DOPE     N 6967   3.682   6.184   4.246  0.0322  1.0973  0.2861
   55DOPE   HN1 6968   3.654   6.084   4.240  0.6585  0.8884  0.7962
   55DOPE   HN2 6969   3.606   6.240   4.203 -0.8113 -0.8674 -0.9003
   55DOPE   HN3 6970   3.767   6.192   4.187  0.7312 -0.9286  0.9480
   55DOPE   C12 6971   3.712   6.229   4.389  0.3337  0.4134  0.2177
   55DOPE  H12A 6972   3.792   6.306   4.381 -0.2556  1.0788  0.6267
   55DOPE  H12B 6973   3.738   6.132   4.436 -0.4236  0.3550  0.5191
   55DOPE   C11 6974   3.582   6.276   4.444 -0.0465 -0.5169 -0.3108
   55DOPE  H11A 6975   3.556   6.372   4.395 -0.2440  0.0122  0.7826
   55DOPE  H11B 6976   3.608   6.301   4.549 -0.2566 -0.0520 -0.3685
   55DOPE     P 6977   3.331   6.214   4.456 -0.4115  0.1038  0.4465
   55DOPE   O13 6978   3.253   6.092   4.423  0.6083  0.3169 -0.7443
   55DOPE   O14 6979   3.308   6.327   4.363 -0.2459 -0.0244  0.3210
   55DOPE   O11 6980   3.314   6.253   4.607  0.2028 -0.6453 -0.1670
   55DOPE   O12 6981   3.481   6.171   4.443 -0.3175 -0.1880 -0.3677
   55DOPE    C1 6982   3.402   6.175   4.704  0.7224 -0.1206 -0.1078
   55DOPE    HA 6983   3.508   6.210   4.701  0.9912 -0.9557 -1.5387
   55DOPE    HB 6984   3.407   6.067   4.679  5.3360 -1.1633  3.8117
   55DOPE    C2 6985   3.332   6.179   4.849  0.1799  0.7976  0.2072
   55DOPE    HS 6986   3.230   6.137   4.845  0.4650 -0.1414  1.8364
   55DOPE   O21 6987   3.339   6.307   4.900 -0.1433 -0.1164 -0.0712
   55DOPE   C21 6988   3.239   6.368   4.950  0.1394  0.3166  0.1097
   55DOPE   O22 6989   3.123   6.327   4.945  0.0859 -0.1374  0.0028
   55DOPE   C22 6990   3.276   6.499   5.008  0.3890  0.0951  0.1483
   55DOPE   H2R 6991   3.178   6.550   5.019 -0.4036 -1.3134 -0.1489
   55DOPE   H2S 6992   3.358   6.545   4.947  1.4858  0.2149  1.6655
   55DOPE    C3 6993   3.404   6.081   4.945  0.1966 -0.5536 -0.7003
   55DOPE    HX 6994   3.508   6.119   4.942 -0.1440  0.4746 -0.1157
   55DOPE    HY 6995   3.400   5.983   4.892 -2.2456 -1.3103  0.7108
   55DOPE   O31 6996   3.343   6.074   5.076  1.2929  0.4490  0.1240
   55DOPE   C31 6997   3.422   6.051   5.181  0.3683  0.9413 -0.1082
   55DOPE   O32 6998   3.544   6.040   5.176 -0.0699  0.0425  0.4173
   55DOPE   C32 6999   3.335   6.047   5.311 -0.0271 -0.0596 -0.3463
   55DOPE   H2X 7000   3.267   6.135   5.314 -0.8085 -0.6364 -1.0235
   55DOPE   H2Y 7001   3.273   5.955   5.305 -1.9450  1.0794  0.8695
   55DOPE   C23 7002   3.332   6.495   5.146  0.9312  0.1754 -0.0875
   55DOPE   H3R 7003   3.354   6.601   5.171 -0.1921  0.4625 -0.3023
   55DOPE   H3S 7004   3.421   6.427   5.146  0.8140  0.0200  0.2007
   55DOPE   C24 7005   3.248   6.446   5.254 -0.3246 -0.1332  0.2918
   55DOPE   H4R 7006   3.205   6.344   5.246  1.1225 -0.8357  1.2848
   55DOPE   H4S 7007   3.161   6.515   5.264  0.1314  0.6758 -0.9950
   55DOPE   C25 7008   3.320   6.464   5.387  0.9725 -0.3709 -0.4535
   55DOPE   H5R 7009   3.374   6.561   5.393 -0.3399  0.3142  1.3545
   55DOPE   H5S 7010   3.393   6.381   5.385  1.8345  0.3298  0.4870
   55DOPE   C26 7011   3.230   6.456   5.508 -0.2483 -0.3037 -0.4293
   55DOPE   H6R 7012   3.181   6.357   5.496  2.2741 -1.4563 -2.0689
   55DOPE   H6S 7013   3.159   6.540   5.498 -0.5457 -0.5856 -0.6863
   55DOPE   C27 7014   3.309   6.460   5.647 -0.6106 -0.0822  0.1972
   55DOPE   H7R 7015   3.358   6.558   5.670 -0.6310 -0.2510  1.0000
   55DOPE   H7S 7016   3.394   6.389   5.644 -0.5959 -0.0736  0.3872
   55DOPE   C28 7017   3.230   6.408   5.765 -0.0906  0.0002 -0.1102
   55DOPE   H8R 7018   3.288   6.431   5.857 -2.0121  1.0332  0.9118
   55DOPE   H8S 7019   3.199   6.302   5.753 -0.4603 -0.0373  1.0760
   55DOPE   C29 7020   3.108   6.498   5.787  0.3721 -0.1276  0.3970
   55DOPE   H9R 7021   3.079   6.574   5.713  0.4676 -0.4448  0.0358
   55DOPE  C210 7022   3.022   6.483   5.887  0.5144 -1.1401  0.1201
   55DOPE  H10R 7023   2.930   6.543   5.880  1.4347  0.2249 -0.9591
   55DOPE  C211 7024   3.019   6.374   5.984  0.0578  0.6012 -0.8659
   55DOPE  H11R 7025   3.092   6.294   5.957 -0.9277 -0.5920 -0.0759
   55DOPE  H11S 7026   2.922   6.323   5.997  0.5039 -0.8398 -2.7486
   55DOPE  C212 7027   3.061   6.426   6.123  0.0429 -0.2451  0.3916
   55DOPE  H12R 7028   2.986   6.501   6.155 -1.9289 -1.1518 -1.8278
   55DOPE  H12S 7029   3.163   6.470   6.116  0.7160 -1.6391  0.9282
   55DOPE  C213 7030   3.067   6.313   6.232 -0.1097  0.0766 -0.2982
   55DOPE  H13R 7031   3.145   6.238   6.206  1.6999  2.3456 -1.8327
   55DOPE  H13S 7032   2.975   6.252   6.244  0.7130 -0.7973  1.9867
   55DOPE  C214 7033   3.113   6.375   6.365  0.7120  0.4604  0.1071
   55DOPE  H14R 7034   3.063   6.472   6.385 -1.4564 -1.2582  4.6144
   55DOPE  H14S 7035   3.223   6.388   6.359  0.9537 -1.8357 -3.1462
   55DOPE  C215 7036   3.064   6.300   6.491  0.3548  0.4063 -0.0128
   55DOPE  H15R 7037   3.109   6.199   6.498  0.8230  0.6745  4.9604
   55DOPE  H15S 7038   2.954   6.286   6.487  0.6465 -2.2867 -0.3317
   55DOPE  C216 7039   3.114   6.364   6.623 -0.1505 -0.4311  0.1628
   55DOPE  H16R 7040   3.048   6.451   6.645  0.7031 -0.0866  1.4137
   55DOPE  H16S 7041   3.216   6.400   6.599  1.1540 -2.8263  1.7517
   55DOPE  C217 7042   3.099   6.266   6.741  0.2701 -0.9934 -0.0171
   55DOPE  H17R 7043   3.163   6.180   6.710 -0.4387 -1.6142  0.2077
   55DOPE  H17S 7044   2.993   6.232   6.748 -0.2101 -1.1235 -4.4559
   55DOPE  C218 7045   3.146   6.328   6.868 -0.4159  0.6651 -0.3277
   55DOPE  H18R 7046   3.256   6.346   6.864 -0.5583  2.8968  2.3746
   55DOPE  H18S 7047   3.129   6.258   6.952  1.2155  1.4555  0.7190
   55DOPE  H18T 7048   3.092   6.421   6.896 -1.6608 -0.7826  2.4963
   55DOPE   C33 7049   3.419   6.043   5.446 -0.0915 -0.4237  0.7676
   55DOPE   H3X 7050   3.469   6.142   5.449 -0.3097 -0.2795 -0.0894
   55DOPE   H3Y 7051   3.480   5.950   5.444 -2.0060 -1.7396  1.2325
   55DOPE   C34 7052   3.343   6.047   5.572  0.5086 -0.4256  0.4182
   55DOPE   H4X 7053   3.259   6.119   5.561  2.2319  1.6594  0.2227
   55DOPE   H4Y 7054   3.289   5.950   5.580 -0.7288  0.2524  0.5154
   55DOPE   C35 7055   3.425   6.078   5.697  0.6040  0.0802  0.1840
   55DOPE   H5X 7056   3.450   6.186   5.685  1.3927 -0.2619 -1.4698
   55DOPE   H5Y 7057   3.514   6.012   5.692 -0.4004 -1.3823  0.8048
   55DOPE   C36 7058   3.349   6.056   5.829 -0.0342 -0.7326  0.8190
   55DOPE   H6X 7059   3.248   6.091   5.800  0.6600  0.3142 -0.4834
   55DOPE   H6Y 7060   3.377   6.142   5.893 -0.8946  1.5847 -1.7300
   55DOPE   C37 7061   3.348   5.908   5.877  0.3352  0.5764 -0.0154
   55DOPE   H7X 7062   3.333   5.834   5.795 -0.2085 -0.0978  0.6877
   55DOPE   H7Y 7063   3.444   5.870   5.918  0.0646 -0.8322 -0.6459
   55DOPE   C38 7064   3.241   5.896   5.989  0.0500 -0.8177 -1.0113
   55DOPE   H8X 7065   3.234   5.787   6.006  0.3967 -0.5066  1.6505
   55DOPE   H8Y 7066   3.149   5.938   5.942 -0.7737 -0.4899  0.8041
   55DOPE   C39 7067   3.253   5.965   6.130 -0.0342 -0.2046 -0.5780
   55DOPE   H9X 7068   3.304   6.063   6.131 -0.9664  0.3220  1.4332
   55DOPE  C310 7069   3.199   5.933   6.250 -0.1733 -0.3147 -0.1066
   55DOPE  H10X 7070   3.237   5.987   6.338 -0.9147 -0.5579  0.3738
   55DOPE  C311 7071   3.110   5.821   6.293  0.0740 -0.2601  1.1711
   55DOPE  H11X 7072   3.049   5.788   6.206  1.3797  0.1082  0.0699
   55DOPE  H11Y 7073   3.183   5.742   6.320  4.9813  2.0178 -3.3639
   55DOPE  C312 7074   3.012   5.859   6.410 -0.3633 -0.7224  0.5790
   55DOPE  H12X 7075   3.074   5.905   6.490 -0.9276  0.2227  0.4792
   55DOPE  H12Y 7076   2.967   5.769   6.458 -1.3949  0.4021  1.8258
   55DOPE  C313 7077   2.913   5.967   6.376 -0.0720 -0.5818  0.1857
   55DOPE  H13X 7078   2.965   6.062   6.348 -0.2747 -0.3269  0.6581
   55DOPE  H13Y 7079   2.862   5.932   6.284  0.4387 -0.8389 -0.0035
   55DOPE  C314 7080   2.800   6.005   6.465 -0.0182 -0.0777  0.6484
   55DOPE  H14X 7081   2.725   5.923   6.460  0.0308 -0.1558  1.1772
   55DOPE  H14Y 7082   2.736   6.088   6.427  0.9681  1.3708  2.0230
   55DOPE  C315 7083   2.828   6.007   6.621  0.0492 -0.5854 -0.0071
   55DOPE  H15X 7084   2.913   6.075   6.643 -0.2618 -0.3604  0.5084
   55DOPE  H15Y 7085   2.851   5.907   6.664  3.1640  0.5512  1.2702
   55DOPE  C316 7086   2.704   6.070   6.688 -0.2642  0.8484  0.4207
   55DOPE  H16X 7087   2.702   6.176   6.656 -1.9468  0.7270  0.0520
   55DOPE  H16Y 7088   2.727   6.066   6.797 -2.0867  0.1530  0.8114
   55DOPE  C317 7089   2.566   6.003   6.654  0.6885 -0.5064 -0.6231
   55DOPE  H17X 7090   2.479   6.052   6.703  0.0530 -0.5455 -1.6823
   55DOPE  H17Y 7091   2.549   6.024   6.546  0.4853 -0.0857 -0.5141
   55DOPE  C318 7092   2.559   5.851   6.674  0.7230  0.6862 -0.4000
   55DOPE  H18X 7093   2.467   5.809   6.630 -0.1362  0.8338  1.1731
   55DOPE  H18Y 7094   2.647   5.803   6.626  0.5054 -0.5858  0.4316
   55DOPE  H18Z 7095   2.553   5.817   6.780  1.0996 -0.4462 -0.7352
   56DOPE     N 7096   6.439   0.565   2.823  0.3638  0.3584 -0.1959
   56DOPE   HN1 7097   6.343   0.557   2.861  0.1868 -2.4042 -0.9980
   56DOPE   HN2 7098   6.476   0.658   2.852 -0.1713 -0.0195  1.9142
   56DOPE   HN3 7099   6.439   0.560   2.719  1.5193 -1.6926 -0.1594
   56DOPE   C12 7100   6.528   0.456   2.878  0.4981 -0.5105  0.0627
   56DOPE  H12A 7101   6.614   0.439   2.811  1.1784  0.5609  0.6332
   56DOPE  H12B 7102   6.473   0.360   2.871  2.1072 -1.5018  0.6057
   56DOPE   C11 7103   6.567   0.486   3.025 -0.3081  1.0487 -0.2762
   56DOPE  H11A 7104   6.611   0.588   3.030 -1.5068  1.5158  2.8601
   56DOPE  H11B 7105   6.638   0.406   3.054 -4.2586 -3.3283 -1.4749
   56DOPE     P 7106   6.416   0.589   3.208  0.0188 -0.2471 -0.0883
   56DOPE   O13 7107   6.290   0.563   3.276  0.2617  0.0194  0.1502
   56DOPE   O14 7108   6.425   0.724   3.135 -0.1810  0.2444 -0.7454
   56DOPE   O11 7109   6.537   0.561   3.301  0.1648 -1.0242 -0.1821
   56DOPE   O12 7110   6.444   0.476   3.105  0.1189  0.4565 -0.2465
   56DOPE    C1 7111   6.649   0.655   3.325  0.0743  0.1980  1.0100
   56DOPE    HA 7112   6.660   0.726   3.240 -2.4104 -1.4793 -0.8590
   56DOPE    HB 7113   6.745   0.600   3.325 -0.5070 -0.8416  2.0364
   56DOPE    C2 7114   6.665   0.718   3.467 -0.3410  0.2001  0.1577
   56DOPE    HS 7115   6.675   0.632   3.536  0.4890  0.6790  0.6498
   56DOPE   O21 7116   6.545   0.794   3.497 -0.7036 -0.2564 -0.2853
   56DOPE   C21 7117   6.487   0.772   3.615  0.7330  0.0739 -1.6206
   56DOPE   O22 7118   6.512   0.682   3.697 -0.4688 -0.3980  0.6974
   56DOPE   C22 7119   6.381   0.881   3.638 -0.5008  0.0034 -0.3842
   56DOPE   H2R 7120   6.306   0.872   3.556 -0.9165 -0.2468  0.0246
   56DOPE   H2S 7121   6.435   0.979   3.639 -2.3687  1.1169  2.1632
   56DOPE    C3 7122   6.801   0.791   3.474 -0.2254  0.0658 -0.3523
   56DOPE    HX 7123   6.779   0.872   3.402 -1.5356  0.1222  0.0795
   56DOPE    HY 7124   6.884   0.728   3.435 -0.6629 -2.0255  1.8738
   56DOPE   O31 7125   6.829   0.849   3.608  0.4854  0.5530 -0.0564
   56DOPE   C31 7126   6.765   0.963   3.634  0.4186 -0.7685 -0.1425
   56DOPE   O32 7127   6.690   1.020   3.556 -0.1115 -0.1323  0.0924
   56DOPE   C32 7128   6.791   1.007   3.774 -0.6226  0.3396 -0.4177
   56DOPE   H2X 7129   6.784   0.917   3.838  0.7901  1.4453  1.3716
   56DOPE   H2Y 7130   6.896   1.041   3.780 -0.3884 -0.3390 -0.5074
   56DOPE   C23 7131   6.305   0.875   3.781 -0.0887  0.7973  0.3543
   56DOPE   H3R 7132   6.267   0.772   3.798  0.2301  0.3244 -1.6015
   56DOPE   H3S 7133   6.216   0.941   3.769 -0.7720 -0.3858 -1.4729
   56DOPE   C24 7134   6.386   0.922   3.900 -0.7897 -0.2487 -0.2826
   56DOPE   H4R 7135   6.408   1.030   3.885 -1.2135 -0.1054  0.1056
   56DOPE   H4S 7136   6.482   0.866   3.888 -0.1266  0.5641  0.9581
   56DOPE   C25 7137   6.325   0.886   4.028  0.0337  0.0219 -0.4087
   56DOPE   H5R 7138   6.337   0.779   4.052  1.6959  0.8333  3.0025
   56DOPE   H5S 7139   6.221   0.926   4.035 -0.2518 -0.1329 -2.9799
   56DOPE   C26 7140   6.410   0.948   4.139  0.1076  0.5650  0.2494
   56DOPE   H6R 7141   6.417   1.057   4.118  0.4677  1.7118  5.1938
   56DOPE   H6S 7142   6.512   0.906   4.125 -0.5567 -0.5490 -1.6754
   56DOPE   C27 7143   6.355   0.919   4.282 -0.1531  0.3883  0.7490
   56DOPE   H7R 7144   6.348   0.810   4.301  2.1807  0.0542  0.0820
   56DOPE   H7S 7145   6.259   0.972   4.296 -0.3529 -0.0149  0.9224
   56DOPE   C28 7146   6.459   0.978   4.386 -0.1477  0.6800  0.1263
   56DOPE   H8R 7147   6.452   1.088   4.371 -1.5422  0.4088 -1.4270
   56DOPE   H8S 7148   6.561   0.949   4.352 -0.4036 -0.1507  0.0446
   56DOPE   C29 7149   6.422   0.942   4.524  0.1492 -0.3578 -0.3307
   56DOPE   H9R 7150   6.432   0.836   4.552  0.7047 -0.6835 -1.6688
   56DOPE  C210 7151   6.367   1.019   4.620 -0.0214 -0.8182  0.3549
   56DOPE  H10R 7152   6.347   0.969   4.716  0.2219 -1.6033  0.0082
   56DOPE  C211 7153   6.316   1.167   4.617  0.2958  0.4785 -0.5823
   56DOPE  H11R 7154   6.205   1.170   4.606 -0.0449  0.0334  2.1234
   56DOPE  H11S 7155   6.335   1.212   4.517  0.3833 -0.3742 -0.9649
   56DOPE  C212 7156   6.358   1.248   4.739 -0.2334 -0.0049  0.3903
   56DOPE  H12R 7157   6.329   1.186   4.827  2.0930 -0.3815  0.9517
   56DOPE  H12S 7158   6.310   1.349   4.737  0.4952  0.4172 -3.6886
   56DOPE  C213 7159   6.507   1.293   4.749  0.0159  0.2916 -0.6495
   56DOPE  H13R 7160   6.539   1.352   4.661  1.7650 -0.0144 -0.2587
   56DOPE  H13S 7161   6.565   1.198   4.759  2.2038  1.4344 -1.6923
   56DOPE  C214 7162   6.534   1.377   4.875 -0.4618 -0.3569  0.2232
   56DOPE  H14R 7163   6.489   1.477   4.856  0.4671  0.0883  0.3279
   56DOPE  H14S 7164   6.644   1.380   4.888 -0.2082 -0.8057 -1.4672
   56DOPE  C215 7165   6.458   1.324   5.003 -0.3682  0.0488 -0.4730
   56DOPE  H15R 7166   6.487   1.217   5.016  0.9373  0.4796  0.3435
   56DOPE  H15S 7167   6.348   1.318   4.992 -0.4924 -1.2204  1.0221
   56DOPE  C216 7168   6.489   1.397   5.128 -0.4605 -0.5148  0.2789
   56DOPE  H16R 7169   6.453   1.502   5.118 -0.5694 -0.4949  0.8364
   56DOPE  H16S 7170   6.598   1.385   5.143 -0.0051  3.5509  1.6733
   56DOPE  C217 7171   6.426   1.344   5.259 -0.4738  0.4398 -0.4182
   56DOPE  H17R 7172   6.469   1.243   5.275 -2.8111 -0.8336 -1.6457
   56DOPE  H17S 7173   6.315   1.343   5.253 -0.6229  3.2827  0.1936
   56DOPE  C218 7174   6.453   1.424   5.389 -0.3641 -0.4941  0.1118
   56DOPE  H18R 7175   6.419   1.364   5.476 -2.3222 -0.6687 -0.7228
   56DOPE  H18S 7176   6.394   1.517   5.387  0.6761  0.1960  0.7713
   56DOPE  H18T 7177   6.559   1.457   5.393 -0.7579  0.7330  0.9573
   56DOPE   C33 7178   6.695   1.116   3.818 -0.0023 -0.2628 -0.5430
   56DOPE   H3X 7179   6.590   1.081   3.801  0.0120 -0.9790  0.7204
   56DOPE   H3Y 7180   6.705   1.201   3.748  3.8324 -1.0193 -1.1136
   56DOPE   C34 7181   6.711   1.154   3.970  0.1247 -0.2968  0.0595
   56DOPE   H4X 7182   6.686   1.066   4.033 -1.1867  0.2468  0.3346
   56DOPE   H4Y 7183   6.815   1.185   3.990 -0.5947  2.0497  0.4297
   56DOPE   C35 7184   6.620   1.271   4.020  0.0137 -0.2099 -1.0742
   56DOPE   H5X 7185   6.516   1.236   4.006  0.4990 -1.4653 -1.7786
   56DOPE   H5Y 7186   6.641   1.355   3.950  0.5230  0.6609  0.1007
   56DOPE   C36 7187   6.636   1.314   4.164 -0.0452  0.4050 -0.2601
   56DOPE   H6X 7188   6.743   1.334   4.185 -0.2366  0.1147  1.1309
   56DOPE   H6Y 7189   6.613   1.228   4.231 -1.4223  0.1197 -1.0519
   56DOPE   C37 7190   6.558   1.447   4.189  0.1012 -0.5129 -0.0399
   56DOPE   H7X 7191   6.550   1.513   4.100 -0.7500 -0.1881  0.2702
   56DOPE   H7Y 7192   6.452   1.425   4.214 -0.7449  3.1767  0.2493
   56DOPE   C38 7193   6.626   1.528   4.306  0.2633  0.3144 -0.2028
   56DOPE   H8X 7194   6.732   1.552   4.286  0.1863  0.2571 -0.7013
   56DOPE   H8Y 7195   6.629   1.468   4.399 -2.0864  0.4793  0.0514
   56DOPE   C39 7196   6.555   1.660   4.322  0.0019  0.2084  0.4218
   56DOPE   H9X 7197   6.516   1.708   4.231 -1.7209  1.2339  1.6463
   56DOPE  C310 7198   6.513   1.718   4.440  0.2576 -0.6619 -0.7684
   56DOPE  H10X 7199   6.476   1.822   4.446 -0.5126 -1.0070  2.0367
   56DOPE  C311 7200   6.546   1.673   4.578  0.2204 -0.4016 -0.0263
   56DOPE  H11X 7201   6.456   1.636   4.633  0.0484 -1.0641 -0.7335
   56DOPE  H11Y 7202   6.622   1.593   4.570  0.2624 -0.2250 -2.1407
   56DOPE  C312 7203   6.588   1.786   4.681 -0.5851  0.4142  0.0090
   56DOPE  H12X 7204   6.515   1.867   4.697 -0.4198  0.4846  0.4124
   56DOPE  H12Y 7205   6.674   1.843   4.638  0.2371  1.6595  3.0404
   56DOPE  C313 7206   6.630   1.733   4.812  0.1593  0.1236  0.5496
   56DOPE  H13X 7207   6.541   1.699   4.869  0.4638 -1.9039 -0.0969
   56DOPE  H13Y 7208   6.706   1.653   4.796 -1.4607 -1.6513  1.3739
   56DOPE  C314 7209   6.706   1.840   4.904 -0.0159  0.2347  0.7448
   56DOPE  H14X 7210   6.634   1.923   4.924 -0.5389  0.5958 -2.2541
   56DOPE  H14Y 7211   6.791   1.872   4.841 -1.7037  1.5199 -0.9743
   56DOPE  C315 7212   6.765   1.781   5.032 -0.8297  0.0957  0.0006
   56DOPE  H15X 7213   6.835   1.859   5.069 -1.3332  0.2869  0.5691
   56DOPE  H15Y 7214   6.807   1.685   4.996  1.9980  1.1664  0.1962
   56DOPE  C316 7215   6.669   1.762   5.149  0.1991 -0.2881 -0.1349
   56DOPE  H16X 7216   6.584   1.700   5.115 -0.0739  0.0356 -0.0518
   56DOPE  H16Y 7217   6.634   1.866   5.167 -0.7940 -0.0068 -3.1880
   56DOPE  C317 7218   6.727   1.699   5.277 -0.7850 -0.8322 -0.0860
   56DOPE  H17X 7219   6.709   1.592   5.251 -0.9633 -0.1953 -2.9214
   56DOPE  H17Y 7220   6.836   1.722   5.282 -1.3261  2.1588 -0.3018
   56DOPE  C318 7221   6.662   1.740   5.411 -0.4747  0.8682 -0.4315
   56DOPE  H18X 7222   6.695   1.841   5.444  1.5815  0.5799 -1.4476
   56DOPE  H18Y 7223   6.552   1.724   5.405 -0.2654 -0.8823 -0.1496
   56DOPE  H18Z 7224   6.714   1.681   5.490  0.4189 -0.0501 -1.6591
   57DOPE     N 7225   0.855   1.684   3.540 -0.0971 -0.2799  0.3565
   57DOPE   HN1 7226   0.817   1.754   3.474 -2.6403 -0.4490  1.5311
   57DOPE   HN2 7227   0.917   1.732   3.608 -0.0622  2.3845 -1.4206
   57DOPE   HN3 7228   0.915   1.623   3.481 -1.5668  1.0026 -2.6987
   57DOPE   C12 7229   0.734   1.615   3.600 -0.4231  0.3939  0.0025
   57DOPE  H12A 7230   0.762   1.526   3.660 -1.1732  1.2181  1.6423
   57DOPE  H12B 7231   0.676   1.582   3.511 -0.4954 -2.3389  0.9954
   57DOPE   C11 7232   0.665   1.725   3.687  0.3424  0.2476 -0.0959
   57DOPE  H11A 7233   0.732   1.739   3.775  1.0556 -0.7799 -0.4628
   57DOPE  H11B 7234   0.571   1.680   3.725  0.5924 -0.4683 -0.3121
   57DOPE     P 7235   0.589   1.974   3.690  0.3415  0.2604 -0.1742
   57DOPE   O13 7236   0.446   1.970   3.664 -0.5374  0.0887  0.1460
   57DOPE   O14 7237   0.653   2.098   3.639  0.0185  0.6042 -0.5772
   57DOPE   O11 7238   0.617   1.943   3.840 -0.8332 -0.2942  0.2762
   57DOPE   O12 7239   0.644   1.845   3.612  0.1111 -0.0243  0.1280
   57DOPE    C1 7240   0.517   1.956   3.937 -0.1150 -0.8097 -0.1557
   57DOPE    HA 7241   0.558   1.916   4.032  0.2380 -1.6633 -0.6568
   57DOPE    HB 7242   0.430   1.890   3.916  0.5329 -1.2888 -1.5104
   57DOPE    C2 7243   0.467   2.099   3.953 -0.0907  0.3881 -1.1330
   57DOPE    HS 7244   0.434   2.131   3.852  1.9184  1.6759 -1.4212
   57DOPE   O21 7245   0.581   2.185   3.992  0.1492  0.2758 -0.2259
   57DOPE   C21 7246   0.559   2.311   3.950 -0.1118  0.5412 -0.3485
   57DOPE   O22 7247   0.459   2.354   3.899  0.4197  0.4320  0.0421
   57DOPE   C22 7248   0.693   2.386   3.965  0.5992  0.0202  0.2344
   57DOPE   H2R 7249   0.739   2.384   3.864 -1.1650  0.9275 -0.6268
   57DOPE   H2S 7250   0.761   2.324   4.028 -0.6050 -0.9582  0.6233
   57DOPE    C3 7251   0.351   2.114   4.059 -0.1030 -0.2448 -0.1695
   57DOPE    HX 7252   0.256   2.065   4.029 -0.6247  0.3884  0.4121
   57DOPE    HY 7253   0.326   2.222   4.050  1.6428  0.0689 -1.9494
   57DOPE   O31 7254   0.390   2.069   4.190  0.3523 -0.2556 -0.1184
   57DOPE   C31 7255   0.452   2.159   4.266  0.2856 -0.0631  0.3215
   57DOPE   O32 7256   0.474   2.275   4.239 -0.6777  0.8707  0.0941
   57DOPE   C32 7257   0.494   2.090   4.390 -0.2094 -0.4049  0.0442
   57DOPE   H2X 7258   0.416   2.014   4.410  0.8874 -1.8307 -0.8905
   57DOPE   H2Y 7259   0.592   2.038   4.383 -1.1213 -1.9952 -2.0102
   57DOPE   C23 7260   0.692   2.534   4.002 -0.3730  0.1268 -0.4719
   57DOPE   H3R 7261   0.614   2.569   3.931 -0.2455  0.6416 -0.3673
   57DOPE   H3S 7262   0.790   2.586   3.990 -0.4108  0.2090 -0.4248
   57DOPE   C24 7263   0.644   2.551   4.147  0.3844  0.0562 -0.4074
   57DOPE   H4R 7264   0.545   2.502   4.165  0.2821  0.2159 -0.5390
   57DOPE   H4S 7265   0.636   2.660   4.163 -0.4033  0.0969 -1.0345
   57DOPE   C25 7266   0.746   2.503   4.250  0.2404  0.2443  0.1342
   57DOPE   H5R 7267   0.842   2.548   4.219 -0.8918  2.2381 -0.6815
   57DOPE   H5S 7268   0.754   2.392   4.244  0.5962  0.3215 -1.1087
   57DOPE   C26 7269   0.725   2.558   4.391 -0.0462  0.8318 -0.2477
   57DOPE   H6R 7270   0.620   2.546   4.423 -0.3600  2.2596 -0.6861
   57DOPE   H6S 7271   0.753   2.665   4.382 -1.2450  1.2355  0.6346
   57DOPE   C27 7272   0.816   2.476   4.490 -0.2519  0.0781 -0.1818
   57DOPE   H7R 7273   0.919   2.485   4.451 -0.4131 -0.1955 -0.6773
   57DOPE   H7S 7274   0.790   2.368   4.493  0.7709 -0.1619  0.6469
   57DOPE   C28 7275   0.793   2.545   4.627 -0.0903 -0.6440  0.3245
   57DOPE   H8R 7276   0.811   2.476   4.713 -0.4906 -0.6059  0.4427
   57DOPE   H8S 7277   0.685   2.562   4.648  0.0080 -0.1071  0.4112
   57DOPE   C29 7278   0.887   2.661   4.636  0.5004 -0.2396  0.4737
   57DOPE   H9R 7279   0.931   2.697   4.542 -1.8828 -0.4178 -0.7741
   57DOPE  C210 7280   0.921   2.719   4.750  0.3123 -0.0897  0.4817
   57DOPE  H10R 7281   0.976   2.814   4.749 -1.1002  0.8058  1.9749
   57DOPE  C211 7282   0.861   2.676   4.880  0.1406 -0.0763  0.0742
   57DOPE  H11R 7283   0.850   2.567   4.900 -2.3232  0.5875  3.1242
   57DOPE  H11S 7284   0.757   2.716   4.873  0.7747  1.4128 -1.7841
   57DOPE  C212 7285   0.922   2.751   4.998 -0.1801 -0.4973 -0.1183
   57DOPE  H12R 7286   0.924   2.862   4.988  1.0359 -0.0384  3.5898
   57DOPE  H12S 7287   1.028   2.722   5.014 -0.0070  0.9778  1.8408
   57DOPE  C213 7288   0.854   2.718   5.130  0.2537  0.3218 -0.3935
   57DOPE  H13R 7289   0.831   2.610   5.143  0.8869  0.1101 -0.9825
   57DOPE  H13S 7290   0.753   2.761   5.137 -0.7880 -2.1054  0.8592
   57DOPE  C214 7291   0.938   2.769   5.245 -0.5591 -0.5177 -0.0972
   57DOPE  H14R 7292   0.927   2.880   5.248  1.4445 -0.0903 -3.4862
   57DOPE  H14S 7293   1.045   2.743   5.230 -0.9255 -1.7257 -0.7402
   57DOPE  C215 7294   0.888   2.717   5.373 -0.7076 -0.0447 -0.4089
   57DOPE  H15R 7295   0.867   2.608   5.369  1.2075 -0.4105 -1.2203
   57DOPE  H15S 7296   0.792   2.766   5.399  0.0745  1.2424  0.1169
   57DOPE  C216 7297   0.977   2.753   5.499 -0.1127  1.1609 -0.1100
   57DOPE  H16R 7298   1.003   2.860   5.487  2.5661  0.5157 -0.7641
   57DOPE  H16S 7299   1.079   2.709   5.489  0.3153  2.5152 -2.1870
   57DOPE  C217 7300   0.904   2.728   5.630 -0.7633 -0.1243 -0.2432
   57DOPE  H17R 7301   0.981   2.704   5.706 -1.6620 -2.5244 -0.0188
   57DOPE  H17S 7302   0.853   2.629   5.627  0.4055 -0.8226  1.5628
   57DOPE  C218 7303   0.814   2.847   5.675  0.0084 -0.0348 -0.0593
   57DOPE  H18R 7304   0.764   2.827   5.772 -1.3678 -0.5300 -0.8321
   57DOPE  H18S 7305   0.736   2.858   5.597  2.1112 -0.0422 -2.2866
   57DOPE  H18T 7306   0.885   2.932   5.678  0.6538 -0.5622 -0.1817
   57DOPE   C33 7307   0.504   2.193   4.501  0.2980  0.0445 -0.2245
   57DOPE   H3X 7308   0.409   2.237   4.536  0.9502  0.9042  0.5352
   57DOPE   H3Y 7309   0.561   2.282   4.465 -0.1494  0.3523 -0.1763
   57DOPE   C34 7310   0.575   2.130   4.618 -0.1166 -0.5950  0.4051
   57DOPE   H4X 7311   0.508   2.059   4.670 -0.2032 -0.0478  1.0596
   57DOPE   H4Y 7312   0.669   2.073   4.600  0.8646  0.2155  2.6479
   57DOPE   C35 7313   0.605   2.231   4.734 -0.0662 -0.0999 -0.1355
   57DOPE   H5X 7314   0.524   2.308   4.733  0.0503  0.0771 -2.7068
   57DOPE   H5Y 7315   0.685   2.300   4.698 -0.9718  0.2319 -1.6417
   57DOPE   C36 7316   0.637   2.161   4.868 -0.3561 -0.1351  0.3079
   57DOPE   H6X 7317   0.731   2.104   4.852 -0.7002 -0.4862 -0.5539
   57DOPE   H6Y 7318   0.561   2.079   4.875 -1.5284  0.8644 -0.3389
   57DOPE   C37 7319   0.653   2.255   4.980 -0.3239 -0.8233  0.4885
   57DOPE   H7X 7320   0.730   2.334   4.966 -0.9638 -0.2675 -0.0239
   57DOPE   H7Y 7321   0.560   2.314   4.997 -1.4098 -1.6650 -1.9710
   57DOPE   C38 7322   0.678   2.181   5.114  0.1603  0.4786 -0.2622
   57DOPE   H8X 7323   0.758   2.106   5.096  0.2727 -0.0902  2.3352
   57DOPE   H8Y 7324   0.592   2.111   5.124  0.6820  0.0020  0.9998
   57DOPE   C39 7325   0.701   2.267   5.233 -0.8622 -0.0417 -0.2738
   57DOPE   H9X 7326   0.717   2.371   5.203 -1.6951 -0.0306 -0.7140
   57DOPE  C310 7327   0.685   2.230   5.358  0.0001  0.1894  0.2437
   57DOPE  H10X 7328   0.691   2.305   5.439  0.3250 -2.2219  2.6234
   57DOPE  C311 7329   0.641   2.087   5.403  0.0530 -0.0901  0.2755
   57DOPE  H11X 7330   0.531   2.077   5.415 -0.2687 -2.4996 -3.0850
   57DOPE  H11Y 7331   0.650   2.006   5.327 -1.3114 -1.6901  1.7007
   57DOPE  C312 7332   0.703   2.035   5.535 -0.8373  0.0764 -0.0497
   57DOPE  H12X 7333   0.812   2.024   5.515 -0.8756 -0.2731 -0.0667
   57DOPE  H12Y 7334   0.663   1.931   5.541 -0.1615 -0.2526 -0.9965
   57DOPE  C313 7335   0.678   2.108   5.674  0.0672 -0.0179 -0.0902
   57DOPE  H13X 7336   0.665   2.212   5.636 -2.8036 -0.8703 -1.7307
   57DOPE  H13Y 7337   0.585   2.072   5.724 -0.7751 -0.5035 -1.9502
   57DOPE  C314 7338   0.792   2.098   5.772 -0.3951  0.4943  0.0710
   57DOPE  H14X 7339   0.879   2.153   5.729  0.4441  0.9888  2.2666
   57DOPE  H14Y 7340   0.817   1.992   5.794 -1.7290  0.0096 -0.6339
   57DOPE  C315 7341   0.769   2.165   5.912  0.3069 -0.3674 -0.8188
   57DOPE  H15X 7342   0.850   2.148   5.986 -1.5807 -0.0669  1.4402
   57DOPE  H15Y 7343   0.682   2.110   5.955 -1.1422  0.4535 -2.5648
   57DOPE  C316 7344   0.742   2.318   5.893 -0.1846 -0.2556  0.0919
   57DOPE  H16X 7345   0.664   2.319   5.814  0.4518 -1.9673 -0.6107
   57DOPE  H16Y 7346   0.834   2.359   5.845 -0.8780 -0.4212 -1.4438
   57DOPE  C317 7347   0.686   2.395   6.013  0.1182  0.2421  0.2730
   57DOPE  H17X 7348   0.640   2.492   5.983  0.7399  1.3604  2.7541
   57DOPE  H17Y 7349   0.608   2.335   6.064  0.0913  0.5539  0.5966
   57DOPE  C318 7350   0.786   2.429   6.115 -0.3524  1.2200 -0.1845
   57DOPE  H18X 7351   0.828   2.344   6.173 -2.2628  0.4581  0.1486
   57DOPE  H18Y 7352   0.870   2.483   6.067 -0.8220  2.2506  0.1308
   57DOPE  H18Z 7353   0.739   2.502   6.184  1.7628  2.0899  0.4347
   58DOPE     N 7354   2.882   0.436   4.323 -0.4142  0.7592 -1.1286
   58DOPE   HN1 7355   2.914   0.480   4.412 -3.4519 -1.9384  1.5435
   58DOPE   HN2 7356   2.904   0.489   4.236 -0.5406  0.0555 -1.6022
   58DOPE   HN3 7357   2.782   0.411   4.327 -0.1008 -0.4490  0.3455
   58DOPE   C12 7358   2.957   0.300   4.318 -0.1014  0.0395  0.0480
   58DOPE  H12A 7359   3.060   0.331   4.290 -1.1818  2.2355 -1.9430
   58DOPE  H12B 7360   2.907   0.248   4.233 -0.3452 -1.0229  0.8233
   58DOPE   C11 7361   2.949   0.221   4.448 -0.8866 -0.2423 -0.0505
   58DOPE  H11A 7362   3.014   0.281   4.515  1.4324  0.7831 -3.0442
   58DOPE  H11B 7363   2.997   0.121   4.442  0.5490  0.2686  1.9978
   58DOPE     P 7364   2.759   0.090   4.580 -0.2282 -0.2769  0.4058
   58DOPE   O13 7365   2.769  -0.034   4.495  0.4650  0.0203 -0.9531
   58DOPE   O14 7366   2.630   0.123   4.637  0.5973 -0.0250  0.1223
   58DOPE   O11 7367   2.860   0.079   4.695 -0.3608  0.2897  0.1022
   58DOPE   O12 7368   2.814   0.219   4.503  0.1549  0.3915  0.1773
   58DOPE    C1 7369   2.897   0.196   4.769 -0.4322 -0.2968  0.0653
   58DOPE    HA 7370   2.892   0.295   4.719  0.5724 -0.4305 -0.3239
   58DOPE    HB 7371   2.998   0.179   4.812 -1.0450  0.0068  1.6955
   58DOPE    C2 7372   2.804   0.210   4.898 -0.0862  0.3546  0.0473
   58DOPE    HS 7373   2.699   0.238   4.877  0.2513  3.2541  1.6767
   58DOPE   O21 7374   2.868   0.299   4.983  0.0231 -0.0758 -0.2633
   58DOPE   C21 7375   2.857   0.431   4.959 -0.2218  0.7908 -0.6342
   58DOPE   O22 7376   2.793   0.480   4.868 -0.8277 -0.5964 -0.6452
   58DOPE   C22 7377   2.934   0.500   5.075  0.0727  0.2614  0.2827
   58DOPE   H2R 7378   2.963   0.598   5.031  0.0565  0.4090  0.5989
   58DOPE   H2S 7379   3.027   0.441   5.093 -0.0933 -0.2311 -0.4131
   58DOPE    C3 7380   2.802   0.071   4.979 -0.4093 -0.4511 -0.4222
   58DOPE    HX 7381   2.903   0.037   5.010  0.6229  1.5727 -1.3595
   58DOPE    HY 7382   2.756  -0.007   4.915  1.1332 -1.7413 -0.0435
   58DOPE   O31 7383   2.724   0.088   5.099 -0.1455 -0.0553 -0.5331
   58DOPE   C31 7384   2.592   0.107   5.092  0.6860 -0.1108  0.6222
   58DOPE   O32 7385   2.529   0.080   4.991  0.4135  0.0235 -0.1213
   58DOPE   C32 7386   2.541   0.170   5.230  0.5798  0.2998  0.0548
   58DOPE   H2X 7387   2.615   0.251   5.248 -0.8452  1.2187  2.1288
   58DOPE   H2Y 7388   2.437   0.208   5.223  0.6554  0.1379 -3.4626
   58DOPE   C23 7389   2.838   0.506   5.197 -0.8325  0.2284 -0.1964
   58DOPE   H3R 7390   2.788   0.408   5.216  1.2984 -0.5276  1.9695
   58DOPE   H3S 7391   2.759   0.579   5.170  0.0982  0.2799 -3.1418
   58DOPE   C24 7392   2.914   0.557   5.315  0.3630 -0.3162  0.0792
   58DOPE   H4R 7393   2.967   0.648   5.279 -1.5003  1.8978  2.5145
   58DOPE   H4S 7394   2.992   0.488   5.353  1.0242  1.0173  1.2529
   58DOPE   C25 7395   2.821   0.624   5.417  0.0981  0.2125  0.5695
   58DOPE   H5R 7396   2.775   0.551   5.487 -0.7956 -0.0678 -0.2827
   58DOPE   H5S 7397   2.735   0.667   5.361 -1.2718 -1.9822  0.8843
   58DOPE   C26 7398   2.896   0.732   5.488  0.1121 -0.6320  0.0837
   58DOPE   H6R 7399   2.908   0.817   5.417 -0.3199 -1.9084 -1.5670
   58DOPE   H6S 7400   2.999   0.697   5.508 -0.2850 -0.8377  2.0314
   58DOPE   C27 7401   2.832   0.774   5.628  0.0473 -0.5893  0.0785
   58DOPE   H7R 7402   2.842   0.693   5.703 -0.8994 -1.8519 -1.1224
   58DOPE   H7S 7403   2.723   0.784   5.612  0.2794  2.3077 -0.2748
   58DOPE   C28 7404   2.885   0.916   5.672  0.0291  0.2440 -0.3756
   58DOPE   H8R 7405   2.827   0.958   5.757  1.8217  0.6108  0.7352
   58DOPE   H8S 7406   2.871   0.979   5.582 -0.2469 -1.4337 -1.5452
   58DOPE   C29 7407   3.031   0.904   5.712 -0.2789 -0.3084 -0.6532
   58DOPE   H9R 7408   3.098   0.923   5.627 -2.9621  1.8238 -2.4477
   58DOPE  C210 7409   3.079   0.864   5.835 -0.7641  0.0637 -0.4594
   58DOPE  H10R 7410   3.188   0.851   5.834 -0.5566  1.3517 -2.6600
   58DOPE  C211 7411   3.007   0.839   5.964  1.0111  0.1085  0.4243
   58DOPE  H11R 7412   2.900   0.838   5.934  0.4267  1.4003  2.2659
   58DOPE  H11S 7413   3.024   0.929   6.027 -1.2560 -0.8516  2.6073
   58DOPE  C212 7414   3.025   0.722   6.049  0.4142  0.6990  0.0458
   58DOPE  H12R 7415   3.121   0.718   6.104  0.6400 -0.3322 -0.3975
   58DOPE  H12S 7416   3.011   0.631   5.987 -1.3184  0.9955 -0.0500
   58DOPE  C213 7417   2.918   0.702   6.161 -0.0956  1.0207  0.1210
   58DOPE  H13R 7418   2.816   0.715   6.120 -0.2386 -0.6497 -0.1025
   58DOPE  H13S 7419   2.940   0.784   6.233  0.3292  0.8653  0.1739
   58DOPE  C214 7420   2.924   0.554   6.214  0.4613  0.1805  0.0880
   58DOPE  H14R 7421   3.011   0.524   6.276  1.3696 -0.9695 -1.6574
   58DOPE  H14S 7422   2.924   0.482   6.130 -1.9555  0.5381 -0.2768
   58DOPE  C215 7423   2.798   0.529   6.308  0.5456  0.9064 -0.4721
   58DOPE  H15R 7424   2.717   0.563   6.239  0.7115 -0.8981 -1.6205
   58DOPE  H15S 7425   2.799   0.592   6.400 -0.7896 -0.3035  0.4128
   58DOPE  C216 7426   2.767   0.381   6.351 -0.8082  1.4118  0.2912
   58DOPE  H16R 7427   2.694   0.366   6.433  0.1243 -0.7131  0.7981
   58DOPE  H16S 7428   2.855   0.336   6.401 -0.4800  1.0992 -0.5619
   58DOPE  C217 7429   2.718   0.296   6.232 -0.1628 -0.1869  0.2747
   58DOPE  H17R 7430   2.753   0.194   6.256 -1.1625 -0.3801  0.9445
   58DOPE  H17S 7431   2.768   0.316   6.135 -0.2722 -1.8041 -0.1384
   58DOPE  C218 7432   2.566   0.294   6.196  0.7362 -0.0101 -0.0891
   58DOPE  H18R 7433   2.521   0.394   6.179 -3.2242 -1.2618  1.7774
   58DOPE  H18S 7434   2.517   0.253   6.288  1.4959 -1.9746 -0.4963
   58DOPE  H18T 7435   2.554   0.225   6.110 -0.9287 -0.6303  0.5839
   58DOPE   C33 7436   2.557   0.071   5.353  0.2351 -0.9255  0.9486
   58DOPE   H3X 7437   2.661   0.033   5.362  0.7468  0.1544 -0.2515
   58DOPE   H3Y 7438   2.493  -0.017   5.330 -0.1705 -0.5749  0.7194
   58DOPE   C34 7439   2.518   0.150   5.483  0.3694 -0.4214 -0.8852
   58DOPE   H4X 7440   2.422   0.202   5.461  1.4519  2.2249  0.2627
   58DOPE   H4Y 7441   2.501   0.070   5.558  0.4718 -0.3098 -0.7419
   58DOPE   C35 7442   2.619   0.257   5.524 -0.7755  0.0973  0.6379
   58DOPE   H5X 7443   2.611   0.353   5.468  1.1903  0.3275  0.7074
   58DOPE   H5Y 7444   2.722   0.218   5.538 -0.5258  0.8032  0.8139
   58DOPE   C36 7445   2.580   0.310   5.664 -0.0905  0.5815  0.4109
   58DOPE   H6X 7446   2.580   0.239   5.750 -0.5256  1.4768  1.1769
   58DOPE   H6Y 7447   2.479   0.344   5.634 -0.3911 -0.5606  0.0760
   58DOPE   C37 7448   2.655   0.444   5.715  0.2339  0.5457  0.0235
   58DOPE   H7X 7449   2.764   0.426   5.731  0.5189  1.6597 -0.5514
   58DOPE   H7Y 7450   2.642   0.509   5.626  1.7287  1.4065  0.3959
   58DOPE   C38 7451   2.597   0.521   5.839 -0.1081 -0.0295 -0.4166
   58DOPE   H8X 7452   2.668   0.606   5.843 -1.2617  0.9626 -0.1656
   58DOPE   H8Y 7453   2.609   0.473   5.939  2.5639  2.3230  0.5553
   58DOPE   C39 7454   2.449   0.570   5.828  0.0395 -0.8265 -1.0064
   58DOPE   H9X 7455   2.366   0.500   5.849 -2.0283  2.4767  3.8470
   58DOPE  C310 7456   2.398   0.692   5.811 -0.2317 -0.0907 -0.4794
   58DOPE  H10X 7457   2.289   0.704   5.807 -0.5359 -2.7087 -1.7131
   58DOPE  C311 7458   2.475   0.823   5.799  0.1174  0.7467 -0.0195
   58DOPE  H11X 7459   2.574   0.780   5.774 -0.4795  0.3509 -1.9261
   58DOPE  H11Y 7460   2.443   0.888   5.715  1.3845  1.3129 -0.0803
   58DOPE  C312 7461   2.493   0.903   5.928  0.4391  0.2814  0.2726
   58DOPE  H12X 7462   2.545   1.001   5.917  1.2469 -0.0588  1.0442
   58DOPE  H12Y 7463   2.566   0.855   5.996 -0.4193  1.4202  2.0615
   58DOPE  C313 7464   2.363   0.912   6.011 -0.0617  0.2570  0.0595
   58DOPE  H13X 7465   2.287   0.958   5.944 -0.1378  1.1124  0.7070
   58DOPE  H13Y 7466   2.315   0.812   6.017 -1.6291  1.0634  2.1938
   58DOPE  C314 7467   2.375   0.987   6.144 -0.0285 -0.0899  0.4897
   58DOPE  H14X 7468   2.284   1.046   6.166 -1.4239 -1.5491 -1.0421
   58DOPE  H14Y 7469   2.450   1.065   6.121 -0.1392  0.2701  1.3180
   58DOPE  C315 7470   2.428   0.895   6.256  1.2391 -0.9103  0.2953
   58DOPE  H15X 7471   2.519   0.842   6.223 -0.5200 -2.7191 -1.9740
   58DOPE  H15Y 7472   2.356   0.812   6.273  4.0948 -3.5686  0.0442
   58DOPE  C316 7473   2.451   0.978   6.384 -0.2902  0.3538  0.3266
   58DOPE  H16X 7474   2.376   1.057   6.407  0.5356  1.1398  0.3473
   58DOPE  H16Y 7475   2.546   1.034   6.374 -0.7441  0.8440 -1.7393
   58DOPE  C317 7476   2.468   0.880   6.508  0.5614  0.0838 -0.4130
   58DOPE  H17X 7477   2.486   0.949   6.593 -0.2866 -0.0106 -0.1516
   58DOPE  H17Y 7478   2.373   0.832   6.539  0.3645  0.2944 -0.6821
   58DOPE  C318 7479   2.587   0.785   6.488 -0.1877 -0.2675 -0.5512
   58DOPE  H18X 7480   2.614   0.750   6.590 -0.5979  1.8905  0.3334
   58DOPE  H18Y 7481   2.582   0.700   6.417  1.5765  0.3359 -1.4634
   58DOPE  H18Z 7482   2.670   0.847   6.447 -0.9940  0.9862 -0.3143
   59DOPE     N 7483   5.751   2.249   3.667  0.4974  0.5287  0.0157
   59DOPE   HN1 7484   5.726   2.313   3.746  0.8367  1.5444 -0.6811
   59DOPE   HN2 7485   5.738   2.307   3.582 -3.6225  1.7718  1.2546
   59DOPE   HN3 7486   5.673   2.180   3.668  0.2798  0.7636 -0.4955
   59DOPE   C12 7487   5.881   2.177   3.697 -0.4273  0.0135  0.2556
   59DOPE  H12A 7488   5.894   2.087   3.633 -1.1306 -0.2640  0.5012
   59DOPE  H12B 7489   5.873   2.142   3.803  0.2162  0.7522  0.5618
   59DOPE   C11 7490   6.004   2.275   3.689 -0.0433 -0.5869 -0.1283
   59DOPE  H11A 7491   6.098   2.220   3.711 -0.6832 -2.1288 -1.0900
   59DOPE  H11B 7492   5.995   2.347   3.774  2.6020 -1.6960  1.1930
   59DOPE     P 7493   5.964   2.491   3.533 -0.2753  0.2038 -0.1860
   59DOPE   O13 7494   5.830   2.500   3.587  0.1130 -0.6126  0.4245
   59DOPE   O14 7495   5.987   2.525   3.393  0.0454  0.0026 -0.6127
   59DOPE   O11 7496   6.059   2.574   3.626 -0.1021 -0.1234 -0.2922
   59DOPE   O12 7497   6.012   2.341   3.560  0.1970  0.0003  0.5767
   59DOPE    C1 7498   6.200   2.606   3.594  0.1631 -0.2710 -0.7275
   59DOPE    HA 7499   6.239   2.694   3.648 -2.6382  2.1898 -2.3916
   59DOPE    HB 7500   6.211   2.640   3.489  2.5261  0.8160 -0.1886
   59DOPE    C2 7501   6.299   2.488   3.607 -0.3734  0.4078 -0.1516
   59DOPE    HS 7502   6.256   2.398   3.558  0.5917 -0.0581 -0.1722
   59DOPE   O21 7503   6.318   2.467   3.753 -0.0153 -0.1963  0.3064
   59DOPE   C21 7504   6.363   2.347   3.782  0.3485  0.0870  0.2047
   59DOPE   O22 7505   6.401   2.265   3.698 -0.5523  0.0629  0.3692
   59DOPE   C22 7506   6.351   2.326   3.933 -0.5501  0.7796  0.0412
   59DOPE   H2R 7507   6.246   2.305   3.960  0.3296 -3.4009  1.0162
   59DOPE   H2S 7508   6.396   2.415   3.982  0.6371 -1.2708  3.0630
   59DOPE    C3 7509   6.431   2.510   3.531  0.1909  0.1355  0.3005
   59DOPE    HX 7510   6.413   2.516   3.421 -0.4022 -1.2288  0.3121
   59DOPE    HY 7511   6.487   2.418   3.555  0.0716  0.6577  2.7801
   59DOPE   O31 7512   6.492   2.638   3.576  0.0188  0.3042  0.5675
   59DOPE   C31 7513   6.629   2.633   3.574 -0.1804  0.2702 -0.0663
   59DOPE   O32 7514   6.690   2.536   3.529 -0.3871 -0.0508 -0.0258
   59DOPE   C32 7515   6.690   2.755   3.639  0.0167 -0.1766  0.8200
   59DOPE   H2X 7516   6.734   2.822   3.563  0.1420 -0.7970  0.3386
   59DOPE   H2Y 7517   6.608   2.817   3.682  0.0378  1.9218 -1.8860
   59DOPE   C23 7518   6.445   2.211   3.984 -0.1627  0.3764  0.0372
   59DOPE   H3R 7519   6.549   2.252   3.985 -0.7721  1.9940 -0.3272
   59DOPE   H3S 7520   6.432   2.123   3.917  2.0897  1.5057 -2.0759
   59DOPE   C24 7521   6.420   2.164   4.125  0.2690  0.2936 -0.5285
   59DOPE   H4R 7522   6.478   2.070   4.139 -0.6409 -0.3117 -0.7448
   59DOPE   H4S 7523   6.312   2.150   4.147  0.2359 -0.8394 -1.3327
   59DOPE   C25 7524   6.446   2.277   4.222  0.5351  0.4065  0.2366
   59DOPE   H5R 7525   6.383   2.363   4.191  2.1333  1.1548 -1.1369
   59DOPE   H5S 7526   6.555   2.297   4.212  0.3227  1.7140  0.2726
   59DOPE   C26 7527   6.418   2.235   4.374  0.2995 -0.0535 -0.0850
   59DOPE   H6R 7528   6.490   2.155   4.399  0.9571 -0.1132 -2.0015
   59DOPE   H6S 7529   6.322   2.181   4.372  0.7472 -0.8752  0.2604
   59DOPE   C27 7530   6.412   2.357   4.465  0.1955 -0.3419 -0.6408
   59DOPE   H7R 7531   6.314   2.407   4.469  0.2465 -0.3203  1.3822
   59DOPE   H7S 7532   6.483   2.432   4.424 -1.2133  1.4901  0.1474
   59DOPE   C28 7533   6.468   2.314   4.603  0.6386  0.0002 -0.0421
   59DOPE   H8R 7534   6.498   2.409   4.653  0.2348  0.3642 -0.4782
   59DOPE   H8S 7535   6.560   2.252   4.592  0.6069 -0.1066  0.2855
   59DOPE   C29 7536   6.369   2.232   4.680  0.2844 -0.4740 -0.7265
   59DOPE   H9R 7537   6.331   2.150   4.618  0.3040 -0.6503 -0.5056
   59DOPE  C210 7538   6.352   2.233   4.817 -0.4213 -0.2066  0.5008
   59DOPE  H10R 7539   6.272   2.166   4.852 -0.7790  0.3399  0.7358
   59DOPE  C211 7540   6.424   2.314   4.916 -0.5217 -0.6088  0.2702
   59DOPE  H11R 7541   6.346   2.350   4.987  0.2772  1.8770 -0.0010
   59DOPE  H11S 7542   6.461   2.410   4.873 -2.2948 -0.7312 -1.6955
   59DOPE  C212 7543   6.527   2.256   5.007  0.1424 -0.2954 -0.0561
   59DOPE  H12R 7544   6.572   2.334   5.072  1.3853 -0.9249 -0.1232
   59DOPE  H12S 7545   6.609   2.221   4.941  0.7337 -1.4757  1.2542
   59DOPE  C213 7546   6.483   2.135   5.092 -0.1479  0.7210 -0.1286
   59DOPE  H13R 7547   6.572   2.086   5.138 -0.4702 -0.7828 -1.0530
   59DOPE  H13S 7548   6.434   2.061   5.025  0.0775  1.5740 -1.2842
   59DOPE  C214 7549   6.384   2.188   5.196  1.0139  0.1855 -0.0093
   59DOPE  H14R 7550   6.297   2.237   5.147  0.1509 -0.8710  0.4348
   59DOPE  H14S 7551   6.433   2.262   5.263  1.5405 -1.4660  1.4941
   59DOPE  C215 7552   6.335   2.071   5.291 -0.2832 -0.3053  0.3129
   59DOPE  H15R 7553   6.311   1.978   5.235 -1.6961 -0.4896  1.1808
   59DOPE  H15S 7554   6.234   2.102   5.324  0.8018  4.7120 -0.1995
   59DOPE  C216 7555   6.431   2.053   5.407 -0.3049  0.0198 -0.2114
   59DOPE  H16R 7556   6.471   2.149   5.447 -0.2752 -0.7451  1.6926
   59DOPE  H16S 7557   6.527   2.004   5.380 -0.4050 -1.6244  2.2162
   59DOPE  C217 7558   6.366   1.977   5.519  0.4901 -0.0323 -0.2062
   59DOPE  H17R 7559   6.285   2.047   5.549  1.1897 -0.3525  2.7133
   59DOPE  H17S 7560   6.437   1.951   5.601  0.3497  1.0101  0.2642
   59DOPE  C218 7561   6.286   1.853   5.490 -0.3551 -0.0644  0.0365
   59DOPE  H18R 7562   6.346   1.781   5.429  0.1635 -1.4241  2.0591
   59DOPE  H18S 7563   6.199   1.884   5.427  1.5880  2.0912 -1.7748
   59DOPE  H18T 7564   6.252   1.799   5.581  0.0147  0.3624  0.4293
   59DOPE   C33 7565   6.772   2.722   3.759  0.4129 -0.0446  0.5054
   59DOPE   H3X 7566   6.845   2.650   3.717  1.1050  0.1617  1.3360
   59DOPE   H3Y 7567   6.717   2.670   3.839  1.1833  0.6435  1.5032
   59DOPE   C34 7568   6.838   2.851   3.806  0.3504 -0.2667  0.0567
   59DOPE   H4X 7569   6.913   2.872   3.727 -0.6212  0.5384 -0.6750
   59DOPE   H4Y 7570   6.755   2.924   3.810 -1.2448 -1.9521 -0.8829
   59DOPE   C35 7571   6.900   2.842   3.941 -0.2195 -0.0861  0.0520
   59DOPE   H5X 7572   6.992   2.781   3.934 -1.1511 -1.7103  1.1388
   59DOPE   H5Y 7573   6.836   2.781   4.009  1.5482 -0.9602  0.9953
   59DOPE   C36 7574   6.939   2.976   4.001 -0.8744  0.1335 -0.1209
   59DOPE   H6X 7575   6.845   3.035   4.000  0.4395  2.3540 -1.8292
   59DOPE   H6Y 7576   7.015   3.027   3.938 -0.7709  0.6985  0.4576
   59DOPE   C37 7577   6.980   2.974   4.155 -0.1465 -0.1540  0.2902
   59DOPE   H7X 7578   6.896   2.919   4.202  0.1742  0.9334  2.2573
   59DOPE   H7Y 7579   7.077   2.924   4.168  0.9323  1.7388 -0.0436
   59DOPE   C38 7580   6.990   3.115   4.221  0.1389  0.1822  0.1817
   59DOPE   H8X 7581   7.046   3.182   4.153 -1.0391  0.4995 -0.5095
   59DOPE   H8Y 7582   7.037   3.088   4.318 -0.4619 -1.7773 -0.0143
   59DOPE   C39 7583   6.851   3.184   4.238  0.5479 -0.3414 -0.3105
   59DOPE   H9X 7584   6.828   3.264   4.166 -0.6000 -0.8512 -0.5303
   59DOPE  C310 7585   6.765   3.158   4.337 -0.1321  0.3264 -0.3984
   59DOPE  H10X 7586   6.672   3.213   4.356  0.0841  0.5057  0.1872
   59DOPE  C311 7587   6.787   3.056   4.454  0.2985 -0.3774 -0.0717
   59DOPE  H11X 7588   6.694   2.995   4.460 -0.4403  0.4574 -1.9436
   59DOPE  H11Y 7589   6.868   2.983   4.436 -0.3007 -1.0273 -0.2157
   59DOPE  C312 7590   6.830   3.115   4.584  0.1788  0.0100  0.7423
   59DOPE  H12X 7591   6.779   3.213   4.600 -1.5128 -0.7558  0.2674
   59DOPE  H12Y 7592   6.938   3.141   4.578  0.5288 -1.2987  0.9822
   59DOPE  C313 7593   6.817   3.017   4.701 -0.5771  0.5769 -0.4288
   59DOPE  H13X 7594   6.712   2.986   4.714  0.2710 -2.0380  0.6530
   59DOPE  H13Y 7595   6.871   2.923   4.677 -1.5448 -0.5082  1.4149
   59DOPE  C314 7596   6.870   3.068   4.836  0.3725 -0.4779  0.0228
   59DOPE  H14X 7597   6.816   3.161   4.863  1.7196  0.1708  0.6030
   59DOPE  H14Y 7598   6.978   3.086   4.815  0.3374 -1.6387 -1.2656
   59DOPE  C315 7599   6.850   2.969   4.950  0.1044 -0.7745 -0.6296
   59DOPE  H15X 7600   6.901   2.873   4.927 -0.0827 -0.7093 -1.3354
   59DOPE  H15Y 7601   6.742   2.952   4.972  0.2391 -0.8152  0.0096
   59DOPE  C316 7602   6.889   3.034   5.081  0.0043  0.3837 -0.0051
   59DOPE  H16X 7603   6.814   3.115   5.091 -0.8246 -0.1571 -1.4914
   59DOPE  H16Y 7604   6.988   3.085   5.076 -0.5393  1.3258 -2.5439
   59DOPE  C317 7605   6.888   2.941   5.202 -0.3967  0.0526  0.5213
   59DOPE  H17X 7606   6.780   2.914   5.201 -0.7262  1.2971  0.8003
   59DOPE  H17Y 7607   6.942   2.845   5.188 -0.2913 -0.4251  3.4982
   59DOPE  C318 7608   6.920   3.007   5.334 -0.3949  0.3442  0.8687
   59DOPE  H18X 7609   7.027   3.026   5.356 -0.0239 -0.3484 -0.2329
   59DOPE  H18Y 7610   6.872   3.107   5.337 -0.3801  0.3388  1.2703
   59DOPE  H18Z 7611   6.882   2.945   5.417 -0.7090  1.2250  1.3963
   60DOPE     N 7612   0.206   1.602   3.470  0.4305  0.4226 -0.2183
   60DOPE   HN1 7613   0.201   1.504   3.505 -1.2133 -0.5222 -2.8204
   60DOPE   HN2 7614   0.230   1.665   3.550 -2.4006  0.7730  0.4711
   60DOPE   HN3 7615   0.108   1.624   3.443  0.8619  0.9460 -1.4206
   60DOPE   C12 7616   0.319   1.602   3.365 -0.0312  0.2350  0.0821
   60DOPE  H12A 7617   0.395   1.544   3.422 -0.8125  1.7959  2.8743
   60DOPE  H12B 7618   0.362   1.700   3.335  0.5717 -0.1013 -0.1808
   60DOPE   C11 7619   0.268   1.519   3.247 -0.0796  0.4620 -0.3385
   60DOPE  H11A 7620   0.344   1.506   3.167 -0.2949 -1.4562 -0.2636
   60DOPE  H11B 7621   0.199   1.583   3.186  1.2583 -0.5661 -3.0760
   60DOPE     P 7622   0.284   1.278   3.337  0.2458  0.5644 -0.1364
   60DOPE   O13 7623   0.418   1.273   3.270  0.1992 -0.2392  0.5037
   60DOPE   O14 7624   0.198   1.157   3.327  0.4616 -0.0678  0.6694
   60DOPE   O11 7625   0.308   1.314   3.486 -0.5931  0.0476  1.1600
   60DOPE   O12 7626   0.201   1.403   3.286 -0.3151  0.3051 -0.1352
   60DOPE    C1 7627   0.302   1.233   3.602 -0.8285  0.4639  0.0809
   60DOPE    HA 7628   0.356   1.137   3.592 -2.5503 -1.0848  3.8841
   60DOPE    HB 7629   0.197   1.214   3.635 -0.3966 -0.1861  1.1143
   60DOPE    C2 7630   0.381   1.300   3.716  0.6799  0.4140  0.5483
   60DOPE    HS 7631   0.384   1.221   3.794  0.4366  0.2651  0.4074
   60DOPE   O21 7632   0.307   1.413   3.765  0.1648  0.1029 -0.7024
   60DOPE   C21 7633   0.298   1.440   3.896 -0.4513  0.4646 -0.3755
   60DOPE   O22 7634   0.333   1.362   3.988  0.0884 -0.3899 -0.0358
   60DOPE   C22 7635   0.229   1.570   3.921 -0.2204  0.1088  0.1807
   60DOPE   H2R 7636   0.126   1.539   3.947  0.3378 -0.9765  1.2564
   60DOPE   H2S 7637   0.217   1.627   3.827 -0.2683  1.5265  1.0177
   60DOPE    C3 7638   0.528   1.341   3.669  1.0583  0.6961  0.1147
   60DOPE    HX 7639   0.525   1.425   3.596 -0.7400  1.8414  1.4368
   60DOPE    HY 7640   0.572   1.256   3.611 -0.4931  0.9229 -1.4740
   60DOPE   O31 7641   0.617   1.386   3.779  0.1846  0.5094  0.3576
   60DOPE   C31 7642   0.643   1.297   3.879 -1.3799  0.3087  0.8859
   60DOPE   O32 7643   0.620   1.179   3.879  0.2928  0.0005  0.2100
   60DOPE   C32 7644   0.715   1.361   3.995 -0.2147  0.1331 -1.5543
   60DOPE   H2X 7645   0.645   1.393   4.075  1.7848  1.9888 -0.4247
   60DOPE   H2Y 7646   0.772   1.282   4.049 -1.1329  1.4831  1.6789
   60DOPE   C23 7647   0.310   1.658   4.022  0.0679 -0.6439  0.0592
   60DOPE   H3R 7648   0.267   1.761   4.030 -0.5002 -0.9333  0.8397
   60DOPE   H3S 7649   0.409   1.666   3.973  0.2393 -4.1412 -0.4147
   60DOPE   C24 7650   0.325   1.603   4.168  0.1638 -0.1612  0.0357
   60DOPE   H4R 7651   0.382   1.508   4.154 -1.0682 -0.9098 -0.0741
   60DOPE   H4S 7652   0.225   1.559   4.190 -0.3842 -0.3479 -2.4218
   60DOPE   C25 7653   0.378   1.696   4.274 -0.4001  0.3377 -0.1693
   60DOPE   H5R 7654   0.313   1.786   4.283  0.3760  0.7617  1.4563
   60DOPE   H5S 7655   0.483   1.727   4.251  0.3689 -2.8810 -1.6404
   60DOPE   C26 7656   0.393   1.626   4.418 -0.7745 -0.2247  0.3785
   60DOPE   H6R 7657   0.455   1.534   4.407 -1.5647 -0.5657 -1.5084
   60DOPE   H6S 7658   0.300   1.590   4.467  0.0833 -0.5000  1.8821
   60DOPE   C27 7659   0.467   1.711   4.518  0.0849 -0.5316  0.3442
   60DOPE   H7R 7660   0.418   1.808   4.537 -1.0321 -1.0217  0.0211
   60DOPE   H7S 7661   0.568   1.731   4.475 -0.3362  2.5528  0.5408
   60DOPE   C28 7662   0.476   1.645   4.659 -0.6986 -0.2255  0.0254
   60DOPE   H8R 7663   0.555   1.701   4.713 -1.9769  0.8591  0.8273
   60DOPE   H8S 7664   0.512   1.541   4.643 -2.8594 -1.1197  0.5826
   60DOPE   C29 7665   0.348   1.632   4.730  0.3431  0.1919 -0.7650
   60DOPE   H9R 7666   0.282   1.547   4.707  2.6856 -2.9714  3.0132
   60DOPE  C210 7667   0.312   1.709   4.836 -0.5134  0.2400  0.3911
   60DOPE  H10R 7668   0.221   1.697   4.897 -0.3423 -1.9814  0.2891
   60DOPE  C211 7669   0.398   1.828   4.876 -0.6915 -0.1511  0.1570
   60DOPE  H11R 7670   0.336   1.920   4.887 -0.0321  0.1598  1.5573
   60DOPE  H11S 7671   0.473   1.867   4.804  0.9851 -0.1673  1.8198
   60DOPE  C212 7672   0.461   1.810   5.012  0.4018 -0.3252  0.5407
   60DOPE  H12R 7673   0.504   1.911   5.031 -0.4163 -0.1039  1.3030
   60DOPE  H12S 7674   0.543   1.735   5.009  0.8520  0.1771 -2.1110
   60DOPE  C213 7675   0.354   1.781   5.118 -0.7957 -0.3549  0.5702
   60DOPE  H13R 7676   0.337   1.672   5.122  0.9856 -0.6547  0.7026
   60DOPE  H13S 7677   0.264   1.840   5.091 -0.6386 -0.9423 -1.3480
   60DOPE  C214 7678   0.408   1.808   5.259 -0.0209  0.2481 -0.0052
   60DOPE  H14R 7679   0.440   1.915   5.262  1.0824 -0.0930  1.9987
   60DOPE  H14S 7680   0.503   1.756   5.281  0.1214  0.3500 -0.3649
   60DOPE  C215 7681   0.306   1.773   5.369 -0.2019  0.4260  0.4029
   60DOPE  H15R 7682   0.299   1.662   5.371 -1.0622  0.2742 -3.4964
   60DOPE  H15S 7683   0.212   1.831   5.359  0.5287  1.5613 -0.2259
   60DOPE  C216 7684   0.365   1.811   5.504 -0.1953  0.2805 -0.0202
   60DOPE  H16R 7685   0.419   1.907   5.489  1.4598 -0.6316 -0.1391
   60DOPE  H16S 7686   0.444   1.739   5.533  0.6188  0.7836 -0.9344
   60DOPE  C217 7687   0.252   1.801   5.606 -0.6986  0.4965  0.2963
   60DOPE  H17R 7688   0.209   1.702   5.581  0.6748 -0.0739  0.0899
   60DOPE  H17S 7689   0.180   1.881   5.577 -0.7210  0.1114 -0.7923
   60DOPE  C218 7690   0.298   1.809   5.753 -0.0245  0.4019 -0.0142
   60DOPE  H18R 7691   0.392   1.750   5.750  1.9582  3.3681 -0.3268
   60DOPE  H18S 7692   0.237   1.767   5.836  1.6440  1.7869  2.0187
   60DOPE  H18T 7693   0.331   1.910   5.786 -0.9003  0.5251  0.5240
   60DOPE   C33 7694   0.815   1.474   3.959  0.2406  0.3665  0.1664
   60DOPE   H3X 7695   0.783   1.546   3.881  1.0526  2.5379  1.7432
   60DOPE   H3Y 7696   0.914   1.430   3.937  1.6171  2.9720  0.8015
   60DOPE   C34 7697   0.841   1.573   4.077 -0.4755  0.1820  0.6358
   60DOPE   H4X 7698   0.916   1.647   4.042 -0.8413  0.4366  0.3741
   60DOPE   H4Y 7699   0.743   1.626   4.091 -0.7110 -0.2665  0.6959
   60DOPE   C35 7700   0.896   1.509   4.208 -0.4976 -0.1456  0.3984
   60DOPE   H5X 7701   0.966   1.582   4.254 -0.5932  0.9953 -1.1620
   60DOPE   H5Y 7702   0.956   1.418   4.186 -1.1237 -0.8163  1.4028
   60DOPE   C36 7703   0.790   1.493   4.317  0.3352  0.3895  0.4141
   60DOPE   H6X 7704   0.716   1.432   4.261 -1.2687  0.7800  2.0269
   60DOPE   H6Y 7705   0.742   1.587   4.350 -0.8601 -0.8428  2.3924
   60DOPE   C37 7706   0.827   1.399   4.442 -0.2919  0.1572  0.9979
   60DOPE   H7X 7707   0.852   1.302   4.394 -2.5552 -0.5631  1.1440
   60DOPE   H7Y 7708   0.918   1.440   4.492  0.2946  0.3627 -0.2041
   60DOPE   C38 7709   0.716   1.378   4.542  0.0572 -0.1669 -0.1739
   60DOPE   H8X 7710   0.620   1.365   4.487 -0.7991  2.5695  0.4807
   60DOPE   H8Y 7711   0.708   1.474   4.597  3.6340  0.1081  0.1050
   60DOPE   C39 7712   0.741   1.255   4.625 -0.0064 -0.4094 -0.3264
   60DOPE   H9X 7713   0.749   1.160   4.571  2.6839 -0.9978  0.9186
   60DOPE  C310 7714   0.739   1.245   4.763 -0.1465 -0.2288  0.2097
   60DOPE  H10X 7715   0.746   1.142   4.802  1.6632 -1.0535 -2.0542
   60DOPE  C311 7716   0.713   1.354   4.867  0.5629  0.0077 -0.6855
   60DOPE  H11X 7717   0.790   1.434   4.860 -0.7573  1.4173  0.2837
   60DOPE  H11Y 7718   0.617   1.406   4.845 -0.5255 -0.6252  2.1217
   60DOPE  C312 7719   0.699   1.305   5.018 -0.6773 -0.3614  0.5309
   60DOPE  H12X 7720   0.796   1.288   5.069 -0.5331  1.8468  1.1256
   60DOPE  H12Y 7721   0.655   1.205   5.001 -0.4157 -0.1758 -1.4863
   60DOPE  C313 7722   0.614   1.397   5.098  0.1654  0.1804 -0.7459
   60DOPE  H13X 7723   0.660   1.498   5.100 -0.6239  0.5746  1.7494
   60DOPE  H13Y 7724   0.512   1.412   5.056 -0.3553 -1.5682 -0.2221
   60DOPE  C314 7725   0.593   1.341   5.237  0.2130  0.4994 -0.0539
   60DOPE  H14X 7726   0.677   1.283   5.281 -0.6238 -0.4652  0.3222
   60DOPE  H14Y 7727   0.509   1.268   5.231  1.0914 -0.4881 -0.8464
   60DOPE  C315 7728   0.547   1.452   5.331  0.3382  0.5289  0.0567
   60DOPE  H15X 7729   0.470   1.514   5.280  0.0938  0.7300  0.6580
   60DOPE  H15Y 7730   0.633   1.514   5.365 -0.8000  1.6516  1.0214
   60DOPE  C316 7731   0.484   1.400   5.461 -0.6280  0.3175  0.2699
   60DOPE  H16X 7732   0.394   1.342   5.434 -0.1453 -0.5804  0.5504
   60DOPE  H16Y 7733   0.444   1.488   5.515 -2.2251  0.4138 -0.9993
   60DOPE  C317 7734   0.587   1.338   5.560 -0.1530  0.6939  0.2974
   60DOPE  H17X 7735   0.625   1.238   5.531 -1.1758 -0.3018  2.2328
   60DOPE  H17Y 7736   0.674   1.405   5.580  1.0057 -0.8341  0.5664
   60DOPE  C318 7737   0.514   1.319   5.696 -0.1019  0.0481  0.0758
   60DOPE  H18X 7738   0.591   1.287   5.770 -0.2109  2.4276  1.2945
   60DOPE  H18Y 7739   0.484   1.417   5.739 -2.5679  0.0010 -1.3211
   60DOPE  H18Z 7740   0.415   1.268   5.693 -0.6925  1.2106 -1.5402
   6123SM     N 7741   3.182   6.770   9.282  0.1061 -0.7133 -1.0705
   6123SM   C15 7742   3.226   6.835   9.413 -0.2125 -0.3681  0.4643
   6123SM  H15A 7743   3.286   6.923   9.398 -1.2787  0.5808  1.4909
   6123SM  H15B 7744   3.274   6.759   9.473 -0.3701 -0.2049  0.7959
   6123SM  H15C 7745   3.137   6.881   9.452 -0.0647  2.6224 -2.3150
   6123SM   C14 7746   3.080   6.665   9.322 -0.8753  0.0986 -0.1027
   6123SM  H14A 7747   3.060   6.610   9.231 -0.5764 -0.2925  0.0627
   6123SM  H14B 7748   2.983   6.706   9.345 -1.0431 -0.3963  0.0813
   6123SM  H14C 7749   3.111   6.599   9.401 -1.6035 -0.9382 -0.6644
   6123SM   C13 7750   3.118   6.876   9.209  0.3620 -0.3163 -0.3117
   6123SM  H13A 7751   3.055   6.842   9.128 -0.0371 -3.5384  1.1811
   6123SM  H13B 7752   3.184   6.959   9.188 -0.5658  0.7813  0.8814
   6123SM  H13C 7753   3.052   6.929   9.277  0.8681  1.4950 -1.1665
   6123SM   C12 7754   3.304   6.705   9.218 -0.0500 -0.2920  0.1068
   6123SM  H12A 7755   3.356   6.646   9.292 -1.7030 -0.5218  1.1239
   6123SM  H12B 7756   3.378   6.777   9.186 -0.0354 -1.5090 -3.0036
   6123SM   C11 7757   3.278   6.612   9.095  0.1953 -0.1503  0.4033
   6123SM  H11A 7758   3.375   6.590   9.047 -0.4007 -2.1105  0.0431
   6123SM  H11B 7759   3.217   6.648   9.010 -0.9816 -1.7691  0.5267
   6123SM     P 7760   3.300   6.388   9.227 -0.1648 -0.0755  0.2360
   6123SM   O13 7761   3.388   6.457   9.322  0.6658  0.3952 -0.0082
   6123SM   O14 7762   3.210   6.289   9.287  0.5222 -0.0015  0.3691
   6123SM   O11 7763   3.394   6.309   9.113  0.4217 -0.1191  0.0870
   6123SM   O12 7764   3.218   6.485   9.129  0.0864 -0.6488 -0.2635
   6123SM   C1S 7765   3.324   6.214   9.034 -0.4612 -0.0653 -0.8404
   6123SM   H1S 7766   3.235   6.175   9.088 -0.0885  2.6196  1.9314
   6123SM   H1T 7767   3.397   6.134   9.007 -0.0419  0.7528 -2.2275
   6123SM    NF 7768   3.191   6.175   8.828  0.1234 -0.7593 -0.1218
   6123SM   HNF 7769   3.218   6.106   8.761 -0.3434  0.7511 -1.9699
   6123SM   C2S 7770   3.282   6.264   8.892 -0.2974 -0.1592 -0.1954
   6123SM   H2S 7771   3.237   6.364   8.909  1.3548  1.1898 -3.1981
   6123SM   C3S 7772   3.413   6.293   8.814  0.1497 -0.9976  0.0111
   6123SM   H3S 7773   3.469   6.202   8.784 -1.1181 -1.2155 -1.9037
   6123SM    O3 7774   3.509   6.371   8.893  0.4126  0.6005 -0.1874
   6123SM   HO3 7775   3.485   6.350   8.983  0.4448  0.6131 -0.1765
   6123SM   C4S 7776   3.389   6.357   8.677  0.2112  0.0711 -0.4174
   6123SM   H4S 7777   3.383   6.280   8.598 -1.3373 -0.6565  0.3615
   6123SM   C5S 7778   3.374   6.489   8.657  0.5735 -0.0137 -0.1086
   6123SM   H5S 7779   3.404   6.560   8.736  0.6523 -1.4582  1.2218
   6123SM   C6S 7780   3.330   6.551   8.526 -0.1287  0.3140  0.0740
   6123SM   H6S 7781   3.414   6.610   8.486 -0.2736  0.4289 -0.0590
   6123SM   H6T 7782   3.246   6.621   8.544 -1.1535 -0.4463 -1.5169
   6123SM   C7S 7783   3.286   6.458   8.415  0.5723  0.6059  0.5674
   6123SM   H7S 7784   3.192   6.411   8.451  0.9531  0.6500  1.6432
   6123SM   H7T 7785   3.360   6.383   8.379  0.9897  1.3191 -0.0654
   6123SM   C8S 7786   3.248   6.535   8.282 -0.0567  0.1652 -0.2326
   6123SM   H8S 7787   3.339   6.578   8.236 -0.5719  0.4116 -1.0302
   6123SM   H8T 7788   3.183   6.621   8.308  0.7040  0.3184  1.2858
   6123SM   C9S 7789   3.190   6.447   8.178  0.8817  0.0814 -0.4731
   6123SM   H9S 7790   3.097   6.414   8.229  0.8714  2.6684  1.3399
   6123SM   H9T 7791   3.257   6.359   8.169 -0.2283 -0.7574 -0.7695
   6123SM  C10S 7792   3.171   6.514   8.045 -0.4460  0.1007  0.3125
   6123SM  H10S 7793   3.262   6.560   8.002  0.1681 -1.7808 -0.5104
   6123SM  H10T 7794   3.100   6.599   8.041 -0.4766  0.0460 -0.5100
   6123SM  C11S 7795   3.132   6.409   7.934  0.4175 -0.8307 -0.3032
   6123SM  H11S 7796   3.025   6.385   7.948 -0.8895  2.1699 -3.5574
   6123SM  H11T 7797   3.193   6.317   7.927 -1.8543 -2.4513  0.3435
   6123SM  C12S 7798   3.146   6.475   7.794 -0.8667 -0.0638  0.5924
   6123SM  H12S 7799   3.256   6.486   7.780 -0.7546 -2.2650 -0.7413
   6123SM  H12T 7800   3.098   6.575   7.791 -1.4323 -0.3451 -1.4089
   6123SM  C13S 7801   3.104   6.384   7.679  0.4176 -0.2766 -0.1345
   6123SM  H13S 7802   2.999   6.346   7.678 -0.5703  2.0406  2.2250
   6123SM  H13T 7803   3.166   6.292   7.687 -0.7377 -1.2386 -1.6480
   6123SM  C14S 7804   3.131   6.450   7.538  0.2391  0.9023 -0.0290
   6123SM  H14S 7805   3.087   6.378   7.465  1.3530  0.1884 -0.0223
   6123SM  H14T 7806   3.240   6.432   7.529 -0.2560 -2.9535 -0.2703
   6123SM  C15S 7807   3.070   6.594   7.516  0.0165 -0.0157  0.1281
   6123SM  H15S 7808   3.144   6.654   7.573  1.4616 -0.9484 -0.7056
   6123SM  H15T 7809   2.970   6.590   7.564 -0.0496  0.3573  0.0211
   6123SM  C16S 7810   3.052   6.637   7.365 -0.6133  0.6893  0.3932
   6123SM  H16S 7811   3.010   6.740   7.369 -2.7690 -0.0691 -1.1459
   6123SM  H16T 7812   2.974   6.575   7.315  0.2399  0.6296 -0.8913
   6123SM  C17S 7813   3.175   6.633   7.270  0.6921  0.1509 -0.8021
   6123SM  H17S 7814   3.199   6.528   7.244 -0.4934 -0.0649 -1.0558
   6123SM  H17T 7815   3.262   6.667   7.330  0.2489  1.7999 -1.0622
   6123SM  C18S 7816   3.150   6.705   7.137  0.6490 -0.1491 -0.3565
   6123SM  H18S 7817   3.063   6.661   7.083 -2.5922  2.3628  2.3752
   6123SM  H18T 7818   3.238   6.709   7.069 -0.1254  0.2038 -1.3687
   6123SM  H18U 7819   3.122   6.812   7.145  0.4198 -0.3414  2.0077
   6123SM   C1F 7820   3.066   6.176   8.869  0.3727 -0.1520  0.4409
   6123SM    OF 7821   3.022   6.236   8.971 -0.7801  0.1274  0.3047
   6123SM   C2F 7822   2.967   6.109   8.776 -0.1044 -0.2448 -0.3615
   6123SM   H2F 7823   3.028   6.081   8.687  0.6679  2.0204 -0.5916
   6123SM   H2G 7824   2.887   6.184   8.757 -0.7292 -0.0500  2.6070
   6123SM   C3F 7825   2.910   5.983   8.847  0.4826 -0.2969 -0.4509
   6123SM   H3F 7826   2.870   6.015   8.945  1.0171  3.5137 -1.3098
   6123SM   H3G 7827   3.003   5.921   8.845  0.3229 -0.5324 -0.5437
   6123SM   C4F 7828   2.804   5.902   8.770 -0.6255  0.3018 -0.2342
   6123SM   H4F 7829   2.723   5.974   8.748 -0.0575  0.3068 -2.5332
   6123SM   H4G 7830   2.768   5.822   8.837 -1.3891  0.6187 -0.2612
   6123SM   C5F 7831   2.846   5.836   8.642  0.4293  0.0675  0.2671
   6123SM   H5F 7832   2.926   5.761   8.655 -0.8793 -1.5130 -0.4629
   6123SM   H5G 7833   2.885   5.913   8.573 -1.2515 -0.1912 -1.0489
   6123SM   C6F 7834   2.731   5.770   8.568 -0.7632  0.6483 -0.6468
   6123SM   H6F 7835   2.644   5.838   8.559 -1.0605  0.6516  1.6803
   6123SM   H6G 7836   2.695   5.678   8.619 -0.5657  1.0688  0.2634
   6123SM   C7F 7837   2.772   5.731   8.424  0.8608 -0.3298  0.1129
   6123SM   H7F 7838   2.870   5.679   8.421  0.9338 -0.1477 -1.2272
   6123SM   H7G 7839   2.788   5.828   8.372 -0.3041 -0.1904 -0.0042
   6123SM   C8F 7840   2.656   5.658   8.353 -0.0375 -0.0123  0.2981
   6123SM   H8F 7841   2.560   5.704   8.385 -0.1052 -0.0696  0.1790
   6123SM   H8G 7842   2.658   5.551   8.382 -2.1344 -0.1755  0.0414
   6123SM   C9F 7843   2.665   5.658   8.201 -0.2650 -0.2549  0.3011
   6123SM   H9F 7844   2.748   5.594   8.165  0.0526  0.8759 -1.0686
   6123SM   H9G 7845   2.681   5.766   8.181 -0.9146 -0.5182 -1.9641
   6123SM  C10F 7846   2.533   5.603   8.143 -0.2459  0.0700 -0.5891
   6123SM  H10F 7847   2.442   5.652   8.184 -0.2179 -0.2986 -0.0847
   6123SM  H10G 7848   2.542   5.497   8.174  0.3489  0.6391  1.3691
   6123SM  C11F 7849   2.524   5.597   7.988 -0.9586 -0.8414  0.3108
   6123SM  H11F 7850   2.486   5.690   7.941  1.4801  0.1543  0.1751
   6123SM  H11G 7851   2.446   5.520   7.969  0.4190 -2.0668 -0.5583
   6123SM  C12F 7852   2.656   5.561   7.917  0.5842  0.3914  0.9122
   6123SM  H12F 7853   2.695   5.466   7.961  3.3531  1.2237  0.4954
   6123SM  H12G 7854   2.727   5.645   7.935 -1.1945  2.0211  0.6551
   6123SM  C13F 7855   2.635   5.542   7.766 -0.0157  0.5097 -0.0067
   6123SM  H13F 7856   2.559   5.463   7.745  1.2128 -0.2114 -2.0269
   6123SM  H13G 7857   2.729   5.499   7.727 -0.1001 -1.3907  1.6793
   6123SM  C14F 7858   2.600   5.674   7.695  0.4712 -0.0817 -0.3418
   6123SM  H14F 7859   2.646   5.763   7.743  0.9842 -1.0480  0.9998
   6123SM  H14G 7860   2.490   5.690   7.703  0.7248  2.0570 -0.4260
   6123SM  C15F 7861   2.631   5.671   7.544  0.1999 -1.0921 -0.0982
   6123SM  H15F 7862   2.729   5.628   7.517 -0.1438 -0.4569 -2.5948
   6123SM  H15G 7863   2.633   5.772   7.498  1.6923 -1.4183 -0.8178
   6123SM  C16F 7864   2.536   5.584   7.466  0.1917 -0.0240 -0.2320
   6123SM  H16F 7865   2.434   5.628   7.475  0.0959  0.1414 -1.7736
   6123SM  H16G 7866   2.537   5.476   7.492 -0.3536 -0.0517 -0.3003
   6123SM  C17F 7867   2.562   5.587   7.313 -0.0483  0.2813  0.2674
   6123SM  H17F 7868   2.556   5.687   7.267  0.5033 -0.7264 -2.1314
   6123SM  H17G 7869   2.485   5.520   7.270 -0.5555  0.8242  0.3201
   6123SM  C18F 7870   2.702   5.535   7.259  0.3452  0.2298 -0.5181
   6123SM  H18F 7871   2.719   5.436   7.307 -0.7777 -0.4207 -1.4222
   6123SM  H18G 7872   2.787   5.599   7.292  0.1468  0.7948 -1.0894
   6123SM  C19F 7873   2.711   5.513   7.108  0.3257 -0.1862 -0.0485
   6123SM  H19F 7874   2.641   5.433   7.076 -1.6302  1.2356  0.4951
   6123SM  H19G 7875   2.814   5.475   7.089 -0.2093 -1.0759 -1.2865
   6123SM  C20F 7876   2.688   5.648   7.026  0.2453 -0.6625 -0.6374
   6123SM  H20F 7877   2.580   5.676   7.029  0.0519 -1.3214 -1.0910
   6123SM  H20G 7878   2.701   5.629   6.917 -2.4036  1.8848 -1.5251
   6123SM  C21F 7879   2.784   5.766   7.061 -0.0711  0.2471  0.4813
   6123SM  H21F 7880   2.764   5.789   7.168  0.0583 -0.4379  0.6626
   6123SM  H21G 7881   2.762   5.854   6.998 -2.6096 -0.4382  0.2844
   6123SM  C22F 7882   2.932   5.726   7.028  0.0860  0.4386 -0.1847
   6123SM  H22F 7883   2.941   5.643   6.955 -1.1276  0.0435  0.0965
   6123SM  H22G 7884   2.973   5.678   7.119 -1.2866 -2.3360 -0.9030
   6123SM  C23F 7885   3.019   5.842   6.993 -0.4575 -0.4052 -0.0591
   6123SM  H23F 7886   3.037   5.905   7.083 -0.6730  0.2527 -0.4751
   6123SM  H23G 7887   2.971   5.900   6.911 -1.4152  0.0248  0.7773
   6123SM  H23H 7888   3.116   5.805   6.954  0.1236 -1.1831  1.9520
   6223SM     N 7889   3.657   5.327   9.618  0.0835 -0.1468  0.3320
   6223SM   C15 7890   3.569   5.355   9.742 -0.6494  0.7677  0.7913
   6223SM  H15A 7891   3.558   5.460   9.763  0.0899  0.4881  2.8382
   6223SM  H15B 7892   3.614   5.310   9.830 -0.3080  0.0121  0.2468
   6223SM  H15C 7893   3.469   5.315   9.734 -0.1029 -0.6814  0.8990
   6223SM   C14 7894   3.631   5.187   9.582 -0.8764  0.5765  0.4106
   6223SM  H14A 7895   3.692   5.179   9.493 -2.1224  1.3805 -0.5367
   6223SM  H14B 7896   3.531   5.159   9.554 -0.5386 -0.0075 -0.2672
   6223SM  H14C 7897   3.671   5.118   9.655  0.0801 -0.4783 -1.0287
   6223SM   C13 7898   3.602   5.415   9.510  0.1992  0.6191 -0.2284
   6223SM  H13A 7899   3.500   5.390   9.487  0.1847  0.8018 -0.3690
   6223SM  H13B 7900   3.651   5.385   9.418 -1.1548  0.9521 -1.0885
   6223SM  H13C 7901   3.616   5.521   9.524 -0.9985  0.7965 -0.2696
   6223SM   C12 7902   3.805   5.362   9.645 -0.2407  0.5773  0.7473
   6223SM  H12A 7903   3.833   5.303   9.731 -1.4001  1.5513  1.8312
   6223SM  H12B 7904   3.823   5.465   9.674  0.2670  1.0582 -1.1070
   6223SM   C11 7905   3.916   5.329   9.540 -0.5634  0.2579  0.0124
   6223SM  H11A 7906   4.012   5.367   9.581  1.1286 -0.4397 -2.9959
   6223SM  H11B 7907   3.896   5.393   9.451 -0.0239  0.9783  0.3983
   6223SM     P 7908   3.931   5.137   9.363 -0.4244 -0.3063  0.1997
   6223SM   O13 7909   4.039   5.215   9.302 -0.4050 -0.4624 -0.8600
   6223SM   O14 7910   3.950   4.992   9.355  0.5833 -0.8875 -0.4765
   6223SM   O11 7911   3.797   5.176   9.295  0.0304 -0.6213  0.2534
   6223SM   O12 7912   3.918   5.185   9.520 -0.0466 -0.4031 -0.0537
   6223SM   C1S 7913   3.793   5.274   9.190  0.3600 -0.1060  0.0824
   6223SM   H1S 7914   3.868   5.353   9.211 -0.2889  0.5888 -0.1834
   6223SM   H1T 7915   3.696   5.328   9.189  1.4448  1.9260  0.2265
   6223SM    NF 7916   3.812   5.311   8.947 -0.1857  0.1978 -0.2140
   6223SM   HNF 7917   3.719   5.339   8.921  0.0081  1.1933  0.1161
   6223SM   C2S 7918   3.820   5.212   9.043  0.7349  0.4119  0.0061
   6223SM   H2S 7919   3.923   5.178   9.065  1.3331  1.5575 -0.9315
   6223SM   C3S 7920   3.727   5.092   9.018 -0.5616 -0.0911 -0.5564
   6223SM   H3S 7921   3.620   5.114   9.039 -0.6391  0.7047 -1.7044
   6223SM    O3 7922   3.739   4.982   9.104 -0.3589  0.5533 -0.5093
   6223SM   HO3 7923   3.795   5.020   9.172 -0.4137 -1.4406  0.7334
   6223SM   C4S 7924   3.744   5.047   8.879  0.0245 -0.3623  0.0842
   6223SM   H4S 7925   3.846   5.060   8.838 -0.5881  0.5130 -1.2147
   6223SM   C5S 7926   3.641   5.008   8.801 -0.9838 -0.4367 -0.3412
   6223SM   H5S 7927   3.541   4.996   8.844  0.8720 -5.0526  3.5785
   6223SM   C6S 7928   3.646   4.990   8.656  0.4454  0.4790 -0.1167
   6223SM   H6S 7929   3.556   5.044   8.620 -0.5627 -1.2221 -0.2757
   6223SM   H6T 7930   3.635   4.881   8.638  0.5446  0.1734  1.5525
   6223SM   C7S 7931   3.773   5.037   8.582  0.3456 -0.8320 -0.4730
   6223SM   H7S 7932   3.867   5.017   8.638 -0.3056  1.0732  1.4594
   6223SM   H7T 7933   3.769   5.148   8.593 -0.1222 -0.8467 -0.4885
   6223SM   C8S 7934   3.779   4.987   8.435  0.4651 -0.1989  0.6771
   6223SM   H8S 7935   3.785   4.876   8.430  0.0009 -0.2308  0.8137
   6223SM   H8T 7936   3.883   5.010   8.401  0.4809 -0.8766  0.2531
   6223SM   C9S 7937   3.677   5.040   8.338  0.5228 -0.0696 -0.0896
   6223SM   H9S 7938   3.676   5.151   8.347 -0.9972  0.0347 -1.2229
   6223SM   H9T 7939   3.578   4.996   8.360  1.4432 -1.9855  0.3955
   6223SM  C10S 7940   3.714   5.014   8.196 -0.6196  0.3902  0.1772
   6223SM  H10S 7941   3.752   4.911   8.185 -2.9988 -0.6591  1.1977
   6223SM  H10T 7942   3.795   5.084   8.166  1.3517 -1.3994  1.0534
   6223SM  C11S 7943   3.598   5.045   8.102  0.4011 -0.2984 -0.0195
   6223SM  H11S 7944   3.579   5.154   8.106  0.4529 -0.1805 -1.9607
   6223SM  H11T 7945   3.506   4.989   8.131  0.5430 -0.0596  0.9242
   6223SM  C12S 7946   3.642   5.015   7.958  0.0523  0.9864  0.2956
   6223SM  H12S 7947   3.645   4.905   7.947  0.6483  1.0538 -0.2902
   6223SM  H12T 7948   3.742   5.060   7.943  2.1559 -3.7630 -2.1005
   6223SM  C13S 7949   3.542   5.075   7.864 -0.3473  0.5101  0.0603
   6223SM  H13S 7950   3.561   5.181   7.891 -0.1408  0.3843  0.4162
   6223SM  H13T 7951   3.440   5.052   7.900 -1.3158  2.1709 -1.4474
   6223SM  C14S 7952   3.567   5.034   7.714 -0.1171 -0.4400 -0.6957
   6223SM  H14S 7953   3.566   4.924   7.699  3.8526 -0.3935 -2.8344
   6223SM  H14T 7954   3.667   5.059   7.670 -0.5236  1.8142 -0.4649
   6223SM  C15S 7955   3.459   5.093   7.624  0.4975 -0.2255  0.7482
   6223SM  H15S 7956   3.444   5.201   7.648  1.4999 -0.2385  1.5076
   6223SM  H15T 7957   3.361   5.046   7.645 -0.6121  1.3330 -0.6858
   6223SM  C16S 7958   3.487   5.086   7.474 -0.4380  0.0429 -0.6994
   6223SM  H16S 7959   3.499   4.982   7.437 -1.4575  0.2199 -1.5591
   6223SM  H16T 7960   3.580   5.143   7.456 -1.2979  1.6022 -0.4124
   6223SM  C17S 7961   3.386   5.154   7.391  0.7381  0.4141 -0.6607
   6223SM  H17S 7962   3.352   5.256   7.417 -1.5883 -0.3211 -0.5275
   6223SM  H17T 7963   3.284   5.108   7.393 -0.0026  1.9327  2.1298
   6223SM  C18S 7964   3.429   5.138   7.244  0.3182  0.8567  0.0740
   6223SM  H18S 7965   3.511   5.208   7.216 -1.0741  2.6693  0.4010
   6223SM  H18T 7966   3.336   5.165   7.190 -0.3222 -0.5181  0.4234
   6223SM  H18U 7967   3.459   5.034   7.216  2.1441  1.9687 -2.5849
   6223SM   C1F 7968   3.921   5.386   8.928 -0.1419  0.4489  1.1235
   6223SM    OF 7969   4.031   5.341   8.954 -0.1627  0.1254 -0.3927
   6223SM   C2F 7970   3.901   5.523   8.872  0.0030 -0.1430 -0.4169
   6223SM   H2F 7971   3.945   5.598   8.941 -0.4679  0.3062 -0.6021
   6223SM   H2G 7972   3.793   5.546   8.875 -0.3167 -1.6506  1.3574
   6223SM   C3F 7973   3.939   5.550   8.721 -0.4898  0.0378  0.0905
   6223SM   H3F 7974   4.047   5.530   8.707 -0.5668 -0.2902 -0.0451
   6223SM   H3G 7975   3.922   5.657   8.697  0.8836  0.3320  0.3775
   6223SM   C4F 7976   3.853   5.469   8.618 -0.1337 -0.0666 -0.0311
   6223SM   H4F 7977   3.744   5.471   8.639 -0.3596 -0.4622 -1.0901
   6223SM   H4G 7978   3.885   5.363   8.621 -0.1839 -0.0717  0.4387
   6223SM   C5F 7979   3.881   5.519   8.478 -0.5581 -0.8486 -0.3034
   6223SM   H5F 7980   3.988   5.495   8.458 -0.6273 -0.8996 -0.6049
   6223SM   H5G 7981   3.870   5.629   8.480  2.7340 -0.4235 -0.3725
   6223SM   C6F 7982   3.809   5.450   8.364  0.6827  0.1078 -0.5427
   6223SM   H6F 7983   3.701   5.474   8.361  0.3886 -1.1827 -0.9498
   6223SM   H6G 7984   3.827   5.344   8.392 -1.6306 -0.2372 -0.1631
   6223SM   C7F 7985   3.860   5.470   8.223  0.0341 -0.5996  0.0869
   6223SM   H7F 7986   3.967   5.448   8.240  0.9156  2.3587 -0.9306
   6223SM   H7G 7987   3.856   5.576   8.190  0.0711 -0.4749  0.4798
   6223SM   C8F 7988   3.800   5.391   8.106  0.5398 -0.5411  0.9173
   6223SM   H8F 7989   3.690   5.411   8.104  0.9773  2.2255  0.1239
   6223SM   H8G 7990   3.806   5.280   8.113 -0.8767 -0.7519 -0.4814
   6223SM   C9F 7991   3.858   5.437   7.973  0.3298  0.1918  0.6093
   6223SM   H9F 7992   3.956   5.389   7.954 -0.0929  0.3569 -2.4840
   6223SM   H9G 7993   3.870   5.547   7.963 -0.2751  0.1249 -1.0987
   6223SM  C10F 7994   3.781   5.394   7.846  0.0946  0.1843 -0.5595
   6223SM  H10F 7995   3.681   5.443   7.843  0.0156  0.0596 -0.1074
   6223SM  H10G 7996   3.770   5.284   7.841 -0.5697  0.2598 -0.8498
   6223SM  C11F 7997   3.859   5.435   7.719 -0.1233 -0.0243  0.1002
   6223SM  H11F 7998   3.958   5.389   7.737 -0.3401  0.1148  1.8501
   6223SM  H11G 7999   3.872   5.545   7.725 -0.3600  0.0372 -0.4596
   6223SM  C12F 8000   3.789   5.386   7.597 -0.1451 -0.4659 -0.4241
   6223SM  H12F 8001   3.692   5.438   7.586  0.9157  1.5225 -0.7537
   6223SM  H12G 8002   3.763   5.278   7.608 -0.9735 -0.0384  2.6479
   6223SM  C13F 8003   3.858   5.422   7.467  0.2088  0.9106  0.1259
   6223SM  H13F 8004   3.964   5.395   7.485 -0.1987  0.3695  2.0470
   6223SM  H13G 8005   3.853   5.519   7.415 -0.3270 -0.7158 -3.0943
   6223SM  C14F 8006   3.823   5.328   7.351 -0.1618  0.6560 -0.0411
   6223SM  H14F 8007   3.716   5.302   7.337  0.3042 -0.7694 -1.2358
   6223SM  H14G 8008   3.866   5.230   7.380  0.3601  0.4236 -1.5301
   6223SM  C15F 8009   3.890   5.377   7.225 -0.4721 -0.4587 -0.0805
   6223SM  H15F 8010   3.991   5.418   7.247 -1.0491  1.7355 -1.1506
   6223SM  H15G 8011   3.836   5.463   7.178 -0.1138  0.2449  0.7603
   6223SM  C16F 8012   3.912   5.277   7.106  0.3180 -0.1200 -0.2290
   6223SM  H16F 8013   3.971   5.193   7.150  0.5440 -0.3604 -0.9693
   6223SM  H16G 8014   3.971   5.319   7.022  0.6254 -0.5162 -0.2171
   6223SM  C17F 8015   3.778   5.230   7.045 -0.1239 -0.0126  0.4200
   6223SM  H17F 8016   3.706   5.218   7.129 -0.9620 -0.3687 -0.3319
   6223SM  H17G 8017   3.788   5.122   7.020 -1.0032 -0.1414  0.5961
   6223SM  C18F 8018   3.704   5.304   6.935  0.2149 -0.1857  0.1233
   6223SM  H18F 8019   3.684   5.409   6.967  0.8069 -1.2723  4.7335
   6223SM  H18G 8020   3.606   5.255   6.916  1.1916 -1.1475 -3.1678
   6223SM  C19F 8021   3.782   5.315   6.804  0.3000  0.0336  1.0064
   6223SM  H19F 8022   3.877   5.372   6.807 -1.0046  2.3335  0.8278
   6223SM  H19G 8023   3.705   5.367   6.742 -0.6097 -2.0492  0.2973
   6223SM  C20F 8024   3.787   5.185   6.711 -0.2943 -0.2944  0.4336
   6223SM  H20F 8025   3.686   5.140   6.707 -0.2038 -0.4315 -0.6357
   6223SM  H20G 8026   3.853   5.102   6.745 -0.2734  0.0176  1.1885
   6223SM  C21F 8027   3.804   5.211   6.558 -0.0098 -0.3517 -0.6441
   6223SM  H21F 8028   3.905   5.249   6.530 -0.2672 -0.4789 -1.7845
   6223SM  H21G 8029   3.732   5.292   6.533 -1.4007  1.1946  6.2872
   6223SM  C22F 8030   3.775   5.085   6.468  0.4575 -0.8229  0.0232
   6223SM  H22F 8031   3.683   5.030   6.496 -0.3899 -0.5139 -1.9642
   6223SM  H22G 8032   3.859   5.014   6.483 -0.1089 -1.4126  0.4664
   6223SM  C23F 8033   3.761   5.096   6.321  0.2997  0.7334 -0.0238
   6223SM  H23F 8034   3.859   5.121   6.275  2.0857  0.1121  3.1965
   6223SM  H23G 8035   3.674   5.157   6.289 -3.0656 -3.9302 -0.8143
   6223SM  H23H 8036   3.725   4.998   6.282  0.7600  0.6553 -0.2578
   6323SM     N 8037   5.563   5.573   9.285  0.6395 -0.4226  0.5900
   6323SM   C15 8038   5.534   5.424   9.266 -0.4448 -0.5634 -0.2579
   6323SM  H15A 8039   5.449   5.388   9.321 -1.8865 -3.3699 -3.8875
   6323SM  H15B 8040   5.622   5.368   9.296 -1.1796 -1.7848 -0.3374
   6323SM  H15C 8041   5.516   5.401   9.162 -0.3630 -1.8160 -0.0143
   6323SM   C14 8042   5.551   5.609   9.427  0.5065  0.0892  0.0898
   6323SM  H14A 8043   5.543   5.716   9.437  0.2367  0.1233 -0.4282
   6323SM  H14B 8044   5.633   5.573   9.488 -0.3533 -1.0554  0.6092
   6323SM  H14C 8045   5.458   5.568   9.462 -0.0219  1.0398 -0.1580
   6323SM   C13 8046   5.706   5.589   9.254 -0.0213  0.4073  0.0157
   6323SM  H13A 8047   5.738   5.560   9.155  0.0606  1.5974 -0.3235
   6323SM  H13B 8048   5.766   5.527   9.319 -0.1100 -1.2304 -1.3646
   6323SM  H13C 8049   5.740   5.690   9.269 -0.3481  0.4741  0.3190
   6323SM   C12 8050   5.476   5.650   9.192 -0.2715 -0.4183  0.0945
   6323SM  H12A 8051   5.498   5.755   9.200  1.0841 -0.6157 -0.6091
   6323SM  H12B 8052   5.376   5.638   9.230  0.1299  0.6453  1.5445
   6323SM   C11 8053   5.496   5.619   9.038  0.4332 -0.2776 -0.3535
   6323SM  H11A 8054   5.593   5.670   9.016  0.1717  1.0792  1.4110
   6323SM  H11B 8055   5.411   5.668   8.987 -0.8302 -1.0903  0.9138
   6323SM     P 8056   5.602   5.418   8.898  0.0174 -0.2448 -0.1150
   6323SM   O13 8057   5.736   5.465   8.939 -0.0472  0.2515 -0.3421
   6323SM   O14 8058   5.584   5.269   8.910 -0.3363  0.0310  0.0743
   6323SM   O11 8059   5.564   5.465   8.754  0.0472  0.8066  0.2461
   6323SM   O12 8060   5.494   5.486   8.992  0.2242  0.0760 -0.0948
   6323SM   C1S 8061   5.425   5.465   8.729  1.0471 -0.0591 -0.5293
   6323SM   H1S 8062   5.376   5.551   8.778  1.9463 -0.0313  0.3569
   6323SM   H1T 8063   5.375   5.375   8.771  0.9870  0.7157  1.0946
   6323SM    NF 8064   5.255   5.484   8.547  0.1931 -0.8317  0.9188
   6323SM   HNF 8065   5.211   5.404   8.505  0.2429 -0.8081  0.8217
   6323SM   C2S 8066   5.396   5.454   8.573 -0.2572 -0.6857 -0.1032
   6323SM   H2S 8067   5.449   5.543   8.531 -0.8842 -0.4439 -0.3905
   6323SM   C3S 8068   5.458   5.324   8.515  0.2596 -0.0208  0.6545
   6323SM   H3S 8069   5.390   5.239   8.534  0.3018 -0.5478 -1.3036
   6323SM    O3 8070   5.586   5.283   8.549 -0.5756 -0.3101 -0.8472
   6323SM   HO3 8071   5.594   5.327   8.635 -2.0130 -0.1484 -0.7820
   6323SM   C4S 8072   5.465   5.331   8.362  0.3159  0.4083 -0.0789
   6323SM   H4S 8073   5.523   5.416   8.324 -0.4603 -0.2727 -2.9852
   6323SM   C5S 8074   5.412   5.242   8.268  0.4465 -0.1657 -0.0266
   6323SM   H5S 8075   5.368   5.145   8.294  0.5142 -0.5487 -1.2442
   6323SM   C6S 8076   5.428   5.257   8.122 -0.9043 -0.6649  0.4266
   6323SM   H6S 8077   5.508   5.333   8.104 -0.6617 -1.4604 -2.2541
   6323SM   H6T 8078   5.338   5.288   8.065 -0.3596 -1.9676 -1.2460
   6323SM   C7S 8079   5.483   5.128   8.056  0.4683 -0.6975 -0.1382
   6323SM   H7S 8080   5.416   5.040   8.068 -0.0994  0.0696  3.7306
   6323SM   H7T 8081   5.584   5.106   8.098  1.1460  0.7591 -0.9336
   6323SM   C8S 8082   5.517   5.138   7.903  0.4464 -0.0421 -0.5112
   6323SM   H8S 8083   5.590   5.066   7.861 -0.8377 -2.4876  1.2181
   6323SM   H8T 8084   5.561   5.239   7.886  1.3737 -0.4577 -0.5892
   6323SM   C9S 8085   5.392   5.157   7.810 -0.6013  0.1925  0.3811
   6323SM   H9S 8086   5.309   5.214   7.859 -0.7638 -0.2815  0.6613
   6323SM   H9T 8087   5.352   5.059   7.776  0.7481  0.2360 -1.5025
   6323SM  C10S 8088   5.429   5.217   7.671  0.4879  0.1782 -0.4157
   6323SM  H10S 8089   5.517   5.164   7.629  0.0835  0.2437 -1.3690
   6323SM  H10T 8090   5.446   5.326   7.677 -0.1028  0.3151 -1.1181
   6323SM  C11S 8091   5.319   5.179   7.579  0.2750  0.2390 -0.4893
   6323SM  H11S 8092   5.221   5.178   7.631  0.8189  1.6095  0.6307
   6323SM  H11T 8093   5.338   5.075   7.548 -0.4875 -1.1942  3.2965
   6323SM  C12S 8094   5.331   5.260   7.451 -0.2369 -0.7752 -0.3058
   6323SM  H12S 8095   5.434   5.245   7.411  0.4240 -0.4698  1.2101
   6323SM  H12T 8096   5.328   5.370   7.464 -0.0033 -0.9733  1.6625
   6323SM  C13S 8097   5.225   5.216   7.348  0.0959  1.0552 -0.2834
   6323SM  H13S 8098   5.126   5.255   7.379 -0.0220  0.7247 -0.2415
   6323SM  H13T 8099   5.213   5.105   7.345 -1.1207  1.1330  0.9286
   6323SM  C14S 8100   5.269   5.272   7.205  0.2579  0.6120  0.2856
   6323SM  H14S 8101   5.363   5.222   7.172 -0.1387  0.4213 -0.5887
   6323SM  H14T 8102   5.293   5.380   7.207 -0.1238  0.9070 -3.6448
   6323SM  C15S 8103   5.168   5.250   7.100  0.2794 -0.9936 -0.2906
   6323SM  H15S 8104   5.067   5.282   7.134 -0.1849 -0.6770 -1.8689
   6323SM  H15T 8105   5.164   5.142   7.075  2.0072 -1.1523  0.0024
   6323SM  C16S 8106   5.208   5.337   6.979  0.1271  0.8327  0.1342
   6323SM  H16S 8107   5.297   5.287   6.934  0.8113  0.5436  1.7588
   6323SM  H16T 8108   5.232   5.442   7.004 -0.2182  1.0457 -0.4111
   6323SM  C17S 8109   5.092   5.330   6.870 -0.0366  0.1973 -1.2258
   6323SM  H17S 8110   5.003   5.356   6.931  1.1850 -1.5697  1.4880
   6323SM  H17T 8111   5.084   5.229   6.826 -0.3986 -1.2846  1.9448
   6323SM  C18S 8112   5.109   5.443   6.769 -0.1248  0.2395  0.1952
   6323SM  H18S 8113   5.212   5.434   6.727 -0.5134  0.3475 -0.8069
   6323SM  H18T 8114   5.087   5.541   6.816 -2.3439  0.3763 -0.9732
   6323SM  H18U 8115   5.034   5.434   6.688 -0.6043  1.3938  0.4901
   6323SM   C1F 8116   5.195   5.607   8.569 -0.4557 -0.6031 -0.6571
   6323SM    OF 8117   5.256   5.704   8.613 -0.0715 -0.1562 -0.4695
   6323SM   C2F 8118   5.050   5.614   8.544 -0.3247  0.3140  0.8422
   6323SM   H2F 8119   5.012   5.717   8.562  0.3996  0.8233 -0.4171
   6323SM   H2G 8120   4.996   5.539   8.605 -0.5861  0.7045  1.0986
   6323SM   C3F 8121   5.012   5.567   8.398 -0.0439 -0.5116  0.1213
   6323SM   H3F 8122   5.030   5.458   8.384 -0.5125 -0.6602  0.6573
   6323SM   H3G 8123   5.083   5.625   8.335  1.1267 -3.1516 -1.1610
   6323SM   C4F 8124   4.873   5.607   8.351 -0.6749  0.0201 -0.3436
   6323SM   H4F 8125   4.863   5.714   8.376  1.6758 -0.3916  2.9528
   6323SM   H4G 8126   4.796   5.565   8.419  1.3199 -1.5839  1.0955
   6323SM   C5F 8127   4.849   5.571   8.206  0.0185 -0.4842 -0.2873
   6323SM   H5F 8128   4.852   5.460   8.195  0.6608 -0.4985 -0.0396
   6323SM   H5G 8129   4.928   5.604   8.137 -0.1379 -0.4284 -0.4395
   6323SM   C6F 8130   4.709   5.622   8.157 -0.4209  0.1640 -0.1752
   6323SM   H6F 8131   4.710   5.731   8.177  4.7012  0.0771  1.6112
   6323SM   H6G 8132   4.626   5.571   8.210  0.4958 -3.1774 -1.6638
   6323SM   C7F 8133   4.690   5.589   8.011 -0.4793  0.3025  0.2559
   6323SM   H7F 8134   4.659   5.483   8.005  3.0358 -0.8129 -0.7675
   6323SM   H7G 8135   4.787   5.591   7.956 -1.1251  0.5822 -0.9203
   6323SM   C8F 8136   4.579   5.661   7.932  0.1277 -0.0295  0.2732
   6323SM   H8F 8137   4.596   5.771   7.925 -2.3553  0.3580 -0.5604
   6323SM   H8G 8138   4.477   5.645   7.972 -0.9963  1.9881 -1.5136
   6323SM   C9F 8139   4.591   5.611   7.784 -0.1362  0.4305  0.7385
   6323SM   H9F 8140   4.585   5.502   7.763  0.1047  0.5470  0.0222
   6323SM   H9G 8141   4.690   5.640   7.743  1.2705 -2.4594  1.8291
   6323SM  C10F 8142   4.485   5.673   7.695 -0.0413 -0.1078 -0.3033
   6323SM  H10F 8143   4.499   5.782   7.702  2.1166 -0.3901  0.5107
   6323SM  H10G 8144   4.383   5.638   7.722  0.0817 -0.7622 -0.6413
   6323SM  C11F 8145   4.501   5.632   7.552 -0.2354  0.0507  0.0360
   6323SM  H11F 8146   4.478   5.524   7.542 -1.0924  0.0411  1.6704
   6323SM  H11G 8147   4.601   5.644   7.507 -1.2109 -0.5565 -2.4237
   6323SM  C12F 8148   4.393   5.699   7.467  0.8181 -0.3969  0.0124
   6323SM  H12F 8149   4.411   5.807   7.489  0.4237 -0.6539  1.8313
   6323SM  H12G 8150   4.289   5.686   7.506  0.3047  1.5786 -0.5359
   6323SM  C13F 8151   4.408   5.668   7.317 -0.7190  0.6134  0.3551
   6323SM  H13F 8152   4.422   5.558   7.312  1.3867  0.8980 -2.0246
   6323SM  H13G 8153   4.504   5.708   7.278  1.8134 -2.9075  2.3943
   6323SM  C14F 8154   4.279   5.698   7.239  0.5502  0.0539  0.8667
   6323SM  H14F 8155   4.243   5.804   7.241 -0.3103 -0.2188  0.2665
   6323SM  H14G 8156   4.195   5.635   7.276 -0.0648  0.1343 -0.3564
   6323SM  C15F 8157   4.293   5.673   7.086  0.3107  0.1576 -0.1870
   6323SM  H15F 8158   4.335   5.570   7.088  1.7517  0.7101 -0.3627
   6323SM  H15G 8159   4.361   5.753   7.050  0.5619  0.0985  0.1451
   6323SM  C16F 8160   4.165   5.671   7.014  0.0380 -1.0021 -0.2468
   6323SM  H16F 8161   4.129   5.774   7.033 -2.0674 -1.8206  0.5092
   6323SM  H16G 8162   4.095   5.598   7.060  0.3844 -2.3231 -1.7114
   6323SM  C17F 8163   4.168   5.646   6.863 -0.5953  0.2734  0.5513
   6323SM  H17F 8164   4.181   5.540   6.834 -1.7667  1.1804 -4.0714
   6323SM  H17G 8165   4.258   5.699   6.824  1.4010 -1.5930  2.3374
   6323SM  C18F 8166   4.051   5.699   6.774 -0.4958  0.1075  0.6019
   6323SM  H18F 8167   3.960   5.643   6.807 -0.1567 -0.2751  0.8971
   6323SM  H18G 8168   4.071   5.680   6.667 -0.8501 -0.2656  0.5988
   6323SM  C19F 8169   4.030   5.852   6.793  0.1552 -0.0640  0.4466
   6323SM  H19F 8170   4.129   5.900   6.777  0.0495 -0.4011 -1.5772
   6323SM  H19G 8171   3.993   5.868   6.896  0.5383  0.5803  0.4908
   6323SM  C20F 8172   3.933   5.914   6.690 -0.4469  0.0835 -0.2779
   6323SM  H20F 8173   3.850   5.841   6.687  0.9081 -1.4854 -0.9761
   6323SM  H20G 8174   3.970   5.919   6.586 -1.4213  0.9228 -0.6068
   6323SM  C21F 8175   3.890   6.054   6.735  0.2962  0.1683 -0.2114
   6323SM  H21F 8176   3.817   6.083   6.656 -1.0474  0.0183  0.9402
   6323SM  H21G 8177   3.982   6.115   6.746  0.9540 -0.9445  0.6684
   6323SM  C22F 8178   3.829   6.051   6.878  0.0916 -0.0766  0.1337
   6323SM  H22F 8179   3.911   6.047   6.953  0.6897 -0.3392 -0.5266
   6323SM  H22G 8180   3.768   5.958   6.887 -2.9979  1.6478 -1.4562
   6323SM  C23F 8181   3.733   6.160   6.912  0.5868 -0.5885 -0.0889
   6323SM  H23F 8182   3.644   6.149   6.848  0.0106 -1.0018  0.7670
   6323SM  H23G 8183   3.780   6.261   6.904  0.3006 -0.5253 -1.0851
   6323SM  H23H 8184   3.698   6.159   7.018  0.8809  2.3807  0.1238
   6423SM     N 8185   6.273   6.268   8.818  0.3297  0.3153  0.1634
   6423SM   C15 8186   6.270   6.127   8.871  0.4351 -0.1696 -0.3062
   6423SM  H15A 8187   6.264   6.133   8.979 -1.7256  0.0676 -0.3950
   6423SM  H15B 8188   6.351   6.061   8.844  0.2806 -0.3771 -0.2686
   6423SM  H15C 8189   6.172   6.085   8.854 -0.6307  1.6626  0.8715
   6423SM   C14 8190   6.151   6.344   8.864 -0.3857 -0.2992 -0.5098
   6423SM  H14A 8191   6.065   6.319   8.803 -1.8896  2.8351  0.0989
   6423SM  H14B 8192   6.162   6.449   8.840  1.0515 -0.2186  0.3865
   6423SM  H14C 8193   6.125   6.323   8.966 -1.0732  2.0700 -0.1375
   6423SM   C13 8194   6.400   6.330   8.865 -0.0885 -0.0440 -0.0640
   6423SM  H13A 8195   6.481   6.261   8.843 -1.0980 -1.6390  1.0292
   6423SM  H13B 8196   6.403   6.353   8.970  0.4944  1.4748 -0.3898
   6423SM  H13C 8197   6.422   6.421   8.812  1.3505 -0.1376  0.3307
   6423SM   C12 8198   6.271   6.256   8.667 -0.2051 -0.1902 -0.1193
   6423SM  H12A 8199   6.360   6.207   8.632  0.3867 -0.9580  2.2610
   6423SM  H12B 8200   6.277   6.358   8.630 -2.8770  0.0893  0.0419
   6423SM   C11 8201   6.156   6.186   8.600  1.2061  0.0991  0.0661
   6423SM  H11A 8202   6.145   6.080   8.632  1.1620 -0.3604 -1.4378
   6423SM  H11B 8203   6.197   6.183   8.497  0.6498 -1.1191 -0.1390
   6423SM     P 8204   5.991   6.373   8.523 -0.4539  0.1370  0.2386
   6423SM   O13 8205   5.873   6.434   8.587 -0.2468  0.4411  0.5953
   6423SM   O14 8206   6.107   6.461   8.499  0.2343 -0.2653  0.7501
   6423SM   O11 8207   5.947   6.306   8.386  0.0152  0.1327  0.5047
   6423SM   O12 8208   6.032   6.257   8.614  0.1824 -0.4700 -0.3382
   6423SM   C1S 8209   5.824   6.237   8.364 -0.2465 -0.5096 -0.2328
   6423SM   H1S 8210   5.746   6.299   8.412  0.6382  1.0461 -0.7459
   6423SM   H1T 8211   5.821   6.139   8.416  0.9191 -0.8780 -0.8145
   6423SM    NF 8212   5.640   6.183   8.191  0.3366  0.9014 -0.5909
   6423SM   HNF 8213   5.618   6.090   8.163  0.9291 -0.6268  3.4307
   6423SM   C2S 8214   5.782   6.211   8.211 -0.0916 -0.2336  0.0830
   6423SM   H2S 8215   5.800   6.310   8.164 -2.5143  0.2528  0.0483
   6423SM   C3S 8216   5.881   6.116   8.146 -0.2862  0.9239  0.6407
   6423SM   H3S 8217   5.864   6.012   8.181  0.7534  0.9394  1.2171
   6423SM    O3 8218   6.012   6.148   8.174 -0.1801  0.0817  0.0513
   6423SM   HO3 8219   6.005   6.223   8.234 -0.3188  1.4248 -1.5865
   6423SM   C4S 8220   5.853   6.127   7.999  0.1034  0.2117 -0.6867
   6423SM   H4S 8221   5.867   6.228   7.957 -0.0469  0.6590  0.3069
   6423SM   C5S 8222   5.825   6.027   7.925  0.3943 -0.1823 -0.0429
   6423SM   H5S 8223   5.827   5.924   7.963  1.7452 -0.5541 -1.0187
   6423SM   C6S 8224   5.800   6.026   7.778 -0.0340 -0.2896  0.4622
   6423SM   H6S 8225   5.691   6.036   7.759  0.0794 -1.4364 -0.9913
   6423SM   H6T 8226   5.835   5.928   7.739  2.0849  0.2789  0.8034
   6423SM   C7S 8227   5.888   6.128   7.699 -0.3880  0.1787  0.1862
   6423SM   H7S 8228   5.988   6.131   7.746  0.4953  1.0759 -1.6269
   6423SM   H7T 8229   5.851   6.232   7.701  1.4731  0.9702 -2.0738
   6423SM   C8S 8230   5.895   6.095   7.549  0.2432  0.2160  0.0074
   6423SM   H8S 8231   5.929   5.989   7.548 -0.3473 -0.0025  1.1921
   6423SM   H8T 8232   5.970   6.169   7.514 -0.2154  0.0658 -1.3462
   6423SM   C9S 8233   5.758   6.101   7.474  0.1189  0.5514 -0.5336
   6423SM   H9S 8234   5.709   6.199   7.493  1.0937  1.0953 -0.7454
   6423SM   H9T 8235   5.684   6.022   7.498  0.9367 -0.4438 -1.1858
   6423SM  C10S 8236   5.776   6.080   7.320  0.3796  0.8925 -0.2537
   6423SM  H10S 8237   5.827   6.170   7.279  1.9939 -0.6934 -1.9359
   6423SM  H10T 8238   5.674   6.090   7.278  0.2654  2.1009  0.2539
   6423SM  C11S 8239   5.862   5.962   7.278  0.4455 -0.0378  1.1784
   6423SM  H11S 8240   5.858   5.892   7.365 -1.1508 -0.6609  0.6471
   6423SM  H11T 8241   5.966   5.996   7.261 -0.0283  2.0527  2.0892
   6423SM  C12S 8242   5.822   5.895   7.146  0.1238 -0.3106  0.7392
   6423SM  H12S 8243   5.711   5.892   7.138  0.2820 -2.1827 -2.2496
   6423SM  H12T 8244   5.848   5.787   7.152  0.0815 -0.3198  0.7522
   6423SM  C13S 8245   5.888   5.944   7.018  0.3735  0.2680  0.1134
   6423SM  H13S 8246   5.851   5.887   6.930 -0.6955  0.3799  0.4798
   6423SM  H13T 8247   5.999   5.936   7.023  0.3141 -1.2063 -0.5565
   6423SM  C14S 8248   5.845   6.099   6.988 -0.2048  0.3397 -0.3310
   6423SM  H14S 8249   5.869   6.162   7.077 -2.0240  2.2271 -1.1053
   6423SM  H14T 8250   5.735   6.094   7.000  0.1046 -2.0336  3.3643
   6423SM  C15S 8251   5.900   6.154   6.854  0.1660 -0.0171 -0.0472
   6423SM  H15S 8252   6.009   6.132   6.861  0.2397  0.2528 -0.2996
   6423SM  H15T 8253   5.884   6.263   6.838  2.7233  0.5325  0.7335
   6423SM  C16S 8254   5.851   6.079   6.726  0.3717 -0.2491  0.7532
   6423SM  H16S 8255   5.875   5.971   6.729 -2.2961 -0.8943  1.5675
   6423SM  H16T 8256   5.901   6.129   6.640 -0.6862 -1.3449 -0.5541
   6423SM  C17S 8257   5.695   6.089   6.706  0.6169 -0.2860  0.2500
   6423SM  H17S 8258   5.672   6.198   6.713  1.5162  0.2002 -2.8605
   6423SM  H17T 8259   5.644   6.029   6.784 -1.5807 -0.5780 -1.3483
   6423SM  C18S 8260   5.648   6.032   6.574  0.0355  0.9611  0.2140
   6423SM  H18S 8261   5.677   5.924   6.573  2.2452  1.4490 -2.4635
   6423SM  H18T 8262   5.703   6.080   6.490  1.8485 -0.8348  0.2834
   6423SM  H18U 8263   5.538   6.043   6.567 -0.1407 -0.5988  0.1141
   6423SM   C1F 8264   5.541   6.265   8.239  0.5825  0.1719  0.1780
   6423SM    OF 8265   5.562   6.383   8.267 -0.7201  0.7391  0.0582
   6423SM   C2F 8266   5.402   6.207   8.234 -0.2214 -0.1153  0.1121
   6423SM   H2F 8267   5.356   6.256   8.322  0.6883 -2.2245  1.8488
   6423SM   H2G 8268   5.405   6.101   8.265  1.8688 -0.5664 -1.4281
   6423SM   C3F 8269   5.340   6.216   8.096 -0.2211 -0.3285 -0.9729
   6423SM   H3F 8270   5.322   6.323   8.070 -1.8147 -0.0597  1.0021
   6423SM   H3G 8271   5.238   6.173   8.105 -0.0121 -0.7278 -0.4363
   6423SM   C4F 8272   5.423   6.162   7.981 -0.1745  0.3520 -0.1065
   6423SM   H4F 8273   5.451   6.055   7.990 -0.9503  0.1474 -0.0899
   6423SM   H4G 8274   5.523   6.211   7.976 -0.7833  1.8345  1.5602
   6423SM   C5F 8275   5.348   6.178   7.843  0.6145 -0.5441 -0.3929
   6423SM   H5F 8276   5.330   6.284   7.819 -0.0008 -0.5241  0.1279
   6423SM   H5G 8277   5.242   6.150   7.861 -0.0379  0.9310 -1.7933
   6423SM   C6F 8278   5.412   6.101   7.728  0.0565 -0.7825  0.4793
   6423SM   H6F 8279   5.444   6.000   7.761  0.1073 -1.2049 -0.7859
   6423SM   H6G 8280   5.503   6.158   7.700 -0.4875  1.7399  3.2889
   6423SM   C7F 8281   5.317   6.086   7.603  0.0209 -0.2109 -0.3281
   6423SM   H7F 8282   5.276   6.188   7.590  1.3405  0.5221  1.0494
   6423SM   H7G 8283   5.232   6.017   7.623  1.0690 -1.1112  1.2035
   6423SM   C8F 8284   5.386   6.040   7.481  0.0834 -0.3486  0.2240
   6423SM   H8F 8285   5.415   5.936   7.506 -1.5455 -0.8802  0.0072
   6423SM   H8G 8286   5.482   6.094   7.462 -0.7168  1.3231  0.7446
   6423SM   C9F 8287   5.301   6.044   7.356 -0.6999  0.1402 -0.8211
   6423SM   H9F 8288   5.293   6.150   7.324  2.0799  0.7997  0.3971
   6423SM   H9G 8289   5.199   6.009   7.382 -0.1702  0.2950  1.7718
   6423SM  C10F 8290   5.363   5.974   7.237  0.2189 -0.2546  0.1223
   6423SM  H10F 8291   5.379   5.868   7.267  1.3213 -0.8641 -2.3612
   6423SM  H10G 8292   5.461   6.018   7.208 -0.4703  0.7025 -0.8456
   6423SM  C11F 8293   5.282   5.965   7.109 -0.3849 -0.0400  0.3378
   6423SM  H11F 8294   5.251   6.071   7.094  2.6100  0.8407 -0.4672
   6423SM  H11G 8295   5.192   5.901   7.114  0.3836 -1.1748  0.0824
   6423SM  C12F 8296   5.364   5.925   6.987 -0.0107  0.1738 -0.2432
   6423SM  H12F 8297   5.415   5.828   7.008  0.3358  0.7407  1.7095
   6423SM  H12G 8298   5.441   6.000   6.959  0.2174 -0.6874 -2.1227
   6423SM  C13F 8299   5.279   5.902   6.855  0.4661 -0.0925  0.4456
   6423SM  H13F 8300   5.221   5.994   6.830  1.8214  1.0514  1.3174
   6423SM  H13G 8301   5.203   5.824   6.876 -0.7603  0.7976 -0.5090
   6423SM  C14F 8302   5.363   5.836   6.742  0.1664  0.6827  0.3885
   6423SM  H14F 8303   5.403   5.735   6.766 -0.8697  0.3656  0.8485
   6423SM  H14G 8304   5.443   5.908   6.715  1.0738 -0.3674  0.1764
   6423SM  C15F 8305   5.263   5.818   6.622  0.1929 -0.4633 -0.6658
   6423SM  H15F 8306   5.198   5.907   6.609 -0.8727 -1.1681 -0.3071
   6423SM  H15G 8307   5.199   5.731   6.645  0.5501 -0.6082 -0.2033
   6423SM  C16F 8308   5.331   5.773   6.493 -0.8386 -0.6870  0.2100
   6423SM  H16F 8309   5.379   5.680   6.528 -0.6980  0.5416  3.6079
   6423SM  H16G 8310   5.410   5.846   6.465 -0.8579 -0.4942  0.6543
   6423SM  C17F 8311   5.239   5.744   6.380 -0.2460  0.4608  0.5432
   6423SM  H17F 8312   5.299   5.730   6.288 -2.8791 -2.6390 -0.9252
   6423SM  H17G 8313   5.170   5.827   6.355  0.7217  0.7813 -1.2492
   6423SM  C18F 8314   5.157   5.613   6.397 -0.6923 -0.1171  0.6004
   6423SM  H18F 8315   5.069   5.640   6.459 -0.1278  0.1643  1.2884
   6423SM  H18G 8316   5.212   5.537   6.456 -1.8499 -0.0791  1.7765
   6423SM  C19F 8317   5.118   5.542   6.266 -0.2092  0.0902  1.0134
   6423SM  H19F 8318   5.208   5.506   6.212 -0.6042 -0.8904  0.9977
   6423SM  H19G 8319   5.064   5.623   6.213  2.8635  0.9397 -1.0766
   6423SM  C20F 8320   5.026   5.413   6.269  0.1784  0.0639  0.3105
   6423SM  H20F 8321   5.061   5.340   6.345 -2.3926  0.3991  1.9687
   6423SM  H20G 8322   5.042   5.366   6.170  0.2818  0.6579  0.0423
   6423SM  C21F 8323   4.875   5.443   6.285  0.0215  0.1104 -0.4640
   6423SM  H21F 8324   4.842   5.511   6.204 -0.0979  1.8613  0.9830
   6423SM  H21G 8325   4.868   5.499   6.381 -0.5290 -1.1226  0.2400
   6423SM  C22F 8326   4.792   5.317   6.296 -0.5439  0.1403  0.0236
   6423SM  H22F 8327   4.818   5.264   6.202 -1.0281  2.3120 -1.4140
   6423SM  H22G 8328   4.683   5.334   6.282 -0.6632 -0.1568  0.5810
   6423SM  C23F 8329   4.816   5.230   6.419  0.1840 -0.3421  0.2070
   6423SM  H23F 8330   4.919   5.189   6.427  0.7990  1.2566  1.0388
   6423SM  H23G 8331   4.749   5.142   6.418 -0.4292  0.1025  0.9413
   6423SM  H23H 8332   4.781   5.286   6.509  0.2264 -0.9866  0.6244
   6523SM     N 8333   5.336   6.505   9.175  0.2024  0.6523 -0.0615
   6523SM   C15 8334   5.460   6.418   9.158 -0.1253 -0.2124  0.1097
   6523SM  H15A 8335   5.485   6.373   9.253 -2.8134 -0.9341  0.5417
   6523SM  H15B 8336   5.539   6.477   9.113 -0.7078 -0.6029 -1.5307
   6523SM  H15C 8337   5.441   6.339   9.087  0.7335  1.9038 -2.6852
   6523SM   C14 8338   5.221   6.422   9.238 -0.4210 -0.4008 -0.6890
   6523SM  H14A 8339   5.200   6.326   9.192  1.6710 -0.9863 -0.5234
   6523SM  H14B 8340   5.132   6.481   9.255 -0.3640 -0.1790 -1.1248
   6523SM  H14C 8341   5.263   6.396   9.334  1.0479 -0.4878 -1.3317
   6523SM   C13 8342   5.362   6.618   9.272  0.1088 -0.5815 -0.7905
   6523SM  H13A 8343   5.456   6.668   9.253  0.0499 -1.5640 -4.4222
   6523SM  H13B 8344   5.366   6.565   9.366 -1.5194 -2.2239 -1.5782
   6523SM  H13C 8345   5.278   6.684   9.285  0.3153 -0.5515  0.5212
   6523SM   C12 8346   5.283   6.570   9.051 -0.0736  0.4331 -0.1143
   6523SM  H12A 8347   5.191   6.620   9.076 -0.6437  0.3568 -1.9375
   6523SM  H12B 8348   5.257   6.492   8.981  1.6953 -0.6280  0.3457
   6523SM   C11 8349   5.384   6.663   8.982 -0.4096 -0.1946 -0.2816
   6523SM  H11A 8350   5.488   6.622   8.985  0.3705  1.7599  1.9509
   6523SM  H11B 8351   5.405   6.756   9.038  0.6474 -0.4629 -0.1938
   6523SM     P 8352   5.214   6.782   8.827  0.0129  0.0533 -0.8216
   6523SM   O13 8353   5.095   6.700   8.836 -0.3719  0.0017 -0.0679
   6523SM   O14 8354   5.221   6.899   8.914 -0.0028  0.1173 -0.2830
   6523SM   O11 8355   5.225   6.834   8.679 -0.0898  0.0928 -0.2776
   6523SM   O12 8356   5.340   6.687   8.847 -0.5635  0.1886 -0.4676
   6523SM   C1S 8357   5.258   6.736   8.580 -0.6165 -0.0440 -0.0272
   6523SM   H1S 8358   5.200   6.642   8.588 -0.4496 -0.0570  1.1491
   6523SM   H1T 8359   5.366   6.709   8.580 -0.4910  0.0930 -2.9575
   6523SM    NF 8360   5.219   6.707   8.335 -0.6111  0.2667 -0.5645
   6523SM   HNF 8361   5.299   6.705   8.275 -1.4226 -0.9196 -1.6819
   6523SM   C2S 8362   5.229   6.801   8.445  0.2828 -0.1081 -0.3190
   6523SM   H2S 8363   5.132   6.855   8.457 -0.0682 -0.8550  0.3462
   6523SM   C3S 8364   5.342   6.915   8.417  0.0988  0.5783 -0.4348
   6523SM   H3S 8365   5.442   6.865   8.416  0.4020  1.1403  0.4102
   6523SM    O3 8366   5.351   7.010   8.527 -0.0493 -0.3406 -0.0973
   6523SM   HO3 8367   5.296   6.969   8.594  0.5260 -1.1126 -0.0931
   6523SM   C4S 8368   5.318   6.998   8.291 -0.7867 -0.6924 -0.6825
   6523SM   H4S 8369   5.223   7.054   8.293  0.8169  2.1794  0.1517
   6523SM   C5S 8370   5.395   7.010   8.182  0.5456 -0.7067 -0.7791
   6523SM   H5S 8371   5.498   6.971   8.190  0.5241 -0.5797  0.2521
   6523SM   C6S 8372   5.360   7.074   8.056  0.0774 -0.0267 -0.4759
   6523SM   H6S 8373   5.421   7.163   8.032  1.0381 -0.2988  0.8348
   6523SM   H6T 8374   5.250   7.088   8.057 -0.1066 -1.1341 -1.7010
   6523SM   C7S 8375   5.383   6.978   7.941  0.4921 -0.5835  0.2752
   6523SM   H7S 8376   5.316   6.890   7.946  0.3300 -0.6373 -1.8904
   6523SM   H7T 8377   5.489   6.947   7.943  1.1698  1.6124  0.8428
   6523SM   C8S 8378   5.348   7.039   7.807  0.3105 -0.5264  0.4882
   6523SM   H8S 8379   5.394   7.140   7.810 -1.6394  0.3828  0.8760
   6523SM   H8T 8380   5.239   7.044   7.786  1.0066  0.2425 -3.7983
   6523SM   C9S 8381   5.409   6.953   7.688  0.4037 -0.1360 -0.0476
   6523SM   H9S 8382   5.360   6.856   7.667  2.2760 -1.2086  0.3576
   6523SM   H9T 8383   5.512   6.923   7.716 -0.1831 -3.8966 -1.4103
   6523SM  C10S 8384   5.396   7.026   7.551  0.0672 -0.1760 -0.3118
   6523SM  H10S 8385   5.459   7.118   7.548 -0.3937  0.1429 -0.3245
   6523SM  H10T 8386   5.292   7.064   7.546 -0.4156 -1.3846  0.0475
   6523SM  C11S 8387   5.405   6.935   7.423  0.3463  0.3641  0.4381
   6523SM  H11S 8388   5.341   6.852   7.459 -0.4362  0.0907 -1.4939
   6523SM  H11T 8389   5.508   6.892   7.417 -0.4498 -1.6944  0.7050
   6523SM  C12S 8390   5.353   6.994   7.294  0.2537 -0.2288 -0.1279
   6523SM  H12S 8391   5.422   7.080   7.278 -2.2777  2.0523  0.3195
   6523SM  H12T 8392   5.252   7.036   7.319 -0.1516  0.5967 -2.8871
   6523SM  C13S 8393   5.323   6.898   7.169  0.1523  0.3868 -0.0867
   6523SM  H13S 8394   5.405   6.828   7.142  0.5174  0.3823  0.9766
   6523SM  H13T 8395   5.309   6.980   7.095 -2.7564  1.1894  1.2219
   6523SM  C14S 8396   5.186   6.825   7.174 -0.1156 -0.3705  0.1944
   6523SM  H14S 8397   5.149   6.823   7.279  2.4571  0.6359  1.2112
   6523SM  H14T 8398   5.209   6.717   7.161  0.9635 -0.1298  0.0686
   6523SM  C15S 8399   5.079   6.878   7.080  0.7547 -0.1996  0.2576
   6523SM  H15S 8400   5.061   6.985   7.104  0.6795 -0.2134  0.2630
   6523SM  H15T 8401   4.989   6.817   7.101  0.1109  0.8677  0.6726
   6523SM  C16S 8402   5.120   6.854   6.935 -0.3233  0.4660  0.3927
   6523SM  H16S 8403   5.136   6.745   6.919 -2.6387 -0.0904  1.3858
   6523SM  H16T 8404   5.216   6.901   6.904  0.0255 -0.6996 -0.4061
   6523SM  C17S 8405   5.006   6.897   6.835 -0.1816 -0.3170  0.2259
   6523SM  H17S 8406   4.977   7.002   6.853 -1.1036 -0.2341 -1.5173
   6523SM  H17T 8407   4.920   6.829   6.856  1.2328 -2.5144 -0.6636
   6523SM  C18S 8408   5.041   6.880   6.688 -0.1556  0.4417 -0.5843
   6523SM  H18S 8409   4.961   6.913   6.618 -1.1962 -0.3541  0.2172
   6523SM  H18T 8410   5.062   6.775   6.659 -0.4806 -0.2374  1.5213
   6523SM  H18U 8411   5.132   6.944   6.680 -1.7087  3.0833  1.3010
   6523SM   C1F 8412   5.128   6.613   8.317  0.5899  0.4286  0.3839
   6523SM    OF 8413   5.035   6.598   8.394 -0.3514  0.0411  0.3544
   6523SM   C2F 8414   5.133   6.524   8.200  0.0581  0.6400  0.6574
   6523SM   H2F 8415   5.058   6.442   8.203 -0.2886  0.8889 -0.8174
   6523SM   H2G 8416   5.230   6.471   8.207  0.0674  0.6579  0.6593
   6523SM   C3F 8417   5.119   6.601   8.066  0.1229  0.4491  0.6904
   6523SM   H3F 8418   5.199   6.675   8.044  0.7847 -0.3671  0.3205
   6523SM   H3G 8419   5.032   6.669   8.057  0.8240  1.1353 -1.7429
   6523SM   C4F 8420   5.106   6.509   7.944  0.4264  0.4685 -0.0832
   6523SM   H4F 8421   5.016   6.445   7.959 -0.5774  1.5385 -1.2705
   6523SM   H4G 8422   5.191   6.437   7.943 -1.8474 -2.4082  0.2791
   6523SM   C5F 8423   5.088   6.578   7.809  0.4357 -0.0213  0.0613
   6523SM   H5F 8424   5.187   6.627   7.793  0.4891  0.7140  2.2662
   6523SM   H5G 8425   5.010   6.657   7.819 -0.1326 -0.6063  0.2972
   6523SM   C6F 8426   5.046   6.475   7.695 -0.0166  0.1199  0.8861
   6523SM   H6F 8427   4.943   6.435   7.702  0.6763 -1.7778  0.6826
   6523SM   H6G 8428   5.117   6.392   7.713  1.2188  1.0273  0.3472
   6523SM   C7F 8429   5.064   6.528   7.555 -0.5290 -0.0989 -0.5994
   6523SM   H7F 8430   5.160   6.583   7.541 -0.3168  0.5227  2.6798
   6523SM   H7G 8431   4.989   6.607   7.534 -1.3480 -0.5729  0.4334
   6523SM   C8F 8432   5.041   6.420   7.450  0.2129  0.0366 -0.2674
   6523SM   H8F 8433   4.944   6.367   7.448 -1.1832  2.4284  0.5724
   6523SM   H8G 8434   5.112   6.335   7.463  1.7128  1.2354 -0.3579
   6523SM   C9F 8435   5.058   6.480   7.311 -0.6488 -0.4419  0.0396
   6523SM   H9F 8436   5.162   6.519   7.310 -1.2564  1.2295 -0.3024
   6523SM   H9G 8437   4.987   6.564   7.295  2.6734  2.4694 -0.4156
   6523SM  C10F 8438   5.021   6.379   7.198  0.0747  0.4179 -0.6765
   6523SM  H10F 8439   4.915   6.347   7.192 -0.0725  0.5030  1.1552
   6523SM  H10G 8440   5.086   6.290   7.211 -0.2557 -0.5240 -4.3694
   6523SM  C11F 8441   5.072   6.435   7.054  0.2333 -0.4766  0.3185
   6523SM  H11F 8442   5.178   6.468   7.055  0.7349 -2.0058  1.5725
   6523SM  H11G 8443   5.016   6.525   7.022  0.2681 -0.0260  1.4783
   6523SM  C12F 8444   5.056   6.325   6.938  0.3280  0.1063 -0.6495
   6523SM  H12F 8445   4.949   6.296   6.936  0.4814 -0.4483 -1.3303
   6523SM  H12G 8446   5.109   6.234   6.973 -0.8909 -0.5428 -0.4348
   6523SM  C13F 8447   5.108   6.389   6.806 -0.0643  1.1067  0.0836
   6523SM  H13F 8448   5.207   6.434   6.828  0.8666 -1.5462  1.8594
   6523SM  H13G 8449   5.035   6.470   6.783  0.7871  1.1465 -2.8007
   6523SM  C14F 8450   5.115   6.286   6.692  0.6783 -0.0120 -0.5821
   6523SM  H14F 8451   5.016   6.241   6.667  0.6537 -1.2181  1.4651
   6523SM  H14G 8452   5.178   6.206   6.736 -1.1243 -1.4932 -0.5858
   6523SM  C15F 8453   5.187   6.339   6.561  0.0859  0.8085  0.0466
   6523SM  H15F 8454   5.220   6.248   6.507  0.6017  0.9833  0.0610
   6523SM  H15G 8455   5.276   6.402   6.583  0.3037  1.0577 -1.4753
   6523SM  C16F 8456   5.090   6.413   6.467 -0.1543 -0.2878  0.3524
   6523SM  H16F 8457   5.022   6.481   6.522 -0.7845 -0.5979 -0.0269
   6523SM  H16G 8458   5.047   6.324   6.417  4.1481 -1.5076 -1.7634
   6523SM  C17F 8459   5.165   6.491   6.352 -0.1781 -0.2167  0.4931
   6523SM  H17F 8460   5.105   6.500   6.259  0.0886 -0.1351  0.3281
   6523SM  H17G 8461   5.250   6.424   6.330 -1.8560 -3.2084  2.3700
   6523SM  C18F 8462   5.216   6.632   6.392 -0.2294 -0.4132 -0.1898
   6523SM  H18F 8463   5.294   6.636   6.471 -0.3942 -0.3549 -0.0287
   6523SM  H18G 8464   5.130   6.688   6.434  0.2539 -0.6523  1.1733
   6523SM  C19F 8465   5.270   6.711   6.269  0.0350  0.3377 -0.5310
   6523SM  H19F 8466   5.176   6.715   6.210 -0.5573 -0.7767  0.2761
   6523SM  H19G 8467   5.345   6.657   6.207 -1.9701 -0.1239 -2.6841
   6523SM  C20F 8468   5.336   6.851   6.293  0.1953 -0.4261  0.9927
   6523SM  H20F 8469   5.265   6.894   6.367  0.7034  0.2184  1.1037
   6523SM  H20G 8470   5.322   6.914   6.203 -0.0988 -2.2026 -0.2660
   6523SM  C21F 8471   5.483   6.833   6.339 -0.2326  0.1901 -0.1832
   6523SM  H21F 8472   5.530   6.755   6.275 -2.4521 -1.8993  0.5940
   6523SM  H21G 8473   5.490   6.789   6.441  1.7046  0.3369 -0.2004
   6523SM  C22F 8474   5.571   6.959   6.343 -0.1938 -0.3822  0.2521
   6523SM  H22F 8475   5.578   7.001   6.240 -1.9182 -2.4566 -0.7926
   6523SM  H22G 8476   5.673   6.917   6.356  0.4250  0.5499 -1.2649
   6523SM  C23F 8477   5.528   7.062   6.449 -0.4514 -0.8798 -0.3709
   6523SM  H23F 8478   5.426   7.098   6.423 -0.1080  0.7544  0.3881
   6523SM  H23G 8479   5.596   7.150   6.448 -1.4462 -0.0215  1.5028
   6523SM  H23H 8480   5.534   7.017   6.551  0.8838 -0.6655 -0.3378
   6623SM     N 8481   5.080   3.696   8.832 -0.0144 -0.9660 -0.9437
   6623SM   C15 8482   4.964   3.765   8.893  0.2657 -0.2336 -0.4448
   6623SM  H15A 8483   4.938   3.706   8.980 -0.6666 -3.5897 -2.7837
   6623SM  H15B 8484   4.881   3.765   8.825 -0.1097 -0.6743  0.0031
   6623SM  H15C 8485   4.975   3.863   8.937 -1.8158 -0.3092  0.3477
   6623SM   C14 8486   5.194   3.705   8.918 -0.3439 -0.6922 -0.7109
   6623SM  H14A 8487   5.279   3.654   8.875 -1.5107 -0.7362 -3.1432
   6623SM  H14B 8488   5.183   3.663   9.017  3.0604  0.1748  0.1772
   6623SM  H14C 8489   5.242   3.799   8.940 -0.2085 -1.2302  1.4932
   6623SM   C13 8490   5.050   3.551   8.827  0.6450 -0.1828 -0.6881
   6623SM  H13A 8491   5.014   3.510   8.920  2.3600 -0.7605 -0.2418
   6623SM  H13B 8492   5.137   3.499   8.788  0.6314  0.0325 -1.0092
   6623SM  H13C 8493   4.976   3.546   8.748 -0.2238 -1.8621  0.1921
   6623SM   C12 8494   5.101   3.739   8.689  0.3082  0.5110  0.2157
   6623SM  H12A 8495   5.105   3.847   8.689 -2.5732  0.6904  1.0337
   6623SM  H12B 8496   5.013   3.728   8.628  0.3855 -0.4955  0.2822
   6623SM   C11 8497   5.211   3.681   8.604 -0.3570  0.0729  0.9173
   6623SM  H11A 8498   5.303   3.680   8.666 -1.0453  1.8149  2.0341
   6623SM  H11B 8499   5.224   3.752   8.520  4.7548 -0.5391  0.8919
   6623SM     P 8500   5.053   3.506   8.470  0.0066 -0.1295  0.1518
   6623SM   O13 8501   5.054   3.367   8.427  0.5967 -0.0890  0.3843
   6623SM   O14 8502   4.926   3.560   8.526  0.0014  0.0104 -0.6365
   6623SM   O11 8503   5.090   3.604   8.350 -0.2280  0.6486  0.0517
   6623SM   O12 8504   5.178   3.546   8.561 -0.0853  0.0169 -0.0842
   6623SM   C1S 8505   5.197   3.557   8.265  0.5079 -0.1664  0.0622
   6623SM   H1S 8506   5.201   3.446   8.265  2.6422 -0.1460  0.7362
   6623SM   H1T 8507   5.300   3.585   8.298  0.6763 -0.9410  0.2073
   6623SM    NF 8508   5.277   3.505   8.039 -0.1244 -0.4051 -0.2238
   6623SM   HNF 8509   5.375   3.522   8.044  0.0765 -1.6681  0.9113
   6623SM   C2S 8510   5.186   3.591   8.112 -0.4517 -0.1151 -0.8789
   6623SM   H2S 8511   5.080   3.572   8.082 -0.4176 -0.1394 -0.9836
   6623SM   C3S 8512   5.216   3.743   8.093  0.4673  0.5314 -0.5467
   6623SM   H3S 8513   5.319   3.768   8.127 -0.0027 -1.8621  3.3452
   6623SM    O3 8514   5.126   3.817   8.173 -0.1422  0.0555  0.1512
   6623SM   HO3 8515   5.119   3.773   8.258 -1.7327 -0.1118 -0.0389
   6623SM   C4S 8516   5.201   3.786   7.950 -0.3061  0.4127  0.4716
   6623SM   H4S 8517   5.100   3.795   7.909 -1.3508  0.3281  2.8674
   6623SM   C5S 8518   5.309   3.802   7.868  0.6888 -0.6758 -0.0251
   6623SM   H5S 8519   5.413   3.786   7.900  1.9268  0.5611 -3.0204
   6623SM   C6S 8520   5.299   3.826   7.721 -0.0315 -0.2357  0.9828
   6623SM   H6S 8521   5.214   3.896   7.703  0.6016  0.4014  0.4263
   6623SM   H6T 8522   5.277   3.732   7.666  0.2460  1.1269 -1.6339
   6623SM   C7S 8523   5.421   3.875   7.641 -0.0248  0.3833 -0.7950
   6623SM   H7S 8524   5.516   3.822   7.665 -0.2028  0.1322 -0.6347
   6623SM   H7T 8525   5.425   3.983   7.666 -1.7419  0.7119 -1.7342
   6623SM   C8S 8526   5.406   3.860   7.487  0.5948 -0.2726 -0.3960
   6623SM   H8S 8527   5.314   3.914   7.454  0.0931 -1.4165 -0.9358
   6623SM   H8T 8528   5.396   3.750   7.474  0.7565 -0.5781  1.6559
   6623SM   C9S 8529   5.521   3.917   7.406 -0.4659 -0.7119 -0.2706
   6623SM   H9S 8530   5.616   3.868   7.435 -0.0229 -0.2253 -0.8775
   6623SM   H9T 8531   5.529   4.028   7.419 -0.0120 -0.8884  1.1733
   6623SM  C10S 8532   5.494   3.889   7.260  0.9356 -0.0443 -0.1810
   6623SM  H10S 8533   5.485   3.779   7.246  2.7629 -0.7375  2.9448
   6623SM  H10T 8534   5.579   3.932   7.203  1.1622 -0.3723 -0.0941
   6623SM  C11S 8535   5.381   3.970   7.204 -0.0781 -0.1402 -0.0985
   6623SM  H11S 8536   5.388   4.076   7.236 -0.4586 -0.1257 -0.0533
   6623SM  H11T 8537   5.296   3.920   7.255  1.4847 -0.3593  2.4960
   6623SM  C12S 8538   5.382   3.961   7.048 -0.5852  0.3046 -0.3430
   6623SM  H12S 8539   5.364   3.855   7.020  0.2861  0.6083 -2.2120
   6623SM  H12T 8540   5.480   3.991   7.005  0.7405 -2.6608  0.3250
   6623SM  C13S 8541   5.266   4.042   6.986 -0.4283  0.6964 -0.1112
   6623SM  H13S 8542   5.260   4.144   7.030  2.4307  1.7273 -1.8668
   6623SM  H13T 8543   5.169   3.992   7.003  0.4461 -2.0654 -2.5708
   6623SM  C14S 8544   5.292   4.049   6.832 -0.1592 -1.2178 -0.6025
   6623SM  H14S 8545   5.315   3.942   6.813  0.6604 -1.9796  3.6610
   6623SM  H14T 8546   5.382   4.113   6.814 -0.6674  0.8474  3.1465
   6623SM  C15S 8547   5.167   4.103   6.773  0.0601  0.2476 -0.3124
   6623SM  H15S 8548   5.142   4.199   6.824 -1.3916  1.0327 -2.3566
   6623SM  H15T 8549   5.083   4.034   6.798 -2.7066  3.1965 -0.7565
   6623SM  C16S 8550   5.175   4.134   6.623 -0.2008  0.1315 -0.3719
   6623SM  H16S 8551   5.219   4.051   6.564 -1.5191 -0.7355 -0.1941
   6623SM  H16T 8552   5.241   4.222   6.610  0.3138  0.2506  2.4051
   6623SM  C17S 8553   5.029   4.144   6.563 -0.4347  0.2861 -0.1797
   6623SM  H17S 8554   4.978   4.230   6.612 -1.7272 -0.9950  0.8255
   6623SM  H17T 8555   4.980   4.047   6.588 -1.1199  0.1908 -1.7640
   6623SM  C18S 8556   5.022   4.159   6.411  0.3106 -0.4400 -0.0152
   6623SM  H18S 8557   5.079   4.071   6.376  2.0081  0.8278 -0.5805
   6623SM  H18T 8558   5.074   4.252   6.378  1.1899 -0.3044  1.5921
   6623SM  H18U 8559   4.921   4.153   6.367 -0.4135  1.8367  1.1308
   6623SM   C1F 8560   5.249   3.378   8.021 -0.8725  0.0982  0.2268
   6623SM    OF 8561   5.129   3.343   8.033  0.3525  0.2296 -0.2843
   6623SM   C2F 8562   5.363   3.277   8.000  0.2115 -0.0859  0.4816
   6623SM   H2F 8563   5.325   3.175   7.979  1.9137 -0.7181  0.3558
   6623SM   H2G 8564   5.416   3.290   8.096 -1.4806 -0.1441  1.4550
   6623SM   C3F 8565   5.451   3.321   7.881  0.8266 -0.0087  0.1489
   6623SM   H3F 8566   5.549   3.268   7.881  1.2726  0.7877  0.6681
   6623SM   H3G 8567   5.479   3.428   7.889  1.2987 -0.0578 -0.6448
   6623SM   C4F 8568   5.388   3.291   7.745  0.8837  0.4065  0.2300
   6623SM   H4F 8569   5.286   3.335   7.748  1.4027  1.7777 -1.0699
   6623SM   H4G 8570   5.367   3.184   7.723 -1.3813  1.4384 -3.7492
   6623SM   C5F 8571   5.465   3.349   7.629 -0.3711 -0.3192 -0.1982
   6623SM   H5F 8572   5.564   3.299   7.633  0.0073  0.4531  0.3607
   6623SM   H5G 8573   5.481   3.455   7.658 -3.1716  0.1062  0.0248
   6623SM   C6F 8574   5.394   3.344   7.490 -0.6030  0.8431  0.5486
   6623SM   H6F 8575   5.305   3.411   7.491 -1.9708 -0.6167 -3.3231
   6623SM   H6G 8576   5.359   3.240   7.471  0.0913  0.9095 -1.3082
   6623SM   C7F 8577   5.488   3.386   7.376 -0.4214 -0.5803  0.5166
   6623SM   H7F 8578   5.540   3.295   7.340 -1.4172 -1.4283  1.1523
   6623SM   H7G 8579   5.561   3.455   7.423 -0.5395 -0.5529  0.6611
   6623SM   C8F 8580   5.423   3.468   7.262  0.0261 -0.6545  0.6876
   6623SM   H8F 8581   5.379   3.555   7.315 -1.0260 -2.1241  2.3428
   6623SM   H8G 8582   5.345   3.401   7.220  0.1135 -0.7105  0.6123
   6623SM   C9F 8583   5.527   3.510   7.157  0.1535  0.0992  0.3753
   6623SM   H9F 8584   5.587   3.421   7.128  1.1662  1.0321 -0.5043
   6623SM   H9G 8585   5.597   3.585   7.199  1.9910 -1.3375 -0.0134
   6623SM  C10F 8586   5.473   3.566   7.022  0.3313  0.4142 -0.6001
   6623SM  H10F 8587   5.564   3.604   6.971  1.4591 -2.4281 -0.8845
   6623SM  H10G 8588   5.406   3.650   7.052  0.6194  0.0106  1.2868
   6623SM  C11F 8589   5.398   3.456   6.940  0.2092 -0.9329 -0.1773
   6623SM  H11F 8590   5.293   3.446   6.973  0.0539  0.7608 -0.0947
   6623SM  H11G 8591   5.446   3.357   6.956  0.9134 -0.4173  1.0638
   6623SM  C12F 8592   5.403   3.484   6.790  0.5259  0.4171  0.0124
   6623SM  H12F 8593   5.334   3.417   6.734 -0.9506  0.8870  1.1980
   6623SM  H12G 8594   5.510   3.464   6.767  1.0188 -0.3434  2.7063
   6623SM  C13F 8595   5.367   3.628   6.748  0.3617  0.3308 -0.3434
   6623SM  H13F 8596   5.402   3.706   6.819 -1.6563 -0.4219  1.5705
   6623SM  H13G 8597   5.257   3.632   6.765  0.1284  1.4639 -1.8995
   6623SM  C14F 8598   5.394   3.671   6.603 -0.0197  0.2038  0.3977
   6623SM  H14F 8599   5.368   3.575   6.552  1.4186 -0.2033  0.3718
   6623SM  H14G 8600   5.499   3.695   6.573  0.5374 -0.3664  1.8074
   6623SM  C15F 8601   5.298   3.774   6.554  0.3106 -0.1736  0.1594
   6623SM  H15F 8602   5.302   3.874   6.602  0.0935  0.1848 -0.5397
   6623SM  H15G 8603   5.198   3.731   6.576 -0.1226 -0.2193 -1.7147
   6623SM  C16F 8604   5.307   3.806   6.407  0.1334 -0.6406  0.5373
   6623SM  H16F 8605   5.213   3.862   6.386  1.2906  1.6618  1.1442
   6623SM  H16G 8606   5.306   3.708   6.356 -1.0993 -0.4448  0.1519
   6623SM  C17F 8607   5.432   3.888   6.367 -0.0698 -0.2300  0.2800
   6623SM  H17F 8608   5.518   3.824   6.338  1.7562  1.9557  0.6157
   6623SM  H17G 8609   5.466   3.947   6.454  1.9954  1.6214 -1.6311
   6623SM  C18F 8610   5.383   3.982   6.255 -1.0403 -0.2843 -0.0132
   6623SM  H18F 8611   5.326   4.068   6.297 -0.1368  0.0824  0.4973
   6623SM  H18G 8612   5.310   3.926   6.192  0.5008 -3.0279  0.5016
   6623SM  C19F 8613   5.496   4.024   6.164 -0.2931  0.6121  0.5389
   6623SM  H19F 8614   5.552   3.932   6.138  0.7728  1.9240 -2.2321
   6623SM  H19G 8615   5.562   4.093   6.220  0.4257 -0.5420  1.1459
   6623SM  C20F 8616   5.438   4.082   6.034  0.0589 -0.3139  0.6872
   6623SM  H20F 8617   5.369   4.008   5.989 -1.1307 -0.0884  2.0857
   6623SM  H20G 8618   5.524   4.098   5.966 -1.2230  0.3609 -0.8344
   6623SM  C21F 8619   5.378   4.235   6.037 -0.1056 -0.2159 -0.5525
   6623SM  H21F 8620   5.454   4.312   6.011  0.4181 -0.2353  0.8214
   6623SM  H21G 8621   5.342   4.255   6.140  0.2946  0.0432 -0.4583
   6623SM  C22F 8622   5.251   4.248   5.968 -0.0311 -0.3918 -0.0787
   6623SM  H22F 8623   5.282   4.230   5.863 -1.2512 -0.8372 -0.3876
   6623SM  H22G 8624   5.211   4.351   5.981 -1.7585 -1.0787  0.3676
   6623SM  C23F 8625   5.135   4.159   5.994  0.0785 -0.2068  0.6919
   6623SM  H23F 8626   5.047   4.199   5.939  2.1392 -0.7635 -3.3536
   6623SM  H23G 8627   5.112   4.162   6.103  0.1477 -0.1344  0.7047
   6623SM  H23H 8628   5.158   4.058   5.952  2.6526  1.0145 -1.0589
   6723SM     N 8629   3.772   0.995   9.034 -0.0794 -0.2879  0.6249
   6723SM   C15 8630   3.882   1.090   9.081  0.0208  0.1524  0.3480
   6723SM  H15A 8631   3.845   1.190   9.095  1.8125  0.6153  2.2482
   6723SM  H15B 8632   3.968   1.106   9.016 -1.3851  0.6728 -1.4751
   6723SM  H15C 8633   3.910   1.054   9.178 -1.2232  1.5870  1.2742
   6723SM   C14 8634   3.704   0.943   9.156 -0.2690  0.0801  0.0073
   6723SM  H14A 8635   3.691   1.017   9.235  0.4029 -1.1745  1.3339
   6723SM  H14B 8636   3.774   0.874   9.201  0.0564  1.0708  1.0814
   6723SM  H14C 8637   3.612   0.890   9.140 -0.1475 -0.5830  1.4014
   6723SM   C13 8638   3.676   1.062   8.946  0.7374  0.0048  0.3371
   6723SM  H13A 8639   3.617   1.139   8.994 -2.1622 -1.1855 -1.0656
   6723SM  H13B 8640   3.601   0.987   8.923  0.0576  0.5133  0.8388
   6723SM  H13C 8641   3.710   1.097   8.850  1.5874 -0.8647  0.3092
   6723SM   C12 8642   3.840   0.882   8.962 -0.3558 -0.1539  0.5732
   6723SM  H12A 8643   3.784   0.792   8.984 -0.8755 -0.7596 -2.6617
   6723SM  H12B 8644   3.929   0.862   9.019  0.3676  2.3760  0.4393
   6723SM   C11 8645   3.870   0.895   8.813  0.4468  0.1398 -0.3058
   6723SM  H11A 8646   3.774   0.926   8.766  0.8996  2.1231 -0.0140
   6723SM  H11B 8647   3.900   0.795   8.775  2.0200 -0.1940  1.6515
   6723SM     P 8648   4.117   0.966   8.786  0.1246 -0.3496 -0.1447
   6723SM   O13 8649   4.182   1.099   8.782  0.3190  0.4075 -0.3235
   6723SM   O14 8650   4.159   0.873   8.893  0.7832  0.9701  0.5228
   6723SM   O11 8651   4.144   0.896   8.650  0.2561 -0.0323  0.1823
   6723SM   O12 8652   3.967   0.993   8.795  0.1719 -0.1376  0.0940
   6723SM   C1S 8653   4.115   0.962   8.524 -0.3010 -0.2396  0.1255
   6723SM   H1S 8654   4.143   1.070   8.519 -1.1143 -0.0649 -3.9697
   6723SM   H1T 8655   4.009   0.944   8.497  0.0601 -1.4817 -0.5286
   6723SM    NF 8656   4.156   0.972   8.276  0.6287  0.3874 -0.5270
   6723SM   HNF 8657   4.117   0.916   8.203 -2.3320 -1.5513  2.2360
   6723SM   C2S 8658   4.196   0.897   8.404  0.1551 -1.0075  0.0339
   6723SM   H2S 8659   4.305   0.919   8.415  0.2578 -0.6268 -1.4953
   6723SM   C3S 8660   4.174   0.744   8.407 -0.0830  0.1534  0.1420
   6723SM   H3S 8661   4.068   0.716   8.420 -0.4370  1.1268 -0.5142
   6723SM    O3 8662   4.246   0.687   8.522  0.2348 -0.3162 -0.1800
   6723SM   HO3 8663   4.299   0.761   8.552 -1.7035  1.1757 -0.1928
   6723SM   C4S 8664   4.232   0.668   8.284 -0.7856 -0.7162 -0.7333
   6723SM   H4S 8665   4.149   0.648   8.214 -2.2617  1.2848  0.3403
   6723SM   C5S 8666   4.363   0.645   8.253 -0.1370 -0.3267  0.0553
   6723SM   H5S 8667   4.448   0.682   8.312  1.0650 -1.5417 -0.8530
   6723SM   C6S 8668   4.411   0.565   8.139 -0.2509  0.2665  0.4904
   6723SM   H6S 8669   4.464   0.476   8.178 -1.6902 -1.8904 -2.1501
   6723SM   H6T 8670   4.487   0.626   8.087  2.2426 -1.2889  2.1077
   6723SM   C7S 8671   4.299   0.511   8.050  0.0817  0.1673  0.2242
   6723SM   H7S 8672   4.231   0.596   8.029  0.1307 -0.1449 -1.2939
   6723SM   H7T 8673   4.237   0.433   8.101 -0.0003  0.2919  0.3152
   6723SM   C8S 8674   4.343   0.447   7.916 -0.8622 -0.4253 -0.5451
   6723SM   H8S 8675   4.437   0.388   7.921 -0.0657  0.6706 -1.6687
   6723SM   H8T 8676   4.372   0.534   7.852 -1.8951  1.0640  0.9421
   6723SM   C9S 8677   4.233   0.369   7.846  1.1122  0.2300  0.0613
   6723SM   H9S 8678   4.139   0.429   7.850  1.4315  0.6868  1.2964
   6723SM   H9T 8679   4.218   0.278   7.908 -1.5179  0.8006  0.3742
   6723SM  C10S 8680   4.266   0.341   7.702 -0.5763  0.4890 -0.0792
   6723SM  H10S 8681   4.204   0.254   7.673  0.2295 -0.4789  0.9983
   6723SM  H10T 8682   4.373   0.313   7.691 -1.0083 -0.8640 -1.0629
   6723SM  C11S 8683   4.227   0.463   7.614  0.4752 -0.3031 -0.3438
   6723SM  H11S 8684   4.271   0.559   7.648  1.4555 -0.8566 -0.0181
   6723SM  H11T 8685   4.117   0.479   7.616  0.4443 -0.4190  2.1159
   6723SM  C12S 8686   4.263   0.435   7.469  0.2410  0.5576  0.7177
   6723SM  H12S 8687   4.224   0.337   7.432  1.9926 -0.0220  0.3422
   6723SM  H12T 8688   4.374   0.432   7.462  0.1306 -0.9801 -2.0707
   6723SM  C13S 8689   4.199   0.539   7.370  0.3273  0.2319 -0.4430
   6723SM  H13S 8690   4.211   0.639   7.417 -0.9283  0.3679 -0.3933
   6723SM  H13T 8691   4.093   0.512   7.386  1.2222 -3.0314  0.7037
   6723SM  C14S 8692   4.231   0.515   7.226 -0.0079  0.2404  0.2176
   6723SM  H14S 8693   4.208   0.410   7.199  1.1001  0.0989 -0.2195
   6723SM  H14T 8694   4.342   0.523   7.224  0.0038  0.9480  1.8394
   6723SM  C15S 8695   4.161   0.616   7.129  0.3483  0.5391  0.0730
   6723SM  H15S 8696   4.181   0.722   7.157 -0.1947  0.9564 -1.0107
   6723SM  H15T 8697   4.052   0.594   7.135  0.4265 -0.0719 -0.6186
   6723SM  C16S 8698   4.196   0.604   6.982  1.2471  0.1554  0.0546
   6723SM  H16S 8699   4.304   0.583   6.970  1.8151  2.0981  1.3100
   6723SM  H16T 8700   4.160   0.699   6.938 -1.4443 -1.6339 -1.9741
   6723SM  C17S 8701   4.097   0.502   6.927  0.1044 -0.7648  0.6661
   6723SM  H17S 8702   3.988   0.515   6.943  0.1363 -0.0551  0.3482
   6723SM  H17T 8703   4.104   0.406   6.983  0.1755 -2.3545 -1.8708
   6723SM  C18S 8704   4.126   0.481   6.777  0.4996 -0.2419  0.4425
   6723SM  H18S 8705   4.045   0.426   6.724 -1.0596  3.8741 -1.9525
   6723SM  H18T 8706   4.224   0.428   6.777  0.0577 -1.1232  1.9747
   6723SM  H18U 8707   4.142   0.576   6.722  0.4809 -0.8604 -0.6628
   6723SM   C1F 8708   4.182   1.098   8.252  0.3708 -0.2051 -0.5598
   6723SM    OF 8709   4.255   1.172   8.322 -0.0663  0.3909 -0.1820
   6723SM   C2F 8710   4.121   1.152   8.123 -0.6996  0.1474  0.6321
   6723SM   H2F 8711   4.014   1.124   8.121 -0.1915 -1.9074  0.0818
   6723SM   H2G 8712   4.168   1.101   8.036 -0.7155  0.5840  0.3655
   6723SM   C3F 8713   4.139   1.310   8.112 -0.2263  0.0336 -0.0394
   6723SM   H3F 8714   4.249   1.323   8.112 -0.1257 -0.7255 -1.4148
   6723SM   H3G 8715   4.092   1.363   8.198 -2.0176  1.6188 -1.8738
   6723SM   C4F 8716   4.086   1.363   7.981  0.5615 -0.3822 -0.2736
   6723SM   H4F 8717   4.104   1.473   7.980  4.1850 -0.8430 -0.3942
   6723SM   H4G 8718   3.977   1.343   7.978  0.1227  1.1057  2.5359
   6723SM   C5F 8719   4.154   1.309   7.853 -0.2929 -0.0250  0.0843
   6723SM   H5F 8720   4.132   1.201   7.839 -1.0126  0.2538 -1.0876
   6723SM   H5G 8721   4.263   1.328   7.860 -0.0092 -0.5197 -2.1115
   6723SM   C6F 8722   4.098   1.360   7.716  0.3200 -0.2332  0.1840
   6723SM   H6F 8723   4.097   1.471   7.703  1.4131 -0.2826 -0.4352
   6723SM   H6G 8724   3.994   1.321   7.711  0.7014 -1.4187  1.2927
   6723SM   C7F 8725   4.175   1.298   7.590 -0.1256 -0.2691  0.0443
   6723SM   H7F 8726   4.158   1.188   7.597  0.0019 -0.2945 -0.0468
   6723SM   H7G 8727   4.285   1.306   7.594 -0.1533 -0.3137  0.9812
   6723SM   C8F 8728   4.115   1.354   7.465 -0.2599  0.5139 -0.4574
   6723SM   H8F 8729   4.136   1.463   7.470 -0.4308  0.5094  3.2727
   6723SM   H8G 8730   4.006   1.339   7.476 -0.2785  0.9319 -0.0814
   6723SM   C9F 8731   4.172   1.284   7.338  0.8066  0.0389  0.2136
   6723SM   H9F 8732   4.140   1.178   7.333  3.3452 -0.7357 -1.7424
   6723SM   H9G 8733   4.283   1.286   7.347  0.8419  0.4993 -0.2705
   6723SM  C10F 8734   4.130   1.358   7.211 -0.6351 -0.2011  0.0155
   6723SM  H10F 8735   4.155   1.466   7.219 -0.4312 -0.3685  3.0759
   6723SM  H10G 8736   4.020   1.346   7.202 -1.0526  2.9826 -0.0806
   6723SM  C11F 8737   4.176   1.291   7.078  0.1078  0.2931 -0.3929
   6723SM  H11F 8738   4.136   1.188   7.067  1.8030 -0.5043  0.5981
   6723SM  H11G 8739   4.286   1.293   7.094 -0.0610  1.0651  0.8210
   6723SM  C12F 8740   4.146   1.376   6.951  0.2054 -0.1370  0.1623
   6723SM  H12F 8741   4.186   1.477   6.973  0.7808 -0.1024 -0.9616
   6723SM  H12G 8742   4.034   1.374   6.948  0.2077 -0.9926  0.2205
   6723SM  C13F 8743   4.197   1.331   6.814  0.6282  0.4509  0.1726
   6723SM  H13F 8744   4.153   1.236   6.778 -1.9151  2.4467 -2.4504
   6723SM  H13G 8745   4.308   1.334   6.822  0.5915  2.4618  0.6365
   6723SM  C14F 8746   4.167   1.431   6.693  0.5986 -0.5727  0.2206
   6723SM  H14F 8747   4.059   1.433   6.664  1.0649  0.2465 -1.6360
   6723SM  H14G 8748   4.218   1.388   6.604  0.2060  0.2068 -0.3970
   6723SM  C15F 8749   4.236   1.561   6.719 -0.6771 -0.0981  0.2367
   6723SM  H15F 8750   4.337   1.540   6.762 -2.7165 -0.9818  5.3647
   6723SM  H15G 8751   4.179   1.609   6.802  1.6410  0.0695  1.8377
   6723SM  C16F 8752   4.251   1.660   6.595  0.2131  0.1511 -0.2441
   6723SM  H16F 8753   4.306   1.597   6.522  0.5628  0.4442 -0.2366
   6723SM  H16G 8754   4.307   1.749   6.631 -2.1088  1.4195  0.4528
   6723SM  C17F 8755   4.118   1.694   6.535  0.0959 -0.6966  0.4906
   6723SM  H17F 8756   4.037   1.719   6.607 -1.7404  0.6958 -1.8871
   6723SM  H17G 8757   4.076   1.602   6.490  0.3123 -1.7394  2.3239
   6723SM  C18F 8758   4.132   1.801   6.426  0.0005  0.3661  0.4931
   6723SM  H18F 8759   4.165   1.895   6.476  1.4329 -0.1760  0.6029
   6723SM  H18G 8760   4.033   1.800   6.375 -1.9732 -1.4687  3.9840
   6723SM  C19F 8761   4.253   1.774   6.321 -0.4242 -0.3576  1.0248
   6723SM  H19F 8762   4.226   1.683   6.263 -1.2688 -0.3652  1.4097
   6723SM  H19G 8763   4.345   1.762   6.382  0.4798  0.3055 -0.1756
   6723SM  C20F 8764   4.280   1.890   6.222 -0.3627  0.1313 -0.6606
   6723SM  H20F 8765   4.344   1.970   6.265 -2.2087  1.1518  0.3431
   6723SM  H20G 8766   4.180   1.932   6.197 -0.7308  1.0181  1.9763
   6723SM  C21F 8767   4.349   1.857   6.085  0.3284  0.1915 -0.6466
   6723SM  H21F 8768   4.310   1.759   6.051  2.2290 -0.6654 -0.4912
   6723SM  H21G 8769   4.456   1.843   6.114 -0.4975 -2.8458  1.4436
   6723SM  C22F 8770   4.344   1.976   5.988  0.2702  0.2041 -0.6049
   6723SM  H22F 8771   4.387   2.069   6.032  0.0527  0.0777 -0.1221
   6723SM  H22G 8772   4.234   1.993   5.975  0.1324 -0.6839 -0.6398
   6723SM  C23F 8773   4.407   1.937   5.849 -0.8252 -0.2044  0.3151
   6723SM  H23F 8774   4.369   1.836   5.822  0.2074 -0.8389  1.1791
   6723SM  H23G 8775   4.517   1.924   5.857 -0.5787  0.7468 -1.0221
   6723SM  H23H 8776   4.392   2.018   5.774  0.5648  1.3595  1.6392
   6823SM     N 8777   4.123   3.962   8.891 -0.3294  0.2662 -0.0808
   6823SM   C15 8778   4.134   3.954   9.046  0.3207 -0.0768  0.2030
   6823SM  H15A 8779   4.147   3.853   9.080  1.8294  1.0454  3.3515
   6823SM  H15B 8780   4.051   4.000   9.099 -0.5128 -0.7646 -0.4741
   6823SM  H15C 8781   4.224   4.002   9.082  2.8598 -3.5784 -0.9084
   6823SM   C14 8782   4.006   3.878   8.846 -0.3468 -0.7093  0.1604
   6823SM  H14A 8783   3.922   3.905   8.908 -0.1687 -1.9200  0.9436
   6823SM  H14B 8784   4.018   3.775   8.874  0.5969 -0.8826 -0.8180
   6823SM  H14C 8785   3.990   3.895   8.741  0.7005  0.3146  0.1424
   6823SM   C13 8786   4.095   4.106   8.855 -0.3666  0.8050  0.4386
   6823SM  H13A 8787   4.127   4.137   8.757  0.3321 -0.3687  0.2752
   6823SM  H13B 8788   4.148   4.171   8.924  0.5481  0.5985 -0.0480
   6823SM  H13C 8789   3.990   4.130   8.862 -0.0608  2.2288  0.4415
   6823SM   C12 8790   4.251   3.912   8.822  0.2465  0.0407  0.1879
   6823SM  H12A 8791   4.228   3.927   8.718 -1.1158 -0.7765  0.3516
   6823SM  H12B 8792   4.269   3.805   8.826  1.9456  0.3219  1.4431
   6823SM   C11 8793   4.381   3.980   8.860  0.0289  0.5677  0.3191
   6823SM  H11A 8794   4.392   3.974   8.970 -3.2380 -3.8546  0.6914
   6823SM  H11B 8795   4.382   4.089   8.836  3.2717  0.6575  0.5025
   6823SM     P 8796   4.531   3.773   8.841 -0.1131  0.0834  0.1114
   6823SM   O13 8797   4.596   3.797   8.972 -0.2181  0.1645  1.0215
   6823SM   O14 8798   4.421   3.675   8.847 -0.0634  0.7984  0.1436
   6823SM   O11 8799   4.634   3.726   8.729  0.1305 -0.3565  0.1035
   6823SM   O12 8800   4.482   3.913   8.784 -0.6207 -0.6710 -0.1252
   6823SM   C1S 8801   4.573   3.712   8.599  0.1009  0.0378  0.4750
   6823SM   H1S 8802   4.463   3.701   8.596 -0.0429  1.1022  1.1034
   6823SM   H1T 8803   4.613   3.619   8.552 -1.1597  0.0586 -0.6881
   6823SM    NF 8804   4.517   3.828   8.388 -0.0432  0.9184 -0.3020
   6823SM   HNF 8805   4.562   3.802   8.303 -0.2535 -0.7045  0.0532
   6823SM   C2S 8806   4.592   3.838   8.510 -0.6710  0.1425 -0.1996
   6823SM   H2S 8807   4.554   3.924   8.570 -0.4988 -0.0863  0.2408
   6823SM   C3S 8808   4.746   3.861   8.503 -0.0971 -0.7178 -0.4542
   6823SM   H3S 8809   4.789   3.767   8.463  0.8188 -0.4585 -0.1156
   6823SM    O3 8810   4.813   3.889   8.628  0.0188  0.1179  0.0862
   6823SM   HO3 8811   4.754   3.862   8.699  0.3886  2.3187  1.3568
   6823SM   C4S 8812   4.783   3.968   8.404 -0.2617 -0.0812 -0.2052
   6823SM   H4S 8813   4.750   4.065   8.446  2.6348  0.4280  1.1942
   6823SM   C5S 8814   4.846   3.959   8.284  0.1392 -0.3464  0.5293
   6823SM   H5S 8815   4.877   3.864   8.239 -0.2007 -0.0413 -0.3847
   6823SM   C6S 8816   4.874   4.081   8.195 -0.1317  0.4974  0.1289
   6823SM   H6S 8817   4.822   4.068   8.097 -0.1975 -2.3378  0.4575
   6823SM   H6T 8818   4.980   4.069   8.165  0.5098  0.3715  2.2913
   6823SM   C7S 8819   4.837   4.220   8.253 -0.3674  0.4839  0.0627
   6823SM   H7S 8820   4.893   4.226   8.348  0.7926 -0.4652 -0.5452
   6823SM   H7T 8821   4.729   4.240   8.274 -0.0186  0.8421  1.6832
   6823SM   C8S 8822   4.895   4.328   8.166 -0.8723 -0.3083  0.2352
   6823SM   H8S 8823   4.848   4.303   8.069 -0.0072 -1.7224  0.1542
   6823SM   H8T 8824   5.005   4.333   8.159 -0.9132  1.9609  0.4244
   6823SM   C9S 8825   4.848   4.467   8.221 -0.2803 -0.5352  0.2062
   6823SM   H9S 8826   4.871   4.468   8.330 -0.9591 -0.7911  0.3558
   6823SM   H9T 8827   4.738   4.478   8.210  0.0329  1.7922 -1.3526
   6823SM  C10S 8828   4.931   4.587   8.165  0.1598  0.5530 -0.0487
   6823SM  H10S 8829   4.899   4.601   8.060 -0.9242  2.1766  0.4549
   6823SM  H10T 8830   5.033   4.544   8.172  0.0902  0.6511  3.4137
   6823SM  C11S 8831   4.926   4.712   8.244  0.1262  0.4402  0.0763
   6823SM  H11S 8832   4.968   4.706   8.347 -2.5321 -2.4876  1.1606
   6823SM  H11T 8833   4.822   4.732   8.278  0.0676 -0.1172  0.2345
   6823SM  C12S 8834   4.984   4.825   8.165  0.2592 -0.1109  0.5982
   6823SM  H12S 8835   4.898   4.881   8.122  0.1588 -0.8360 -0.1753
   6823SM  H12T 8836   5.043   4.775   8.085 -2.5634 -3.9182  0.6007
   6823SM  C13S 8837   5.068   4.927   8.242 -0.0030 -0.1661 -1.2840
   6823SM  H13S 8838   5.149   4.873   8.295 -0.4444 -1.1850 -1.6236
   6823SM  H13T 8839   4.992   4.953   8.319 -1.4770 -3.4553 -1.4774
   6823SM  C14S 8840   5.114   5.052   8.167  0.0363 -0.4206  0.9502
   6823SM  H14S 8841   5.166   5.017   8.076 -1.1264 -0.1113  0.1418
   6823SM  H14T 8842   5.193   5.102   8.227  0.8425 -0.1076 -0.3399
   6823SM  C15S 8843   4.998   5.151   8.138 -0.2672  0.5507 -0.1134
   6823SM  H15S 8844   4.970   5.203   8.232 -0.8253 -1.9661  1.2047
   6823SM  H15T 8845   4.907   5.098   8.101  0.8676 -0.4192 -1.6601
   6823SM  C16S 8846   5.034   5.246   8.025  0.6080 -0.1203  0.0056
   6823SM  H16S 8847   5.140   5.274   8.042  0.8710 -1.8027  1.4050
   6823SM  H16T 8848   4.982   5.343   8.040  0.1930 -0.5360  1.3390
   6823SM  C17S 8849   5.012   5.169   7.885 -0.7409 -0.4189  0.7308
   6823SM  H17S 8850   4.910   5.127   7.894 -0.8087 -0.0687  1.7452
   6823SM  H17T 8851   5.086   5.086   7.878 -3.3233 -2.7524 -1.2247
   6823SM  C18S 8852   5.021   5.257   7.763  0.4558 -0.5218 -0.5186
   6823SM  H18S 8853   5.001   5.199   7.670  0.2134  0.7628 -1.2997
   6823SM  H18T 8854   5.120   5.308   7.757 -0.2854  1.1888  0.9986
   6823SM  H18U 8855   4.952   5.344   7.758  1.5032  0.2991 -1.2242
   6823SM   C1F 8856   4.384   3.833   8.383  0.1342  0.1576  0.4670
   6823SM    OF 8857   4.309   3.832   8.480 -1.0197  0.5826  0.1565
   6823SM   C2F 8858   4.332   3.860   8.244  0.4897 -0.0838 -0.1215
   6823SM   H2F 8859   4.342   3.767   8.185 -1.0011 -0.4505  0.1738
   6823SM   H2G 8860   4.407   3.927   8.197  0.5812 -1.5737 -2.2062
   6823SM   C3F 8861   4.188   3.919   8.221 -0.4344 -0.2095 -0.6808
   6823SM   H3F 8862   4.185   4.015   8.278  0.7375  0.2855 -1.4229
   6823SM   H3G 8863   4.107   3.852   8.258 -0.0325 -0.4926 -0.3043
   6823SM   C4F 8864   4.165   3.961   8.072 -0.1879  0.1305 -0.4586
   6823SM   H4F 8865   4.247   4.031   8.045  0.1126 -0.1265 -0.2274
   6823SM   H4G 8866   4.066   4.011   8.063 -0.0955 -0.1137 -5.2402
   6823SM   C5F 8867   4.172   3.840   7.974  0.5565  0.2279  0.3836
   6823SM   H5F 8868   4.091   3.767   7.995 -1.2438  1.8253 -0.6402
   6823SM   H5G 8869   4.266   3.782   7.981 -0.7560 -2.5189 -2.2040
   6823SM   C6F 8870   4.159   3.884   7.823 -0.5332  0.1301 -0.1121
   6823SM   H6F 8871   4.100   3.978   7.822  0.2939  0.7500 -3.6293
   6823SM   H6G 8872   4.090   3.809   7.778  1.3163 -1.7470  0.0174
   6823SM   C7F 8873   4.282   3.901   7.744  0.0706 -0.8384  0.5058
   6823SM   H7F 8874   4.350   3.813   7.745  0.0315 -0.8687  0.5059
   6823SM   H7G 8875   4.345   3.985   7.778 -0.6409  0.3979 -1.1055
   6823SM   C8F 8876   4.245   3.924   7.605  1.0553  0.5589 -0.0816
   6823SM   H8F 8877   4.195   4.020   7.580  2.5652  1.0310 -1.5409
   6823SM   H8G 8878   4.173   3.846   7.572  0.6537  0.8959  0.0028
   6823SM   C9F 8879   4.363   3.920   7.499  0.6166 -0.4869  0.3482
   6823SM   H9F 8880   4.403   3.817   7.486 -0.9675 -0.9407 -1.4667
   6823SM   H9G 8881   4.438   3.992   7.536 -0.3043  0.1725  0.9581
   6823SM  C10F 8882   4.308   3.948   7.357  0.0050  0.0976  0.5980
   6823SM  H10F 8883   4.260   4.049   7.352 -0.0865  0.0167 -0.6495
   6823SM  H10G 8884   4.234   3.869   7.331  2.3823 -1.6354 -1.3806
   6823SM  C11F 8885   4.424   3.955   7.257  0.1360  0.4630 -0.3617
   6823SM  H11F 8886   4.507   3.887   7.284 -0.3120  0.3080  0.6611
   6823SM  H11G 8887   4.441   4.065   7.258 -0.4796  0.5690  1.3129
   6823SM  C12F 8888   4.376   3.916   7.117 -0.0171  0.0049 -0.8024
   6823SM  H12F 8889   4.288   3.970   7.077 -0.0217 -1.3946 -2.8804
   6823SM  H12G 8890   4.363   3.806   7.123 -0.6867  0.1542  0.8123
   6823SM  C13F 8891   4.480   3.931   7.014  1.0545  1.1744  0.1711
   6823SM  H13F 8892   4.530   3.833   6.998 -2.3654 -0.5648 -0.8835
   6823SM  H13G 8893   4.546   4.018   7.035  1.5700  0.6906  0.5868
   6823SM  C14F 8894   4.427   3.969   6.871 -0.3661 -0.1301 -0.2576
   6823SM  H14F 8895   4.370   4.064   6.873  0.4382  0.3855 -0.8535
   6823SM  H14G 8896   4.350   3.904   6.824 -0.7751  0.4330 -0.3682
   6823SM  C15F 8897   4.538   3.994   6.765  0.1373  0.0082 -0.0782
   6823SM  H15F 8898   4.620   4.066   6.788  1.1855 -1.6286  1.6116
   6823SM  H15G 8899   4.480   4.041   6.682 -0.9191  2.2324  1.8155
   6823SM  C16F 8900   4.598   3.872   6.701  0.0987  0.1748  0.5680
   6823SM  H16F 8901   4.522   3.820   6.638  0.8143 -2.6023  1.8535
   6823SM  H16G 8902   4.659   3.808   6.767  1.6753  1.2286  0.1807
   6823SM  C17F 8903   4.701   3.910   6.592  0.3054 -0.1023  0.2247
   6823SM  H17F 8904   4.791   3.958   6.637  0.4384 -0.5321  0.4270
   6823SM  H17G 8905   4.656   3.981   6.520  0.3690  1.4650  1.6672
   6823SM  C18F 8906   4.760   3.781   6.524 -0.3043  0.3055 -0.1529
   6823SM  H18F 8907   4.680   3.705   6.509  2.0682 -2.3803 -0.0656
   6823SM  H18G 8908   4.828   3.738   6.600  0.3338  0.5865 -0.5597
   6823SM  C19F 8909   4.834   3.824   6.397  0.0131  0.9177 -0.3690
   6823SM  H19F 8910   4.924   3.878   6.432 -0.6231  0.5896  1.9510
   6823SM  H19G 8911   4.785   3.900   6.333 -0.3860  1.2673  0.3328
   6823SM  C20F 8912   4.866   3.710   6.308  0.3291  0.6857  0.8690
   6823SM  H20F 8913   4.777   3.646   6.289  2.1975 -2.3053  1.5262
   6823SM  H20G 8914   4.940   3.651   6.365 -0.9326 -1.2920  0.5609
   6823SM  C21F 8915   4.940   3.749   6.181 -0.1405  0.4623 -0.3692
   6823SM  H21F 8916   5.024   3.815   6.212 -0.0499  0.1835 -0.0111
   6823SM  H21G 8917   4.888   3.824   6.118  1.9705  2.1721 -0.2092
   6823SM  C22F 8918   4.972   3.626   6.102 -0.1517 -0.2906  0.2067
   6823SM  H22F 8919   4.879   3.568   6.087 -0.9544  1.2487 -1.0213
   6823SM  H22G 8920   5.035   3.561   6.166 -1.7219 -0.4031  1.6974
   6823SM  C23F 8921   5.041   3.668   5.974 -0.5572 -0.0596  0.1436
   6823SM  H23F 8922   5.042   3.594   5.891  1.5609  1.2460 -1.1111
   6823SM  H23G 8923   5.146   3.703   5.983 -0.8883  1.0939 -0.2583
   6823SM  H23H 8924   4.983   3.749   5.926 -0.9419 -0.2484  0.2883
   6923SM     N 8925   5.941   3.757   8.952 -0.3846  0.0526  0.0182
   6923SM   C15 8926   5.889   3.616   8.992 -0.0886 -0.0006  0.3340
   6923SM  H15A 8927   5.970   3.547   9.013  1.3140  1.2971 -0.5574
   6923SM  H15B 8928   5.824   3.582   8.913  0.5635 -2.0874  0.6450
   6923SM  H15C 8929   5.835   3.620   9.085  2.4021 -1.5822  1.9829
   6923SM   C14 8930   5.939   3.846   9.074 -0.4302  0.1598  0.1512
   6923SM  H14A 8931   5.838   3.859   9.110 -0.7436  0.4461 -0.7902
   6923SM  H14B 8932   5.970   3.946   9.048 -1.2034  0.3441 -0.0878
   6923SM  H14C 8933   5.996   3.807   9.157 -1.2509 -1.3035  0.0696
   6923SM   C13 8934   6.083   3.741   8.896  0.1741  0.1115 -0.1999
   6923SM  H13A 8935   6.082   3.703   8.795  1.9538  0.9317 -0.5639
   6923SM  H13B 8936   6.144   3.691   8.971  0.8736  0.4938 -0.4995
   6923SM  H13C 8937   6.127   3.839   8.884  1.4283 -0.2643  1.0577
   6923SM   C12 8938   5.854   3.820   8.849  0.4857  0.0505 -0.2461
   6923SM  H12A 8939   5.887   3.920   8.825  0.2255  0.2231  0.1120
   6923SM  H12B 8940   5.751   3.822   8.883 -0.5181 -0.6757 -3.0045
   6923SM   C11 8941   5.831   3.738   8.719 -0.2390  0.1265  0.2225
   6923SM  H11A 8942   5.928   3.709   8.674 -0.0927 -0.7605  1.0903
   6923SM  H11B 8943   5.792   3.814   8.648  3.2501  1.4696 -0.4763
   6923SM     P 8944   5.593   3.606   8.718 -0.3018  0.0878 -0.0692
   6923SM   O13 8945   5.565   3.462   8.690  0.3068 -0.0997 -0.2321
   6923SM   O14 8946   5.524   3.669   8.833 -0.1149  0.5072  0.2621
   6923SM   O11 8947   5.563   3.698   8.592  0.2050 -0.1341  0.0494
   6923SM   O12 8948   5.747   3.623   8.741  0.3531  0.5023  0.4305
   6923SM   C1S 8949   5.606   3.669   8.458  0.0521  0.1605  0.1079
   6923SM   H1S 8950   5.577   3.569   8.419  0.0332  1.5802 -3.9292
   6923SM   H1T 8951   5.716   3.682   8.456  0.1294  0.2074  2.3676
   6923SM    NF 8952   5.619   3.753   8.227 -0.4203  0.5553 -0.1736
   6923SM   HNF 8953   5.671   3.827   8.184  0.2543 -0.9722 -2.1721
   6923SM   C2S 8954   5.545   3.766   8.351  0.4387  0.3772  0.0325
   6923SM   H2S 8955   5.439   3.736   8.335  0.0350  2.4617 -1.6052
   6923SM   C3S 8956   5.542   3.910   8.396  0.5140  0.5146  0.5866
   6923SM   H3S 8957   5.649   3.931   8.413  1.3021 -0.1522 -2.8635
   6923SM    O3 8958   5.480   3.943   8.515  0.0684 -0.4392 -0.1376
   6923SM   HO3 8959   5.501   3.868   8.571 -1.6527  0.0952  1.3379
   6923SM   C4S 8960   5.511   4.013   8.290  0.0944 -0.3323 -0.1267
   6923SM   H4S 8961   5.601   4.027   8.228 -0.6072 -0.2085 -1.1321
   6923SM   C5S 8962   5.401   4.076   8.249 -0.1319  0.2525 -0.6154
   6923SM   H5S 8963   5.305   4.053   8.298  0.9179 -0.2131  1.3552
   6923SM   C6S 8964   5.392   4.182   8.145 -0.6449  0.1087  0.8537
   6923SM   H6S 8965   5.483   4.173   8.083 -2.8087 -0.4504 -2.5209
   6923SM   H6T 8966   5.395   4.288   8.178  0.4162  0.7097 -1.0046
   6923SM   C7S 8967   5.264   4.168   8.065  0.4671  0.0705  0.1189
   6923SM   H7S 8968   5.178   4.194   8.130  0.4585 -0.9978  0.5503
   6923SM   H7T 8969   5.246   4.061   8.040 -2.2844  0.2994  0.7671
   6923SM   C8S 8970   5.261   4.254   7.934  0.1829 -0.4195 -0.1926
   6923SM   H8S 8971   5.360   4.247   7.884  0.5367 -0.1098  0.4504
   6923SM   H8T 8972   5.247   4.363   7.946 -0.3560 -0.5094  0.0471
   6923SM   C9S 8973   5.158   4.201   7.832 -0.6580 -0.3296  0.0840
   6923SM   H9S 8974   5.053   4.214   7.866 -0.3084 -2.1988  2.0759
   6923SM   H9T 8975   5.181   4.092   7.825 -0.6437 -0.3130 -0.1456
   6923SM  C10S 8976   5.171   4.256   7.685 -0.3455  0.2303 -0.4910
   6923SM  H10S 8977   5.271   4.227   7.644 -0.5166 -1.3696  0.1427
   6923SM  H10T 8978   5.164   4.366   7.680 -2.7800  0.0818 -1.2479
   6923SM  C11S 8979   5.059   4.201   7.592  1.2592  0.7560 -0.1660
   6923SM  H11S 8980   4.956   4.227   7.626  0.5357 -0.2196 -1.5177
   6923SM  H11T 8981   5.052   4.091   7.594 -1.4632  0.8548  0.1141
   6923SM  C12S 8982   5.080   4.236   7.443  0.9309 -0.2865 -0.1861
   6923SM  H12S 8983   5.000   4.194   7.379 -0.4157 -0.0274  1.2474
   6923SM  H12T 8984   5.176   4.193   7.408  0.6249 -1.5177  0.4373
   6923SM  C13S 8985   5.078   4.388   7.433 -0.0383  0.6181  0.3189
   6923SM  H13S 8986   5.160   4.428   7.497  0.2887  0.2017  0.1654
   6923SM  H13T 8987   4.986   4.421   7.485 -1.8558  0.2247 -2.4150
   6923SM  C14S 8988   5.094   4.436   7.294 -0.4256  0.0321 -0.4152
   6923SM  H14S 8989   5.006   4.389   7.245 -0.2637  0.4225 -1.0962
   6923SM  H14T 8990   5.182   4.399   7.238  0.5713 -0.8263  1.6127
   6923SM  C15S 8991   5.084   4.589   7.264  0.0163  0.3622  0.1017
   6923SM  H15S 8992   5.015   4.645   7.331  0.0206 -0.5915  0.9448
   6923SM  H15T 8993   5.039   4.608   7.165 -0.7577  2.6196  0.8156
   6923SM  C16S 8994   5.223   4.656   7.281  0.4083  0.2640 -0.0753
   6923SM  H16S 8995   5.301   4.616   7.212  1.4519  2.5056 -0.2910
   6923SM  H16T 8996   5.257   4.647   7.386 -0.5304  0.3235  0.2395
   6923SM  C17S 8997   5.217   4.807   7.252 -0.0234  0.4147  0.4633
   6923SM  H17S 8998   5.317   4.852   7.264 -1.3112  3.4893  0.5914
   6923SM  H17T 8999   5.153   4.867   7.321 -0.7823 -0.9299  0.9746
   6923SM  C18S 9000   5.178   4.826   7.100  0.5525  0.2070 -0.0906
   6923SM  H18S 9001   5.202   4.931   7.072  1.5103  0.3610  1.2263
   6923SM  H18T 9002   5.071   4.801   7.087  0.8258 -0.1904 -1.8807
   6923SM  H18U 9003   5.242   4.759   7.038  2.3879  0.2239  1.6961
   6923SM   C1F 9004   5.620   3.643   8.157 -0.2529  0.1846  0.4923
   6923SM    OF 9005   5.548   3.548   8.168 -0.6302 -0.4652 -0.0975
   6923SM   C2F 9006   5.705   3.657   8.034  0.2197  0.3682 -0.1048
   6923SM   H2F 9007   5.789   3.728   8.050  0.2078 -0.2152  3.2862
   6923SM   H2G 9008   5.651   3.696   7.945  0.9148  0.1453 -0.6416
   6923SM   C3F 9009   5.771   3.522   7.991 -0.4708 -0.0258  0.1202
   6923SM   H3F 9010   5.695   3.444   7.971 -0.2095 -0.5462  1.0929
   6923SM   H3G 9011   5.826   3.480   8.078 -0.4209  0.2218  0.2100
   6923SM   C4F 9012   5.862   3.538   7.873  0.2010  0.4848  0.2223
   6923SM   H4F 9013   5.901   3.437   7.850  0.5314  0.9736 -1.5073
   6923SM   H4G 9014   5.944   3.612   7.881  0.4239  0.1375  1.2839
   6923SM   C5F 9015   5.786   3.591   7.750 -0.0035 -0.2790  0.2895
   6923SM   H5F 9016   5.755   3.694   7.776  1.5470  0.7777 -1.6853
   6923SM   H5G 9017   5.706   3.523   7.714  0.9329 -1.2771  0.0464
   6923SM   C6F 9018   5.884   3.606   7.630 -0.1970  0.2211  0.1947
   6923SM   H6F 9019   5.925   3.505   7.610 -1.9910 -0.5910  0.3881
   6923SM   H6G 9020   5.969   3.662   7.674  2.8344 -3.9260  0.1790
   6923SM   C7F 9021   5.829   3.690   7.512  0.8726 -0.2420 -0.6491
   6923SM   H7F 9022   5.841   3.797   7.540  0.5526 -0.3603 -0.0300
   6923SM   H7G 9023   5.722   3.659   7.503  0.9439 -1.6367  2.1497
   6923SM   C8F 9024   5.891   3.657   7.384  0.3958  0.4319  0.2603
   6923SM   H8F 9025   5.881   3.547   7.372 -0.6633  0.6961 -1.7964
   6923SM   H8G 9026   5.999   3.680   7.398  0.1318  0.0338  3.8292
   6923SM   C9F 9027   5.839   3.730   7.262 -0.0165  0.0350  0.3752
   6923SM   H9F 9028   5.885   3.831   7.270  1.7569 -0.7107  0.2144
   6923SM   H9G 9029   5.729   3.724   7.271  0.0422 -0.3213  0.8849
   6923SM  C10F 9030   5.878   3.654   7.129  0.4007  0.0762  0.6869
   6923SM  H10F 9031   5.816   3.562   7.133 -2.3233  1.7255 -0.8262
   6923SM  H10G 9032   5.985   3.624   7.121  0.3754  0.0265  0.5421
   6923SM  C11F 9033   5.836   3.739   7.008  0.1435 -0.0420 -0.6194
   6923SM  H11F 9034   5.904   3.826   6.991  0.3791 -0.1272 -0.1502
   6923SM  H11G 9035   5.731   3.771   7.023  0.7032  0.8568  1.8724
   6923SM  C12F 9036   5.856   3.659   6.876  0.2636  0.9573 -0.7581
   6923SM  H12F 9037   5.804   3.561   6.880  1.0510  0.3014 -3.9090
   6923SM  H12G 9038   5.963   3.635   6.860  0.3394 -0.4722  1.4062
   6923SM  C13F 9039   5.785   3.717   6.759  0.2127 -0.2956 -0.1519
   6923SM  H13F 9040   5.824   3.820   6.748  2.7876 -1.3500 -1.5757
   6923SM  H13G 9041   5.674   3.714   6.758  0.1895  0.1227 -1.8086
   6923SM  C14F 9042   5.843   3.664   6.621 -0.2153  0.2157 -0.7828
   6923SM  H14F 9043   5.835   3.555   6.602  2.7932 -0.3580  0.5831
   6923SM  H14G 9044   5.952   3.689   6.621  0.0527 -0.8681  0.1976
   6923SM  C15F 9045   5.791   3.759   6.511  0.5366  0.1624  0.2755
   6923SM  H15F 9046   5.780   3.859   6.558  1.1344 -0.2065  1.2304
   6923SM  H15G 9047   5.681   3.751   6.495 -0.0871  1.2081  3.3488
   6923SM  C16F 9048   5.862   3.733   6.378  0.0030  0.6811 -0.7484
   6923SM  H16F 9049   5.830   3.627   6.364  0.9077  0.0998  1.1995
   6923SM  H16G 9050   5.973   3.730   6.377  0.0127  0.9762 -0.4682
   6923SM  C17F 9051   5.822   3.818   6.263  0.4630 -0.1159  0.0152
   6923SM  H17F 9052   5.722   3.786   6.228 -0.1256  0.7704  0.8161
   6923SM  H17G 9053   5.894   3.810   6.178  2.0556  1.6186  1.0984
   6923SM  C18F 9054   5.820   3.968   6.297 -0.2031  0.5490  0.1978
   6923SM  H18F 9055   5.892   3.982   6.380 -1.0564  2.4742  0.6800
   6923SM  H18G 9056   5.722   3.990   6.344  0.6143  2.3419  1.1852
   6923SM  C19F 9057   5.842   4.062   6.183  0.0761  0.3222  0.4005
   6923SM  H19F 9058   5.765   4.033   6.108  0.2942  1.6950 -0.3941
   6923SM  H19G 9059   5.938   4.042   6.133 -1.2724  0.2515 -2.3465
   6923SM  C20F 9060   5.840   4.211   6.225 -0.4199 -0.0282  0.3136
   6923SM  H20F 9061   5.914   4.225   6.307 -3.2948 -2.0998  3.5872
   6923SM  H20G 9062   5.741   4.221   6.275  0.0037 -0.7639  1.3588
   6923SM  C21F 9063   5.856   4.298   6.100  0.0356  0.2571 -0.5799
   6923SM  H21F 9064   5.771   4.272   6.033 -1.8398  1.5759  1.1212
   6923SM  H21G 9065   5.954   4.274   6.055 -0.6992 -0.5661 -1.8134
   6923SM  C22F 9066   5.842   4.449   6.127 -0.0995  0.0009 -0.3624
   6923SM  H22F 9067   5.885   4.470   6.227 -2.1494 -2.8212  1.2392
   6923SM  H22G 9068   5.734   4.472   6.136  0.0711  1.5818 -1.8177
   6923SM  C23F 9069   5.895   4.536   6.017  0.6586  0.4077  0.2558
   6923SM  H23F 9070   6.005   4.526   6.005  0.5333 -1.1313  0.2555
   6923SM  H23G 9071   5.871   4.640   6.049 -1.4505  0.1922 -0.4636
   6923SM  H23H 9072   5.852   4.527   5.915  1.2534  3.4323 -0.3574
   7023SM     N 9073   5.331   2.732   9.179  0.6667 -0.1783 -0.1907
   7023SM   C15 9074   5.390   2.767   9.308  0.0935 -0.2520  0.1208
   7023SM  H15A 9075   5.341   2.852   9.355 -0.3999 -0.4973  0.0625
   7023SM  H15B 9076   5.497   2.774   9.302  0.3663 -2.0730  2.0199
   7023SM  H15C 9077   5.370   2.696   9.387  0.0955 -0.5820 -0.1747
   7023SM   C14 9078   5.386   2.608   9.117  0.1037 -0.4548 -0.3495
   7023SM  H14A 9079   5.377   2.521   9.180 -4.5695 -0.6586 -0.9449
   7023SM  H14B 9080   5.490   2.626   9.093  0.3620 -1.5095 -0.0650
   7023SM  H14C 9081   5.335   2.591   9.023  0.4279  0.8886 -0.7894
   7023SM   C13 9082   5.183   2.714   9.197 -0.3605  0.0443 -0.1901
   7023SM  H13A 9083   5.160   2.630   9.261 -0.5704  1.4105  1.5847
   7023SM  H13B 9084   5.128   2.698   9.105  2.9332 -0.2700 -2.2599
   7023SM  H13C 9085   5.132   2.802   9.234 -2.2620 -1.2156  0.3435
   7023SM   C12 9086   5.363   2.847   9.081  0.2154 -0.7247  0.1760
   7023SM  H12A 9087   5.469   2.865   9.069  0.0349 -0.1449 -0.6155
   7023SM  H12B 9088   5.332   2.936   9.133 -2.1380 -1.8389  0.8405
   7023SM   C11 9089   5.303   2.836   8.935 -0.4959 -0.3769 -0.0015
   7023SM  H11A 9090   5.332   2.928   8.882  0.7332 -1.1275 -0.6685
   7023SM  H11B 9091   5.193   2.824   8.950 -0.6347  0.6790 -0.1128
   7023SM     P 9092   5.284   2.650   8.767  0.1449 -0.1840 -0.1938
   7023SM   O13 9093   5.367   2.579   8.665 -0.0229 -0.2940 -0.1827
   7023SM   O14 9094   5.195   2.567   8.852 -0.3009  0.2639 -0.3932
   7023SM   O11 9095   5.196   2.759   8.690 -1.0549 -0.1621  0.2599
   7023SM   O12 9096   5.372   2.740   8.861 -0.9799  0.4742  0.2853
   7023SM   C1S 9097   5.280   2.856   8.613 -0.2712  0.5452  0.3524
   7023SM   H1S 9098   5.387   2.826   8.601  0.0378  2.0063 -0.7590
   7023SM   H1T 9099   5.267   2.957   8.657 -2.0175  0.8028 -0.6708
   7023SM    NF 9100   5.345   2.945   8.388  0.9965  0.1219 -0.2685
   7023SM   HNF 9101   5.314   3.036   8.362 -0.0416 -0.7577 -2.3518
   7023SM   C2S 9102   5.244   2.867   8.465 -0.0220  0.4344  0.4227
   7023SM   H2S 9103   5.256   2.766   8.420  2.4000  0.1854  1.5073
   7023SM   C3S 9104   5.098   2.909   8.442  0.0473  0.4181  0.1378
   7023SM   H3S 9105   5.104   3.017   8.469  2.1328  0.1096  1.1239
   7023SM    O3 9106   5.016   2.840   8.542  0.2969 -0.5980 -0.2640
   7023SM   HO3 9107   5.072   2.802   8.610 -0.7001 -4.4836 -1.3327
   7023SM   C4S 9108   5.035   2.887   8.308 -0.2744  0.4481 -0.2543
   7023SM   H4S 9109   5.044   2.790   8.257  2.3561  1.5793 -2.1942
   7023SM   C5S 9110   4.979   2.984   8.233 -0.0464  0.0247 -0.0574
   7023SM   H5S 9111   4.987   3.091   8.257 -0.1862  0.0256 -0.0146
   7023SM   C6S 9112   4.909   2.946   8.103 -0.2151  0.3364 -1.0034
   7023SM   H6S 9113   4.805   2.984   8.116  0.0476  0.6417  0.3707
   7023SM   H6T 9114   4.907   2.836   8.092 -1.6988  0.3042 -0.6243
   7023SM   C7S 9115   4.967   3.024   7.975  0.9328  0.1610 -0.5707
   7023SM   H7S 9116   5.078   3.022   7.986  1.2777  2.6773 -2.4997
   7023SM   H7T 9117   4.941   3.131   7.989 -0.1910 -0.2393  0.5881
   7023SM   C8S 9118   4.900   2.982   7.837 -0.7655  0.4507  0.3357
   7023SM   H8S 9119   4.801   3.033   7.844 -0.2494  1.3995  1.0223
   7023SM   H8T 9120   4.886   2.872   7.830  2.5188  0.0850 -3.5979
   7023SM   C9S 9121   4.987   3.040   7.724  0.1353 -0.1878  0.1483
   7023SM   H9S 9122   5.068   2.977   7.681 -1.1942  0.0060 -2.8980
   7023SM   H9T 9123   5.026   3.140   7.753 -0.0716 -0.3704  1.0848
   7023SM  C10S 9124   4.906   3.061   7.591  0.0607  0.0618  0.0678
   7023SM  H10S 9125   4.799   3.080   7.616 -0.1073 -0.7327 -0.0194
   7023SM  H10T 9126   4.902   2.959   7.549  1.0917  0.7922 -1.9344
   7023SM  C11S 9127   4.947   3.160   7.481 -0.5493 -0.2948 -0.0738
   7023SM  H11S 9128   5.040   3.119   7.435  0.1351  0.4918  0.5728
   7023SM  H11T 9129   4.960   3.266   7.510  0.2781 -0.3247 -0.2883
   7023SM  C12S 9130   4.844   3.165   7.370  0.0674  0.5845  0.4467
   7023SM  H12S 9131   4.751   3.190   7.427  0.9710  0.6933  1.9453
   7023SM  H12T 9132   4.818   3.065   7.331 -0.5765  0.4050  1.3061
   7023SM  C13S 9133   4.878   3.273   7.264 -0.1111 -0.0140 -0.5221
   7023SM  H13S 9134   4.959   3.227   7.204 -0.4323  0.8641 -1.6637
   7023SM  H13T 9135   4.925   3.361   7.313  2.0968 -1.3117 -0.2135
   7023SM  C14S 9136   4.755   3.305   7.173  0.0610 -0.0898 -0.1555
   7023SM  H14S 9137   4.799   3.386   7.112 -1.0172  1.9119  1.6060
   7023SM  H14T 9138   4.673   3.338   7.241  1.1613 -0.0342  1.2035
   7023SM  C15S 9139   4.713   3.184   7.082  0.0435 -0.2908  0.1008
   7023SM  H15S 9140   4.670   3.106   7.148 -1.9706  1.0397  0.4578
   7023SM  H15T 9141   4.806   3.142   7.039  0.8335  1.2707  0.2425
   7023SM  C16S 9142   4.602   3.207   6.978 -0.5862 -0.3797 -0.1582
   7023SM  H16S 9143   4.631   3.308   6.941 -1.7940 -0.6195 -1.8980
   7023SM  H16T 9144   4.498   3.221   7.014 -0.2169 -0.2073  0.8659
   7023SM  C17S 9145   4.603   3.099   6.869 -0.8042  0.6911 -0.2218
   7023SM  H17S 9146   4.575   3.004   6.920 -1.9723  1.6208  0.9397
   7023SM  H17T 9147   4.702   3.098   6.818 -0.1458  0.2236  1.0172
   7023SM  C18S 9148   4.500   3.131   6.771 -0.4303  0.4392  0.4203
   7023SM  H18S 9149   4.403   3.145   6.824 -0.5769  3.4485 -0.4950
   7023SM  H18T 9150   4.473   3.062   6.688  0.0674  2.0964 -1.1900
   7023SM  H18U 9151   4.510   3.236   6.738  1.8423  0.0612 -0.2448
   7023SM   C1F 9152   5.473   2.916   8.365  0.1630  0.6344  0.3506
   7023SM    OF 9153   5.526   2.812   8.400 -0.5799 -0.4534 -0.3588
   7023SM   C2F 9154   5.558   3.031   8.312 -0.6813 -0.5287 -0.6133
   7023SM   H2F 9155   5.565   3.107   8.392 -2.2082 -1.4307  0.4304
   7023SM   H2G 9156   5.502   3.089   8.235 -1.1265  1.6631  1.2459
   7023SM   C3F 9157   5.691   2.982   8.249  0.6599  0.4959 -0.3821
   7023SM   H3F 9158   5.672   2.881   8.206 -1.9794  0.4114  0.7782
   7023SM   H3G 9159   5.757   2.964   8.336 -0.0363 -1.7973 -0.2717
   7023SM   C4F 9160   5.777   3.072   8.154 -0.5192  0.8454  0.3934
   7023SM   H4F 9161   5.885   3.050   8.168 -0.6609  1.7247  3.5660
   7023SM   H4G 9162   5.768   3.172   8.201 -0.8923 -0.1898  2.6540
   7023SM   C5F 9163   5.737   3.053   8.002 -0.4981 -0.6146 -0.4096
   7023SM   H5F 9164   5.628   3.067   7.988 -0.8006 -0.5225  1.7098
   7023SM   H5G 9165   5.749   2.945   7.976 -1.1777 -1.2923  1.8449
   7023SM   C6F 9166   5.812   3.144   7.897  0.0949  0.4754  0.6103
   7023SM   H6F 9167   5.922   3.139   7.909  0.5060  2.9572 -1.2440
   7023SM   H6G 9168   5.792   3.249   7.928  1.8739  0.6578  1.2294
   7023SM   C7F 9169   5.773   3.109   7.752 -0.0158  0.5620 -0.2502
   7023SM   H7F 9170   5.668   3.143   7.734  0.0457  0.4466 -0.8551
   7023SM   H7G 9171   5.785   2.999   7.740 -2.0062  0.1940  0.6905
   7023SM   C8F 9172   5.850   3.181   7.643  0.6104 -0.3012  0.1677
   7023SM   H8F 9173   5.958   3.154   7.648  1.0594  1.4778  1.1467
   7023SM   H8G 9174   5.835   3.291   7.655 -0.7632 -0.3812 -0.7161
   7023SM   C9F 9175   5.791   3.140   7.505 -0.4410 -0.3885 -0.3855
   7023SM   H9F 9176   5.681   3.147   7.518 -0.8802 -0.9944 -3.2113
   7023SM   H9G 9177   5.818   3.033   7.491 -1.6193 -0.7119 -0.2988
   7023SM  C10F 9178   5.834   3.213   7.378 -0.3556  0.3458  0.6500
   7023SM  H10F 9179   5.945   3.217   7.380 -0.2519 -1.5229  0.0173
   7023SM  H10G 9180   5.803   3.319   7.365 -1.4650 -0.3205 -3.5868
   7023SM  C11F 9181   5.795   3.134   7.251  0.3454  0.1530 -0.0906
   7023SM  H11F 9182   5.684   3.138   7.247  0.3306 -0.7175 -1.5405
   7023SM  H11G 9183   5.829   3.029   7.263 -2.8183 -1.0045 -0.1791
   7023SM  C12F 9184   5.855   3.189   7.125  0.2303 -0.0772  0.8722
   7023SM  H12F 9185   5.950   3.139   7.097  0.3986  0.6863  0.0079
   7023SM  H12G 9186   5.876   3.297   7.136 -0.8283  0.3166 -0.6484
   7023SM  C13F 9187   5.750   3.182   7.011  0.4586  0.3674 -0.4478
   7023SM  H13F 9188   5.665   3.248   7.037  0.2354  0.1639 -0.6517
   7023SM  H13G 9189   5.719   3.075   7.008 -1.1455  0.8342 -1.3723
   7023SM  C14F 9190   5.805   3.219   6.869  0.2210  0.2754  0.4167
   7023SM  H14F 9191   5.893   3.153   6.853  0.1722 -0.2346  2.0595
   7023SM  H14G 9192   5.847   3.322   6.868 -1.4812  1.0478 -1.9316
   7023SM  C15F 9193   5.707   3.206   6.757 -0.5703  0.5189  0.2655
   7023SM  H15F 9194   5.614   3.262   6.780  0.0843  1.7430  0.0291
   7023SM  H15G 9195   5.678   3.099   6.749  0.8214  0.2209 -1.8299
   7023SM  C16F 9196   5.761   3.236   6.612  0.1895 -0.8009 -0.0646
   7023SM  H16F 9197   5.854   3.183   6.584  0.2608 -0.0974 -1.2261
   7023SM  H16G 9198   5.800   3.340   6.617  1.7481 -1.0209 -3.9141
   7023SM  C17F 9199   5.663   3.232   6.491 -0.4177  0.2399  0.8900
   7023SM  H17F 9200   5.574   3.296   6.510  0.6609  1.5389  1.7734
   7023SM  H17G 9201   5.634   3.127   6.473  1.3268 -0.1122 -0.1835
   7023SM  C18F 9202   5.739   3.288   6.372  0.5755  0.1036  0.0042
   7023SM  H18F 9203   5.832   3.228   6.365 -0.1563 -1.0130 -0.6167
   7023SM  H18G 9204   5.752   3.397   6.388 -0.6162  0.3324 -0.4816
   7023SM  C19F 9205   5.668   3.277   6.227 -0.2754  0.3473 -0.7416
   7023SM  H19F 9206   5.576   3.339   6.236 -0.0597  0.4209  1.8328
   7023SM  H19G 9207   5.640   3.172   6.207  1.3824 -0.1906 -0.4128
   7023SM  C20F 9208   5.760   3.335   6.120 -0.4083 -0.3079 -0.3099
   7023SM  H20F 9209   5.856   3.280   6.123 -0.0581  0.3273  2.1129
   7023SM  H20G 9210   5.782   3.442   6.136  0.9555 -0.6679  0.3724
   7023SM  C21F 9211   5.693   3.324   5.986 -0.0237  0.0330  0.0496
   7023SM  H21F 9212   5.591   3.369   5.988 -0.0800 -0.0962  1.2814
   7023SM  H21G 9213   5.676   3.221   5.950 -0.5860  1.0987 -2.9812
   7023SM  C22F 9214   5.775   3.395   5.874  0.4595 -0.4822 -0.0927
   7023SM  H22F 9215   5.877   3.351   5.878  0.5661 -0.3891 -1.3067
   7023SM  H22G 9216   5.782   3.505   5.890 -1.4955 -0.0795 -1.5220
   7023SM  C23F 9217   5.713   3.382   5.732 -0.2193  0.0220 -0.2749
   7023SM  H23F 9218   5.759   3.445   5.653 -0.0524  0.3751  0.1001
   7023SM  H23G 9219   5.607   3.415   5.734 -1.1297 -2.6769  0.0114
   7023SM  H23H 9220   5.700   3.276   5.700 -0.5869 -0.7463  2.2322
   7123SM     N 9221   4.854   1.695   9.063  0.8511  0.2363  0.2999
   7123SM   C15 9222   4.979   1.730   9.138  0.3001  0.5874  0.6879
   7123SM  H15A 9223   5.006   1.643   9.196 -1.6828 -1.7287 -1.6027
   7123SM  H15B 9224   4.941   1.806   9.206 -2.0133  0.6867 -0.5939
   7123SM  H15C 9225   5.057   1.777   9.082  1.6213 -1.4742  0.6968
   7123SM   C14 9226   4.874   1.581   8.975 -0.5483 -0.7930  0.9006
   7123SM  H14A 9227   4.878   1.482   9.017 -0.7055 -1.7973 -1.3137
   7123SM  H14B 9228   4.970   1.599   8.928 -0.3212  2.3697  2.2891
   7123SM  H14C 9229   4.789   1.568   8.909 -0.0766  0.9118 -0.1085
   7123SM   C13 9230   4.754   1.670   9.163 -0.1447 -0.2955 -0.8711
   7123SM  H13A 9231   4.702   1.759   9.196  0.9100 -0.3969  1.2466
   7123SM  H13B 9232   4.791   1.625   9.254 -0.0569  1.8611  0.2264
   7123SM  H13C 9233   4.682   1.603   9.118 -1.2757  0.8895 -0.8911
   7123SM   C12 9234   4.828   1.809   8.966  0.2682 -0.0169  0.4778
   7123SM  H12A 9235   4.919   1.822   8.910  0.6892 -2.3839  0.4716
   7123SM  H12B 9236   4.822   1.903   9.019  0.3790 -0.3874  1.1689
   7123SM   C11 9237   4.710   1.797   8.864  0.1596  1.1330  0.6094
   7123SM  H11A 9238   4.729   1.720   8.786  1.4499  0.6733  1.3312
   7123SM  H11B 9239   4.699   1.889   8.803  1.2777  0.1355 -1.1898
   7123SM     P 9240   4.501   1.646   8.911 -0.1944 -0.0447 -0.3223
   7123SM   O13 9241   4.582   1.529   8.875 -0.5968 -0.1930  0.1903
   7123SM   O14 9242   4.423   1.634   9.040 -0.1458  0.0702  0.1173
   7123SM   O11 9243   4.396   1.675   8.793  0.0997  0.2267 -0.0653
   7123SM   O12 9244   4.585   1.778   8.928 -0.4731  0.4387  0.2586
   7123SM   C1S 9245   4.454   1.696   8.666  0.0812  0.0196  0.7343
   7123SM   H1S 9246   4.511   1.604   8.645  0.4603  0.6761 -1.3473
   7123SM   H1T 9247   4.529   1.777   8.658 -0.8327  0.7105 -1.6948
   7123SM    NF 9248   4.422   1.719   8.419  0.8322  1.2379  0.1470
   7123SM   HNF 9249   4.436   1.807   8.375 -2.8391  2.0569  0.3051
   7123SM   C2S 9250   4.355   1.719   8.551 -0.1777 -0.4235 -0.0192
   7123SM   H2S 9251   4.274   1.644   8.560 -2.6083  1.8754 -1.1890
   7123SM   C3S 9252   4.278   1.854   8.571 -0.2866 -0.0282 -0.2322
   7123SM   H3S 9253   4.351   1.937   8.559  3.0330 -2.8108 -0.7777
   7123SM    O3 9254   4.210   1.872   8.690  0.1360  0.5986 -0.0925
   7123SM   HO3 9255   4.232   1.797   8.746  1.9377  0.9238 -0.3013
   7123SM   C4S 9256   4.180   1.869   8.462 -0.5789 -0.8392 -0.1050
   7123SM   H4S 9257   4.220   1.928   8.378  1.1150 -1.1707  0.4478
   7123SM   C5S 9258   4.055   1.836   8.461  0.8341  0.1618  0.5700
   7123SM   H5S 9259   4.010   1.801   8.555  1.4349  1.6749  1.4502
   7123SM   C6S 9260   3.966   1.860   8.337 -0.6418  0.4035 -0.1842
   7123SM   H6S 9261   3.928   1.964   8.352  2.1589  1.3931  0.8487
   7123SM   H6T 9262   3.881   1.789   8.334 -0.1962 -0.3343  2.3658
   7123SM   C7S 9263   4.043   1.851   8.199  0.3741  0.4270 -0.1460
   7123SM   H7S 9264   4.126   1.925   8.199  0.5936  0.2178  1.2802
   7123SM   H7T 9265   3.977   1.889   8.118  1.7928  0.5357 -1.2871
   7123SM   C8S 9266   4.104   1.717   8.180  0.0156 -0.1601  0.5423
   7123SM   H8S 9267   4.028   1.645   8.144 -1.9278  2.2143 -0.3297
   7123SM   H8T 9268   4.141   1.667   8.273  2.5065 -1.2470 -0.9175
   7123SM   C9S 9269   4.219   1.714   8.072 -0.5527 -0.1237 -0.3286
   7123SM   H9S 9270   4.271   1.617   8.060 -0.3038  0.0476 -0.6500
   7123SM   H9T 9271   4.295   1.787   8.106 -0.5713 -0.3671  0.2364
   7123SM  C10S 9272   4.164   1.758   7.933 -0.1775  0.3104  0.6470
   7123SM  H10S 9273   4.142   1.866   7.939  1.9953  0.7734  1.1895
   7123SM  H10T 9274   4.072   1.701   7.909 -0.2566  1.1353 -1.1610
   7123SM  C11S 9275   4.264   1.728   7.822 -0.7220  0.0451  0.8859
   7123SM  H11S 9276   4.264   1.618   7.813  1.7802 -0.0474  1.4446
   7123SM  H11T 9277   4.362   1.767   7.857 -0.6191  1.0928 -0.4638
   7123SM  C12S 9278   4.237   1.788   7.688  0.6891 -0.0502  0.0660
   7123SM  H12S 9279   4.273   1.892   7.698  1.2691 -0.3514  1.3390
   7123SM  H12T 9280   4.130   1.801   7.658  0.9367  0.6692 -0.5262
   7123SM  C13S 9281   4.297   1.714   7.567 -0.5496  0.7420  0.0527
   7123SM  H13S 9282   4.274   1.606   7.578  2.6512 -0.1048 -0.4507
   7123SM  H13T 9283   4.408   1.708   7.580 -0.6619 -0.8898  0.4863
   7123SM  C14S 9284   4.266   1.779   7.432  0.4926  0.1478 -0.8064
   7123SM  H14S 9285   4.278   1.889   7.421 -1.7526  0.3440 -1.9771
   7123SM  H14T 9286   4.156   1.765   7.424  0.5566 -0.9385  0.0370
   7123SM  C15S 9287   4.335   1.702   7.318  0.6467  0.1209  0.1338
   7123SM  H15S 9288   4.325   1.592   7.326  0.4563  0.1670  0.5509
   7123SM  H15T 9289   4.440   1.739   7.321  0.5382  0.5554 -0.9662
   7123SM  C16S 9290   4.269   1.752   7.184  0.3772  0.2438 -0.4440
   7123SM  H16S 9291   4.286   1.862   7.188 -0.7603  0.4058  0.4414
   7123SM  H16T 9292   4.159   1.739   7.182  0.6180 -2.2052 -0.7010
   7123SM  C17S 9293   4.338   1.719   7.056  0.2006 -0.4869  0.3902
   7123SM  H17S 9294   4.310   1.614   7.033 -4.4804  0.8824 -1.5709
   7123SM  H17T 9295   4.447   1.738   7.064  0.1073  0.3811 -0.2617
   7123SM  C18S 9296   4.293   1.807   6.945  0.3340 -0.1335  0.1211
   7123SM  H18S 9297   4.332   1.769   6.849  0.2002  0.0027  0.0125
   7123SM  H18T 9298   4.319   1.914   6.963 -1.5135  0.4195 -0.2555
   7123SM  H18U 9299   4.183   1.810   6.930  0.0530 -1.3374  1.6303
   7123SM   C1F 9300   4.475   1.599   8.376  0.3568 -0.2870 -0.2437
   7123SM    OF 9301   4.450   1.494   8.435 -1.2013  0.0637 -0.4731
   7123SM   C2F 9302   4.566   1.610   8.254 -0.1343 -0.0264  0.0898
   7123SM   H2F 9303   4.661   1.655   8.290  1.4238 -2.5194 -0.6360
   7123SM   H2G 9304   4.533   1.671   8.167  0.1466 -2.2968 -1.7156
   7123SM   C3F 9305   4.600   1.473   8.205 -0.3474  0.3994 -0.1616
   7123SM   H3F 9306   4.509   1.414   8.180  0.6042 -0.8271 -0.8472
   7123SM   H3G 9307   4.651   1.414   8.284 -1.7130  0.6314  0.9317
   7123SM   C4F 9308   4.676   1.465   8.066  0.4519  0.8534 -0.5808
   7123SM   H4F 9309   4.712   1.360   8.068 -0.7463  0.4370  0.6060
   7123SM   H4G 9310   4.761   1.535   8.079 -0.5899  2.0176  0.1667
   7123SM   C5F 9311   4.587   1.483   7.944 -0.5547  0.5904 -0.1208
   7123SM   H5F 9312   4.522   1.573   7.952 -0.5142  0.5568  0.6546
   7123SM   H5G 9313   4.510   1.404   7.935 -1.8927  1.5536  2.1612
   7123SM   C6F 9314   4.665   1.481   7.808 -0.8038 -0.2784  0.3371
   7123SM   H6F 9315   4.743   1.402   7.816 -1.7386 -1.0383  3.0926
   7123SM   H6G 9316   4.707   1.584   7.803 -1.5480 -0.0230 -2.2125
   7123SM   C7F 9317   4.574   1.456   7.688 -0.6693 -0.2221  0.3783
   7123SM   H7F 9318   4.496   1.535   7.681  0.4708  1.0425  1.4180
   7123SM   H7G 9319   4.516   1.362   7.699 -1.7405  0.4436  0.6377
   7123SM   C8F 9320   4.661   1.446   7.564 -0.4522 -0.8681 -1.0124
   7123SM   H8F 9321   4.723   1.354   7.578  2.3385  1.1028  0.5354
   7123SM   H8G 9322   4.737   1.527   7.559 -1.4900  0.1241 -1.0492
   7123SM   C9F 9323   4.579   1.445   7.437 -0.3963  0.1048  0.6241
   7123SM   H9F 9324   4.530   1.543   7.416 -0.6375 -0.2500 -0.5292
   7123SM   H9G 9325   4.506   1.361   7.437 -0.6302  0.3063  0.4198
   7123SM  C10F 9326   4.663   1.411   7.313  0.3554 -0.0731  0.0190
   7123SM  H10F 9327   4.679   1.302   7.326  0.0588  0.1141  2.3187
   7123SM  H10G 9328   4.760   1.464   7.323  1.4482 -1.8788 -0.5031
   7123SM  C11F 9329   4.599   1.434   7.175 -0.6051 -0.1341  0.5940
   7123SM  H11F 9330   4.557   1.537   7.177 -0.2508  0.0351 -0.1730
   7123SM  H11G 9331   4.520   1.364   7.142 -1.5214  1.0117  0.2943
   7123SM  C12F 9332   4.716   1.443   7.066 -0.1609  0.2705 -0.6458
   7123SM  H12F 9333   4.767   1.345   7.065 -0.2018  0.2314  0.3530
   7123SM  H12G 9334   4.792   1.517   7.099  1.3415 -1.5202  0.0282
   7123SM  C13F 9335   4.676   1.478   6.921  0.1333 -0.7710 -0.0025
   7123SM  H13F 9336   4.617   1.572   6.928 -0.7086 -1.2643 -0.2791
   7123SM  H13G 9337   4.600   1.404   6.889  0.5224 -0.6010 -1.3700
   7123SM  C14F 9338   4.797   1.481   6.834  0.5204 -0.4897 -1.2149
   7123SM  H14F 9339   4.867   1.397   6.855  0.2252 -1.1243 -2.6414
   7123SM  H14G 9340   4.863   1.567   6.857 -0.0778 -0.3657  0.0700
   7123SM  C15F 9341   4.758   1.494   6.686 -0.0587  0.1953 -0.1500
   7123SM  H15F 9342   4.848   1.521   6.627 -0.1321  0.3012 -0.2125
   7123SM  H15G 9343   4.694   1.584   6.676  1.4974  1.3603 -0.1395
   7123SM  C16F 9344   4.700   1.370   6.606 -0.2093 -0.2558 -0.3306
   7123SM  H16F 9345   4.680   1.405   6.503  0.2807 -1.2076 -0.7654
   7123SM  H16G 9346   4.599   1.347   6.648  0.4075  2.1357  2.8040
   7123SM  C17F 9347   4.794   1.251   6.576  0.8502 -0.6213 -0.1565
   7123SM  H17F 9348   4.791   1.185   6.666 -0.7530 -0.0159  0.2717
   7123SM  H17G 9349   4.892   1.300   6.563 -0.4232  1.7607 -1.4385
   7123SM  C18F 9350   4.737   1.166   6.465 -0.0107  0.3272  0.6217
   7123SM  H18F 9351   4.709   1.235   6.383 -1.5829  1.8034  2.3119
   7123SM  H18G 9352   4.647   1.114   6.505  0.2763 -0.6448  0.0400
   7123SM  C19F 9353   4.831   1.061   6.402  0.1398 -0.5758 -0.3623
   7123SM  H19F 9354   4.777   1.019   6.314 -0.1359  1.2914 -1.1280
   7123SM  H19G 9355   4.823   0.972   6.468 -2.6432 -0.1218  0.0545
   7123SM  C20F 9356   4.968   1.121   6.366  0.4115 -0.2362  0.0980
   7123SM  H20F 9357   5.022   1.172   6.449 -1.1875  2.1176 -0.2229
   7123SM  H20G 9358   4.948   1.205   6.296  2.1749 -0.6349 -0.9457
   7123SM  C21F 9359   5.060   1.020   6.296 -0.2281  0.1617  0.7498
   7123SM  H21F 9360   5.008   0.944   6.234 -0.5225  0.6484  0.3891
   7123SM  H21G 9361   5.120   0.976   6.378 -1.5618 -0.0288  1.6435
   7123SM  C22F 9362   5.155   1.092   6.208  0.3352 -0.3835 -0.0299
   7123SM  H22F 9363   5.226   1.144   6.275  0.1987 -0.7911  0.4361
   7123SM  H22G 9364   5.098   1.166   6.148  0.4265  0.0301  0.3854
   7123SM  C23F 9365   5.245   1.006   6.123  0.0038  0.2326  0.4581
   7123SM  H23F 9366   5.307   1.074   6.063 -0.3095  1.2815  1.2931
   7123SM  H23G 9367   5.182   0.945   6.055 -0.0812 -0.0207  0.7547
   7123SM  H23H 9368   5.307   0.939   6.188  0.2063 -1.0608 -1.0119
   7223SM     N 9369   6.281   4.597   8.521  0.4666 -0.4657 -0.5908
   7223SM   C15 9370   6.317   4.483   8.429  0.6165 -0.0538 -0.4635
   7223SM  H15A 9371   6.423   4.481   8.413  1.0259 -2.4994  1.7491
   7223SM  H15B 9372   6.263   4.499   8.337 -1.1713  1.9139  0.8138
   7223SM  H15C 9373   6.289   4.391   8.479  0.7512  0.3989  0.4813
   7223SM   C14 9374   6.131   4.604   8.545 -0.2218  0.2322  0.4323
   7223SM  H14A 9375   6.088   4.657   8.461  1.6090 -0.7601 -1.1992
   7223SM  H14B 9376   6.104   4.651   8.638  0.0666 -1.0881  1.2099
   7223SM  H14C 9377   6.095   4.502   8.548 -3.1112  0.8059 -4.5080
   7223SM   C13 9378   6.352   4.575   8.650 -0.0100 -0.5029 -0.3260
   7223SM  H13A 9379   6.458   4.557   8.639  0.1545  0.5448 -0.5893
   7223SM  H13B 9380   6.307   4.492   8.703 -1.3360  0.7440  0.6101
   7223SM  H13C 9381   6.343   4.659   8.717 -1.5199 -0.8196 -0.0872
   7223SM   C12 9382   6.331   4.726   8.454  0.3654  0.2784  0.1213
   7223SM  H12A 9383   6.438   4.731   8.456  0.6174 -2.8095 -0.0747
   7223SM  H12B 9384   6.291   4.807   8.512 -0.8473  1.0986 -1.7674
   7223SM   C11 9385   6.285   4.745   8.304  0.1381 -0.0525 -0.3474
   7223SM  H11A 9386   6.325   4.664   8.240 -1.3703 -0.3984 -0.9142
   7223SM  H11B 9387   6.341   4.831   8.262 -0.5375  0.2115 -0.7270
   7223SM     P 9388   6.080   4.897   8.330  0.2046  0.0415  0.0318
   7223SM   O13 9389   5.956   4.870   8.403 -0.1059 -0.1584 -0.5031
   7223SM   O14 9390   6.175   4.976   8.403 -0.1586 -0.4319  0.2224
   7223SM   O11 9391   6.044   4.959   8.184 -0.1458 -0.1947 -0.2321
   7223SM   O12 9392   6.142   4.766   8.292  0.1989 -0.1055 -0.3270
   7223SM   C1S 9393   6.146   5.038   8.127  0.1114  0.1055  0.1640
   7223SM   H1S 9394   6.237   4.980   8.098  0.7544  1.4877 -0.6877
   7223SM   H1T 9395   6.178   5.120   8.195  3.1387 -1.0457  0.3150
   7223SM    NF 9396   6.202   5.172   7.927  0.5154  0.4042  0.1897
   7223SM   HNF 9397   6.195   5.272   7.926 -2.4457  0.3032  1.0360
   7223SM   C2S 9398   6.093   5.102   7.996  0.1390  0.0988 -0.1747
   7223SM   H2S 9399   6.059   5.016   7.934  1.0974 -0.2397 -0.2410
   7223SM   C3S 9400   5.976   5.192   8.016  0.1195 -0.2853  0.0417
   7223SM   H3S 9401   6.009   5.285   8.067 -0.7517 -0.1060  0.2985
   7223SM    O3 9402   5.869   5.142   8.099  0.1294 -0.2852 -0.2140
   7223SM   HO3 9403   5.909   5.060   8.128  0.5684  0.5702  1.7056
   7223SM   C4S 9404   5.921   5.228   7.881  0.2361  0.0927 -0.1942
   7223SM   H4S 9405   5.927   5.337   7.868 -2.7638  0.5279  1.2169
   7223SM   C5S 9406   5.858   5.154   7.782  0.5154  0.0871  0.1146
   7223SM   H5S 9407   5.831   5.052   7.813 -1.5999  0.6281  0.1847
   7223SM   C6S 9408   5.812   5.198   7.646 -0.1536  0.1849 -0.4165
   7223SM   H6S 9409   5.818   5.308   7.638 -0.4994  0.1627 -1.0276
   7223SM   H6T 9410   5.711   5.169   7.610  0.0446 -0.4520 -0.4774
   7223SM   C7S 9411   5.911   5.158   7.534 -0.2160 -0.0857 -1.0949
   7223SM   H7S 9412   5.914   5.048   7.518 -1.3679 -0.4459  0.7339
   7223SM   H7T 9413   6.010   5.196   7.567 -0.0808 -0.6498 -0.8322
   7223SM   C8S 9414   5.881   5.238   7.404  0.1075 -0.7624  0.4476
   7223SM   H8S 9415   5.871   5.348   7.418  2.1716 -0.6326  1.2902
   7223SM   H8T 9416   5.780   5.205   7.374 -0.1027 -0.0911  0.4154
   7223SM   C9S 9417   5.983   5.232   7.289  0.1778 -0.0419  0.5450
   7223SM   H9S 9418   6.021   5.129   7.268 -0.4874 -0.4991  1.5701
   7223SM   H9T 9419   6.074   5.281   7.331  0.2448  0.3863 -0.0831
   7223SM  C10S 9420   5.930   5.286   7.156 -0.0619  0.1324  0.0985
   7223SM  H10S 9421   5.906   5.394   7.162  0.6807  0.3554 -0.8699
   7223SM  H10T 9422   5.842   5.224   7.130  0.5558 -0.5502 -0.4083
   7223SM  C11S 9423   6.043   5.279   7.050  0.3945 -0.0407  0.4304
   7223SM  H11S 9424   6.073   5.173   7.035  0.0767 -0.1371  0.4733
   7223SM  H11T 9425   6.136   5.335   7.077  0.5379  1.2769 -2.4934
   7223SM  C12S 9426   5.995   5.340   6.916 -0.0218 -0.2943  0.2717
   7223SM  H12S 9427   6.006   5.451   6.916 -2.9826  0.0872  0.6262
   7223SM  H12T 9428   5.887   5.321   6.904  0.4629 -3.1967 -0.0513
   7223SM  C13S 9429   6.057   5.274   6.792 -0.1676 -0.1077  0.2267
   7223SM  H13S 9430   6.017   5.171   6.786  1.4301 -0.6959 -1.2198
   7223SM  H13T 9431   6.165   5.256   6.807 -0.5007 -2.0784  0.5143
   7223SM  C14S 9432   6.023   5.346   6.658 -0.7489  1.1039  0.3295
   7223SM  H14S 9433   6.075   5.444   6.662  1.9675 -0.2810  3.0305
   7223SM  H14T 9434   5.916   5.347   6.628 -0.1775  1.5429 -1.8592
   7223SM  C15S 9435   6.087   5.257   6.548 -0.3003  0.4275  0.6053
   7223SM  H15S 9436   6.050   5.152   6.552 -1.9023  0.7653 -2.4403
   7223SM  H15T 9437   6.197   5.254   6.563 -0.2267 -0.1095  0.0094
   7223SM  C16S 9438   6.064   5.301   6.405 -0.1081  0.0484 -0.0068
   7223SM  H16S 9439   5.962   5.285   6.366  0.9814 -1.2408 -2.5544
   7223SM  H16T 9440   6.137   5.251   6.337  1.5691  1.4047  0.7002
   7223SM  C17S 9441   6.087   5.451   6.384 -0.2432  0.4520  0.5285
   7223SM  H17S 9442   6.169   5.488   6.450  1.7719 -2.3744 -0.1695
   7223SM  H17T 9443   5.993   5.505   6.404 -0.1841  0.2825  1.2997
   7223SM  C18S 9444   6.124   5.490   6.236  0.1299  0.3729  0.2612
   7223SM  H18S 9445   6.131   5.601   6.245  0.4678  0.3768 -0.0116
   7223SM  H18T 9446   6.046   5.462   6.161  0.4664 -0.1505  0.1007
   7223SM  H18U 9447   6.223   5.447   6.210  0.3392  0.9301  0.1283
   7223SM   C1F 9448   6.311   5.123   7.878  0.0697  0.4727 -0.1677
   7223SM    OF 9449   6.312   4.998   7.851  0.4463 -0.2491  0.0701
   7223SM   C2F 9450   6.428   5.218   7.854  0.5076 -0.5817  0.3233
   7223SM   H2F 9451   6.519   5.155   7.840  0.6151  0.1396 -3.3276
   7223SM   H2G 9452   6.456   5.283   7.939  1.9029 -2.2327  1.1909
   7223SM   C3F 9453   6.407   5.304   7.731  0.3394  0.0832  0.2016
   7223SM   H3F 9454   6.478   5.389   7.724  0.8100 -0.3250 -0.0329
   7223SM   H3G 9455   6.308   5.355   7.730 -0.2170 -0.9590 -0.4219
   7223SM   C4F 9456   6.410   5.212   7.603 -1.1465 -0.8082 -0.5814
   7223SM   H4F 9457   6.327   5.139   7.601 -1.9136  0.0269 -0.2106
   7223SM   H4G 9458   6.506   5.156   7.595 -0.8815 -0.2043 -2.2624
   7223SM   C5F 9459   6.397   5.292   7.470 -0.2023 -0.4714  0.2144
   7223SM   H5F 9460   6.485   5.354   7.444 -0.1812 -0.5551  0.0876
   7223SM   H5G 9461   6.308   5.356   7.488 -0.2137 -0.5142  0.3134
   7223SM   C6F 9462   6.374   5.201   7.349 -0.6102  0.2437  0.2347
   7223SM   H6F 9463   6.273   5.154   7.349 -0.3063 -0.5388 -2.3375
   7223SM   H6G 9464   6.454   5.126   7.366 -1.1161 -0.1105  1.1111
   7223SM   C7F 9465   6.405   5.278   7.224  0.0524 -0.1702 -0.6941
   7223SM   H7F 9466   6.490   5.347   7.244 -1.3320  1.2525  0.5924
   7223SM   H7G 9467   6.319   5.347   7.209  0.5358  0.2999 -1.3736
   7223SM   C8F 9468   6.419   5.187   7.098  0.3253 -0.4515 -0.4097
   7223SM   H8F 9469   6.337   5.113   7.096 -0.0156 -0.0884 -2.4294
   7223SM   H8G 9470   6.515   5.134   7.115  0.0814 -0.6883  0.2560
   7223SM   C9F 9471   6.437   5.268   6.968 -0.4658 -0.8602 -0.9049
   7223SM   H9F 9472   6.515   5.345   6.986 -1.0751 -0.7282  1.5557
   7223SM   H9G 9473   6.351   5.337   6.955  0.0267 -0.2456 -0.9526
   7223SM  C10F 9474   6.455   5.204   6.832  0.3566  0.3954  1.4299
   7223SM  H10F 9475   6.370   5.133   6.833  0.6526  0.0370  0.9232
   7223SM  H10G 9476   6.541   5.135   6.820 -0.9732 -1.0070 -0.4868
   7223SM  C11F 9477   6.436   5.300   6.712  0.2228 -0.1871  1.0799
   7223SM  H11F 9478   6.344   5.356   6.738  0.0874 -0.2884  0.8224
   7223SM  H11G 9479   6.406   5.239   6.624 -2.3358  0.0544  1.7113
   7223SM  C12F 9480   6.553   5.393   6.681 -0.3306 -0.3986 -0.9200
   7223SM  H12F 9481   6.634   5.318   6.663 -1.6558 -2.0567 -0.2917
   7223SM  H12G 9482   6.597   5.452   6.764 -0.0516 -1.2252 -0.4675
   7223SM  C13F 9483   6.519   5.476   6.560 -0.4608  1.0032  0.8534
   7223SM  H13F 9484   6.424   5.531   6.576 -1.8563 -0.4686 -1.7663
   7223SM  H13G 9485   6.503   5.404   6.477 -0.6154 -1.0085  2.5708
   7223SM  C14F 9486   6.619   5.580   6.506 -0.0094  0.7274  0.3576
   7223SM  H14F 9487   6.717   5.530   6.491 -1.0138 -1.6128  1.1916
   7223SM  H14G 9488   6.638   5.664   6.576 -0.3593  0.0400  1.3042
   7223SM  C15F 9489   6.572   5.638   6.370  0.0786 -0.0620  0.1594
   7223SM  H15F 9490   6.472   5.686   6.377 -0.0902 -0.3774 -0.0490
   7223SM  H15G 9491   6.567   5.550   6.302 -1.3271 -0.1065  0.2867
   7223SM  C16F 9492   6.668   5.752   6.325 -0.4105 -0.1184  1.0136
   7223SM  H16F 9493   6.769   5.708   6.309 -0.7927 -0.5441 -0.3613
   7223SM  H16G 9494   6.675   5.825   6.408  1.7609  1.3775 -0.3729
   7223SM  C17F 9495   6.642   5.809   6.181 -0.5095  0.0495 -0.0852
   7223SM  H17F 9496   6.686   5.734   6.112 -1.7867 -1.0472  0.2485
   7223SM  H17G 9497   6.704   5.901   6.172 -0.8776  0.1729 -1.5712
   7223SM  C18F 9498   6.494   5.827   6.151 -0.0348 -0.1036 -0.0437
   7223SM  H18F 9499   6.448   5.889   6.231 -0.6938 -2.2223  1.3119
   7223SM  H18G 9500   6.432   5.736   6.149 -1.7290  1.0163 -0.7613
   7223SM  C19F 9501   6.470   5.893   6.009  0.5078  0.5096 -0.1493
   7223SM  H19F 9502   6.535   5.983   6.000  0.9901  0.2604  0.7458
   7223SM  H19G 9503   6.362   5.915   6.024  0.2524 -0.8987  0.2354
   7223SM  C20F 9504   6.493   5.801   5.889  0.2487 -0.0403  0.7135
   7223SM  H20F 9505   6.432   5.708   5.893 -1.6430  1.1731  1.4889
   7223SM  H20G 9506   6.601   5.782   5.876  0.0780  0.4790 -2.2388
   7223SM  C21F 9507   6.464   5.859   5.750 -0.5952  0.9652 -0.1482
   7223SM  H21F 9508   6.371   5.919   5.759 -0.6079  0.6440  2.4199
   7223SM  H21G 9509   6.447   5.772   5.682  0.3517  0.6950 -0.0595
   7223SM  C22F 9510   6.585   5.941   5.706  0.1798 -0.1164 -0.1796
   7223SM  H22F 9511   6.666   5.865   5.701 -2.3658 -3.1031  0.5370
   7223SM  H22G 9512   6.607   6.019   5.781  1.0967  2.0621 -2.5869
   7223SM  C23F 9513   6.579   6.013   5.576  0.2087 -0.5803 -0.1537
   7223SM  H23F 9514   6.519   6.106   5.587  2.9260  1.1962  0.6896
   7223SM  H23G 9515   6.537   5.958   5.489  1.8650 -1.6404 -0.3196
   7223SM  H23H 9516   6.680   6.050   5.548  1.0737 -2.1791  0.7542
   7323SM     N 9517   5.069   2.399   8.480 -0.3845 -0.7067  0.2333
   7323SM   C15 9518   5.000   2.288   8.410 -0.4403 -0.1291 -0.0915
   7323SM  H15A 9519   5.017   2.191   8.456 -1.1072  0.5182  1.5738
   7323SM  H15B 9520   5.054   2.289   8.316 -0.6697  0.9488 -0.2208
   7323SM  H15C 9521   4.898   2.312   8.386 -0.7378 -1.2862 -0.0618
   7323SM   C14 9522   5.073   2.521   8.386  0.1748  0.0026  0.0803
   7323SM  H14A 9523   4.974   2.564   8.377  1.1199  2.3170 -0.0314
   7323SM  H14B 9524   5.118   2.502   8.289 -0.0112 -4.0177  0.6051
   7323SM  H14C 9525   5.138   2.597   8.428  0.9026  0.4389 -1.7396
   7323SM   C13 9526   4.992   2.427   8.613 -0.2821 -0.8526  0.6080
   7323SM  H13A 9527   4.892   2.460   8.589 -0.8254 -1.9683  1.2233
   7323SM  H13B 9528   5.045   2.507   8.662  0.8309 -0.1757 -1.6037
   7323SM  H13C 9529   4.989   2.332   8.665  1.1905 -2.2726 -1.7198
   7323SM   C12 9530   5.215   2.361   8.509  0.0474 -0.0327  0.4558
   7323SM  H12A 9531   5.215   2.281   8.581 -0.4661  0.6128  1.1797
   7323SM  H12B 9532   5.259   2.446   8.559  0.0805  1.8924 -2.5589
   7323SM   C11 9533   5.314   2.320   8.396  0.2636 -0.3417  0.5965
   7323SM  H11A 9534   5.420   2.312   8.431  0.3431  1.2157  0.8216
   7323SM  H11B 9535   5.327   2.395   8.315  0.4062  0.4346  1.3121
   7323SM     P 9536   5.294   2.060   8.406 -0.3954 -0.1794 -0.1002
   7323SM   O13 9537   5.321   2.083   8.552 -0.2618  0.0168 -0.0971
   7323SM   O14 9538   5.177   1.977   8.378  0.5332  0.0478 -0.0401
   7323SM   O11 9539   5.423   1.992   8.342  0.7013 -0.2241  0.5367
   7323SM   O12 9540   5.273   2.199   8.332 -0.0960 -0.3210  0.6559
   7323SM   C1S 9541   5.449   1.990   8.205  0.2933 -0.1246 -0.3346
   7323SM   H1S 9542   5.355   1.971   8.149  0.0185 -0.2900  0.1800
   7323SM   H1T 9543   5.512   1.901   8.187 -2.3108 -2.7337  2.3309
   7323SM    NF 9544   5.522   2.106   8.011 -0.0855  0.1635  0.1322
   7323SM   HNF 9545   5.610   2.116   7.966 -0.4925  0.9938 -0.5032
   7323SM   C2S 9546   5.515   2.118   8.151 -0.2633  0.2466 -0.6507
   7323SM   H2S 9547   5.458   2.211   8.174 -0.3723  0.0899 -0.2714
   7323SM   C3S 9548   5.646   2.133   8.224 -0.0635 -0.3978  0.1393
   7323SM   H3S 9549   5.697   2.035   8.214 -0.5111 -0.4920 -1.5912
   7323SM    O3 9550   5.637   2.159   8.363  0.2546 -0.1167  0.1752
   7323SM   HO3 9551   5.555   2.115   8.387  1.7050 -2.5159  1.1510
   7323SM   C4S 9552   5.730   2.232   8.155 -0.7748  0.1825 -0.3112
   7323SM   H4S 9553   5.797   2.182   8.083  0.3051  1.9342 -0.6044
   7323SM   C5S 9554   5.738   2.369   8.159  0.2679 -0.5800 -0.6075
   7323SM   H5S 9555   5.671   2.435   8.217  1.1325  0.9037 -1.2545
   7323SM   C6S 9556   5.822   2.454   8.067  0.5297 -1.0537  0.3767
   7323SM   H6S 9557   5.928   2.439   8.097  0.1980 -1.0869  1.5882
   7323SM   H6T 9558   5.806   2.561   8.092  3.1969 -0.3916 -0.4529
   7323SM   C7S 9559   5.802   2.425   7.912  0.4252  0.0376  0.0985
   7323SM   H7S 9560   5.693   2.428   7.890  0.2428 -2.2892  0.4310
   7323SM   H7T 9561   5.830   2.323   7.879 -1.7354 -0.1022 -1.4600
   7323SM   C8S 9562   5.875   2.529   7.822  0.0588 -0.5506 -1.0120
   7323SM   H8S 9563   5.984   2.535   7.844 -0.3008  2.2190  0.4057
   7323SM   H8T 9564   5.839   2.630   7.848  1.1417 -0.3870 -0.1083
   7323SM   C9S 9565   5.855   2.513   7.667 -0.5758 -0.2418 -0.0075
   7323SM   H9S 9566   5.746   2.507   7.649 -1.0672 -0.4586  2.6365
   7323SM   H9T 9567   5.901   2.416   7.637 -1.4313 -0.2635 -1.2727
   7323SM  C10S 9568   5.923   2.622   7.584  0.1172 -0.0512 -0.6107
   7323SM  H10S 9569   6.031   2.636   7.606  0.0737  0.9950 -0.9835
   7323SM  H10T 9570   5.872   2.716   7.616  1.0572 -0.0890  1.1275
   7323SM  C11S 9571   5.908   2.601   7.433  0.4312 -0.0386  0.4662
   7323SM  H11S 9572   5.802   2.571   7.417  0.3866 -0.1348  0.9331
   7323SM  H11T 9573   5.963   2.509   7.406 -1.3377 -1.0482  0.0990
   7323SM  C12S 9574   5.936   2.715   7.341  0.1737 -0.8642 -0.7095
   7323SM  H12S 9575   6.045   2.736   7.338 -0.5526  3.9170 -2.4205
   7323SM  H12T 9576   5.886   2.810   7.370 -1.2556 -2.5565  2.9711
   7323SM  C13S 9577   5.876   2.681   7.209 -0.6049 -0.4712  0.0177
   7323SM  H13S 9578   5.768   2.704   7.222 -0.1484  2.5398 -0.6587
   7323SM  H13T 9579   5.883   2.573   7.183 -0.3575 -0.5319  0.3277
   7323SM  C14S 9580   5.945   2.751   7.099 -0.2109  0.3182  0.2207
   7323SM  H14S 9581   6.046   2.706   7.087 -0.9882 -1.0973 -1.6836
   7323SM  H14T 9582   5.960   2.859   7.121  0.6900 -0.0228  1.4043
   7323SM  C15S 9583   5.865   2.742   6.964 -0.2845  0.8150 -0.2149
   7323SM  H15S 9584   5.759   2.766   6.986  0.0226  2.9624 -0.8650
   7323SM  H15T 9585   5.894   2.640   6.931  4.3098  1.9223 -0.2623
   7323SM  C16S 9586   5.920   2.851   6.871 -0.3121 -1.1034  0.5910
   7323SM  H16S 9587   5.893   2.955   6.899 -2.0066 -1.1572 -0.6746
   7323SM  H16T 9588   5.856   2.827   6.783 -1.1093 -2.0070  1.4018
   7323SM  C17S 9589   6.068   2.847   6.837  0.1132 -0.1989  0.5001
   7323SM  H17S 9590   6.092   2.753   6.782  1.4554  1.7499 -2.5831
   7323SM  H17T 9591   6.131   2.860   6.928 -0.6572  2.2414  0.7547
   7323SM  C18S 9592   6.109   2.963   6.741 -0.2097  0.6603  0.7267
   7323SM  H18S 9593   6.099   3.060   6.795  1.0537  0.4138  1.4412
   7323SM  H18T 9594   6.035   2.971   6.659 -1.3234 -2.0344  1.3570
   7323SM  H18U 9595   6.213   2.941   6.711 -1.2386  0.5788 -3.3953
   7323SM   C1F 9596   5.411   2.117   7.930 -0.9780  0.4145  0.3027
   7323SM    OF 9597   5.299   2.130   7.980  0.0353  0.3415 -0.2095
   7323SM   C2F 9598   5.437   2.084   7.783  1.0232 -0.3115 -0.2790
   7323SM   H2F 9599   5.403   1.979   7.769  0.3921 -0.0751 -0.5523
   7323SM   H2G 9600   5.548   2.088   7.774  1.1297  2.2950  1.1443
   7323SM   C3F 9601   5.361   2.177   7.679  0.3143  0.2098 -0.2984
   7323SM   H3F 9602   5.407   2.277   7.687  0.7351 -0.0196  0.2079
   7323SM   H3G 9603   5.255   2.195   7.710  0.5543  0.4000  0.4239
   7323SM   C4F 9604   5.373   2.128   7.531 -0.5525  0.1856 -0.0933
   7323SM   H4F 9605   5.329   2.026   7.529 -1.0395  0.3866  0.2015
   7323SM   H4G 9606   5.482   2.130   7.509  0.0258  0.3009  2.4744
   7323SM   C5F 9607   5.287   2.216   7.437 -0.1959  0.5183  0.2176
   7323SM   H5F 9608   5.326   2.320   7.442 -0.2830  0.6138 -0.8710
   7323SM   H5G 9609   5.180   2.225   7.463 -0.1240  3.2028 -0.1375
   7323SM   C6F 9610   5.288   2.161   7.293  0.6224  0.3957 -0.2478
   7323SM   H6F 9611   5.217   2.076   7.300  0.7826  0.3370  0.9491
   7323SM   H6G 9612   5.396   2.136   7.283  1.0854 -0.3970  4.3345
   7323SM   C7F 9613   5.242   2.262   7.188 -0.6357  0.1409 -0.0855
   7323SM   H7F 9614   5.303   2.353   7.205  2.7046 -2.0791  0.9291
   7323SM   H7G 9615   5.135   2.291   7.180 -0.5170  1.1648  1.5105
   7323SM   C8F 9616   5.290   2.204   7.052  0.1645  0.3676  0.0374
   7323SM   H8F 9617   5.224   2.116   7.033  0.1057  0.4322 -0.0585
   7323SM   H8G 9618   5.394   2.165   7.060 -0.3426 -0.6642  2.3656
   7323SM   C9F 9619   5.276   2.312   6.942 -0.1323  0.0519 -0.0804
   7323SM   H9F 9620   5.339   2.399   6.969 -0.3949  0.2169  0.0084
   7323SM   H9G 9621   5.172   2.346   6.923  0.0992  1.2580  0.6799
   7323SM  C10F 9622   5.316   2.259   6.808  0.2635  0.0082  0.6333
   7323SM  H10F 9623   5.258   2.164   6.802 -0.8581  0.4530  3.1983
   7323SM  H10G 9624   5.422   2.232   6.824 -0.0833 -1.3310  0.8214
   7323SM  C11F 9625   5.293   2.349   6.686  0.0080 -0.0282 -0.5798
   7323SM  H11F 9626   5.326   2.444   6.734 -1.9486 -0.8267  2.6274
   7323SM  H11G 9627   5.184   2.367   6.667 -0.1581 -0.5755 -0.1571
   7323SM  C12F 9628   5.360   2.321   6.559 -0.0066 -0.4928  0.9789
   7323SM  H12F 9629   5.308   2.229   6.526  0.1200  0.6966 -3.0576
   7323SM  H12G 9630   5.465   2.284   6.557 -0.3353 -1.4801 -0.8569
   7323SM  C13F 9631   5.350   2.422   6.434 -0.4287  0.2755 -0.6369
   7323SM  H13F 9632   5.244   2.457   6.439 -0.5574 -0.2779  1.8369
   7323SM  H13G 9633   5.367   2.366   6.340  2.3805  0.7003 -0.4460
   7323SM  C14F 9634   5.443   2.540   6.434 -0.0176 -0.5896  0.0233
   7323SM  H14F 9635   5.428   2.601   6.526  0.2236  0.4205 -0.6047
   7323SM  H14G 9636   5.415   2.606   6.350 -0.8805  0.4762  1.1013
   7323SM  C15F 9637   5.595   2.497   6.423 -0.6306  0.3648  0.0191
   7323SM  H15F 9638   5.605   2.421   6.343  2.2779  1.2508 -0.5574
   7323SM  H15G 9639   5.617   2.440   6.516 -1.4147  2.5465  1.6402
   7323SM  C16F 9640   5.684   2.619   6.380  0.1855  0.1159 -0.6302
   7323SM  H16F 9641   5.658   2.634   6.273 -3.0742 -2.6949 -0.4060
   7323SM  H16G 9642   5.790   2.595   6.401  0.2966  1.3000  0.3188
   7323SM  C17F 9643   5.647   2.748   6.457  0.0244 -0.8863  1.4910
   7323SM  H17F 9644   5.634   2.729   6.566  0.4837 -0.1870  1.6733
   7323SM  H17G 9645   5.547   2.784   6.427  0.8181  0.6938  0.5934
   7323SM  C18F 9646   5.734   2.877   6.430  1.5705 -0.0004 -0.4735
   7323SM  H18F 9647   5.723   2.959   6.505  0.8482  0.7854 -1.4076
   7323SM  H18G 9648   5.696   2.935   6.343  0.5167  2.2070  1.3442
   7323SM  C19F 9649   5.891   2.855   6.417 -0.5730 -0.1214  0.0656
   7323SM  H19F 9650   5.910   2.766   6.480  0.6957 -0.4773 -0.7880
   7323SM  H19G 9651   5.927   2.951   6.462 -2.1222  0.6305 -0.2360
   7323SM  C20F 9652   5.948   2.829   6.272 -0.1135  0.0221  0.1412
   7323SM  H20F 9653   5.901   2.734   6.238  0.1946 -0.5330  1.2007
   7323SM  H20G 9654   6.056   2.805   6.281  0.1252  0.9261 -0.2603
   7323SM  C21F 9655   5.917   2.941   6.176 -0.6474  0.6070 -0.1070
   7323SM  H21F 9656   5.925   3.040   6.225  0.4113 -0.0094  1.0344
   7323SM  H21G 9657   5.811   2.929   6.145 -0.8781  2.3004 -0.0584
   7323SM  C22F 9658   5.993   2.939   6.043 -0.1076 -0.3632  0.2672
   7323SM  H22F 9659   5.967   2.845   5.991 -1.8420 -0.9147  2.0185
   7323SM  H22G 9660   6.102   2.927   6.061 -0.3429 -0.2116  1.8807
   7323SM  C23F 9661   5.956   3.057   5.952  0.2872 -0.2478 -0.3157
   7323SM  H23F 9662   5.851   3.038   5.921  0.1344 -1.4604  0.8283
   7323SM  H23G 9663   6.012   3.070   5.857  1.0428  0.8853  0.2532
   7323SM  H23H 9664   5.968   3.156   6.003  2.4220 -0.3435 -0.5291
   7423SM     N 9665   1.914   4.144   8.592 -0.0064 -0.1968 -0.1920
   7423SM   C15 9666   1.860   4.101   8.724 -0.0085 -0.0634 -0.4213
   7423SM  H15A 9667   1.916   4.017   8.762  1.0204  0.3049 -1.0953
   7423SM  H15B 9668   1.752   4.090   8.718 -0.1958  2.0722 -2.2328
   7423SM  H15C 9669   1.874   4.178   8.798 -0.7920 -1.2735  1.0374
   7423SM   C14 9670   1.921   4.023   8.493  0.4363  0.0815  0.1035
   7423SM  H14A 9671   1.833   3.962   8.510  0.9858 -0.5954  0.5760
   7423SM  H14B 9672   1.997   3.957   8.533 -0.3790 -0.9648 -0.0410
   7423SM  H14C 9673   1.936   4.041   8.388  2.5230  0.3752  0.4185
   7423SM   C13 9674   1.817   4.244   8.535 -0.6496 -0.9817  0.4622
   7423SM  H13A 9675   1.844   4.272   8.434  0.7127 -0.7493  0.8713
   7423SM  H13B 9676   1.811   4.332   8.597 -3.2425 -1.0701  0.4432
   7423SM  H13C 9677   1.718   4.201   8.534 -1.1411  0.1385 -0.4328
   7423SM   C12 9678   2.051   4.201   8.609 -0.5003  0.5645 -0.1249
   7423SM  H12A 9679   2.051   4.305   8.639  1.1358  0.7307 -0.5877
   7423SM  H12B 9680   2.088   4.213   8.509 -0.7827 -0.3100 -0.3420
   7423SM   C11 9681   2.158   4.122   8.697  0.7895 -0.6847 -0.1992
   7423SM  H11A 9682   2.163   4.019   8.655  0.4842 -0.3481 -1.1066
   7423SM  H11B 9683   2.128   4.119   8.804  0.8616  0.9160 -0.1043
   7423SM     P 9684   2.386   4.177   8.793  0.1118  0.0010 -0.0488
   7423SM   O13 9685   2.341   4.241   8.913  0.1465 -0.7128 -0.1940
   7423SM   O14 9686   2.437   4.039   8.805  0.1501 -0.0917 -0.3883
   7423SM   O11 9687   2.499   4.277   8.743 -0.1218 -0.0908 -0.3452
   7423SM   O12 9688   2.282   4.197   8.673 -0.0287 -0.1826  0.1638
   7423SM   C1S 9689   2.594   4.218   8.645  0.3039 -0.2318 -0.1462
   7423SM   H1S 9690   2.626   4.121   8.687  2.3782  0.6242  0.4083
   7423SM   H1T 9691   2.692   4.271   8.653 -0.3202  0.7415  1.9785
   7423SM    NF 9692   2.639   4.157   8.410 -0.2000  0.6931 -0.3037
   7423SM   HNF 9693   2.693   4.220   8.355  0.8157 -0.7993 -1.0941
   7423SM   C2S 9694   2.539   4.216   8.495 -0.1173 -0.5054  0.3891
   7423SM   H2S 9695   2.449   4.151   8.488  0.4729 -1.4362  1.1775
   7423SM   C3S 9696   2.501   4.370   8.451  0.4132 -0.1048 -0.5078
   7423SM   H3S 9697   2.590   4.430   8.479  0.7804 -0.8602 -0.0219
   7423SM    O3 9698   2.388   4.418   8.524 -0.4418  0.0156 -0.2538
   7423SM   HO3 9699   2.369   4.358   8.596 -1.3631  1.3607  0.6784
   7423SM   C4S 9700   2.461   4.364   8.300 -0.5398 -0.3509 -0.6771
   7423SM   H4S 9701   2.534   4.415   8.235 -0.2980  0.2044  0.0081
   7423SM   C5S 9702   2.353   4.306   8.252  0.6512 -0.2915  0.1524
   7423SM   H5S 9703   2.288   4.249   8.320  0.8889 -2.5678 -1.4220
   7423SM   C6S 9704   2.316   4.275   8.104 -0.6313 -0.1445 -0.7026
   7423SM   H6S 9705   2.243   4.348   8.063  0.1771 -0.4905 -2.8814
   7423SM   H6T 9706   2.273   4.172   8.100  2.9349 -1.7345 -1.4054
   7423SM   C7S 9707   2.429   4.285   8.001 -0.5871 -0.7123  0.4136
   7423SM   H7S 9708   2.513   4.217   8.029  0.7359  1.1564  1.1348
   7423SM   H7T 9709   2.465   4.389   8.005 -3.4886  0.4385 -0.5346
   7423SM   C8S 9710   2.380   4.254   7.856 -0.1535 -0.3406  0.2587
   7423SM   H8S 9711   2.302   4.327   7.826  0.1968 -0.6586 -1.5370
   7423SM   H8T 9712   2.341   4.150   7.864  0.4159 -0.5000  1.2396
   7423SM   C9S 9713   2.492   4.265   7.748 -0.4290  0.2906 -0.0067
   7423SM   H9S 9714   2.567   4.186   7.770  1.3923  1.8205 -0.4030
   7423SM   H9T 9715   2.544   4.364   7.752 -2.2079  1.3359 -1.4671
   7423SM  C10S 9716   2.430   4.251   7.607  0.2931  0.3943  0.0789
   7423SM  H10S 9717   2.359   4.336   7.598  0.4692  0.5393  0.0644
   7423SM  H10T 9718   2.368   4.159   7.609  0.2165  0.4319 -0.3455
   7423SM  C11S 9719   2.545   4.239   7.508  0.1352 -0.0421  0.4563
   7423SM  H11S 9720   2.593   4.139   7.502 -2.3176 -1.3687  1.2226
   7423SM  H11T 9721   2.618   4.322   7.516 -0.6828  0.9147 -1.3460
   7423SM  C12S 9722   2.485   4.249   7.365 -0.0366 -0.0921 -0.7779
   7423SM  H12S 9723   2.421   4.338   7.346 -2.1676 -1.4702 -0.4479
   7423SM  H12T 9724   2.413   4.165   7.357  0.9089 -1.3915  2.5600
   7423SM  C13S 9725   2.588   4.237   7.258  0.0786  0.0972 -0.0335
   7423SM  H13S 9726   2.670   4.167   7.286 -0.5258  0.2912  2.4048
   7423SM  H13T 9727   2.649   4.329   7.242  1.1774 -0.5389  0.4133
   7423SM  C14S 9728   2.526   4.199   7.121 -0.2307 -0.1188 -0.1235
   7423SM  H14S 9729   2.451   4.270   7.079 -2.6014 -0.5613  2.9781
   7423SM  H14T 9730   2.466   4.108   7.140  0.2894 -0.5261 -0.4126
   7423SM  C15S 9731   2.640   4.179   7.026  0.2331  0.2841 -0.7121
   7423SM  H15S 9732   2.705   4.109   7.082 -2.0014 -1.8070 -0.5767
   7423SM  H15T 9733   2.695   4.275   7.021  1.4565 -0.3237  0.4033
   7423SM  C16S 9734   2.599   4.118   6.899 -0.0804 -0.1209  0.0057
   7423SM  H16S 9735   2.510   4.165   6.851  0.8910  2.8340  0.9096
   7423SM  H16T 9736   2.559   4.023   6.942 -0.4140  0.9215  2.1144
   7423SM  C17S 9737   2.719   4.092   6.809 -0.1237 -0.2420 -0.1719
   7423SM  H17S 9738   2.789   4.016   6.852 -0.4835 -0.5619 -0.1461
   7423SM  H17T 9739   2.779   4.184   6.794 -1.4934  0.6129 -0.5344
   7423SM  C18S 9740   2.678   4.046   6.667  0.1924 -1.7861 -0.2496
   7423SM  H18S 9741   2.643   3.941   6.676  2.0928 -2.8352 -3.4821
   7423SM  H18T 9742   2.766   4.056   6.600 -0.0702 -0.4232 -0.4292
   7423SM  H18U 9743   2.587   4.097   6.629  1.5803  0.4340 -0.8212
   7423SM   C1F 9744   2.665   4.025   8.391 -0.6486 -0.7232 -0.9294
   7423SM    OF 9745   2.615   3.942   8.468  0.5273  0.2936  0.2495
   7423SM   C2F 9746   2.752   3.982   8.270 -0.7436 -0.6660  0.9353
   7423SM   H2F 9747   2.823   4.066   8.260 -0.3962 -1.2201 -2.1948
   7423SM   H2G 9748   2.685   3.981   8.181  0.2305  1.9541  0.0731
   7423SM   C3F 9749   2.831   3.847   8.291 -0.5665 -0.2820  0.4129
   7423SM   H3F 9750   2.751   3.770   8.294  0.2010 -1.1385 -0.4610
   7423SM   H3G 9751   2.876   3.852   8.393 -0.6293 -0.3062  0.4421
   7423SM   C4F 9752   2.935   3.825   8.175  0.1075  0.1585 -0.1154
   7423SM   H4F 9753   2.978   3.723   8.183 -0.3976 -0.2335 -1.8319
   7423SM   H4G 9754   3.009   3.907   8.160 -1.5225  1.3915 -1.9379
   7423SM   C5F 9755   2.859   3.809   8.038  0.3148  0.1753  0.1825
   7423SM   H5F 9756   2.801   3.903   8.027 -1.6640 -0.7298  2.0788
   7423SM   H5G 9757   2.783   3.732   8.062  0.0771  0.4536  0.3332
   7423SM   C6F 9758   2.941   3.778   7.910  0.3400 -0.6034 -0.0271
   7423SM   H6F 9759   2.996   3.681   7.919 -1.5576 -1.9621 -2.0657
   7423SM   H6G 9760   3.015   3.858   7.887  0.1886 -0.8292 -1.3561
   7423SM   C7F 9761   2.859   3.750   7.784  0.1236 -0.1413 -0.3614
   7423SM   H7F 9762   2.766   3.809   7.797 -0.1509 -0.2155 -1.8955
   7423SM   H7G 9763   2.831   3.643   7.780 -0.0567 -0.1252  0.3073
   7423SM   C8F 9764   2.940   3.794   7.661  0.4155  0.3004  0.4963
   7423SM   H8F 9765   3.044   3.756   7.653  0.2066  0.0747 -1.4667
   7423SM   H8G 9766   2.951   3.904   7.662  0.3880  0.3167 -0.4479
   7423SM   C9F 9767   2.873   3.767   7.524  0.5534 -0.5246  0.0141
   7423SM   H9F 9768   2.780   3.828   7.527  1.0357  0.1687  2.0023
   7423SM   H9G 9769   2.854   3.658   7.522  1.5913 -0.7578  1.4514
   7423SM  C10F 9770   2.962   3.828   7.404 -0.5817  0.1506  0.8364
   7423SM  H10F 9771   3.032   3.745   7.380  0.6463  1.0337  1.2426
   7423SM  H10G 9772   3.026   3.913   7.435  0.6911 -0.6571  0.5016
   7423SM  C11F 9773   2.873   3.872   7.285  0.4188  0.0581  0.5223
   7423SM  H11F 9774   2.929   3.916   7.200 -2.6046  0.5430 -1.3628
   7423SM  H11G 9775   2.809   3.956   7.318  2.2239  1.1244  1.4420
   7423SM  C12F 9776   2.797   3.762   7.219  0.1981  0.5791 -0.5228
   7423SM  H12F 9777   2.700   3.731   7.262  0.8227  0.1783  0.6619
   7423SM  H12G 9778   2.874   3.681   7.220  0.7824  1.1019  1.5656
   7423SM  C13F 9779   2.756   3.788   7.072 -0.1342  0.5916 -0.4780
   7423SM  H13F 9780   2.850   3.815   7.019  0.3437  1.0249  0.5504
   7423SM  H13G 9781   2.693   3.879   7.071 -0.8562  0.0922 -0.5040
   7423SM  C14F 9782   2.665   3.677   7.010 -0.0545  0.0676  0.1961
   7423SM  H14F 9783   2.587   3.657   7.086 -1.0438  2.0387 -0.2341
   7423SM  H14G 9784   2.735   3.592   7.002  0.4050  0.1242  2.7358
   7423SM  C15F 9785   2.600   3.721   6.877 -0.6030 -0.3872 -0.3159
   7423SM  H15F 9786   2.583   3.831   6.889  0.3837 -0.4008  1.5915
   7423SM  H15G 9787   2.504   3.668   6.859 -0.4979 -1.0858  1.0404
   7423SM  C16F 9788   2.681   3.674   6.752 -0.5499  0.2355  0.1652
   7423SM  H16F 9789   2.778   3.730   6.751 -0.4855  0.1252  0.2386
   7423SM  H16G 9790   2.619   3.710   6.667  0.3714  1.6259  0.0521
   7423SM  C17F 9791   2.703   3.517   6.744 -0.0229  0.1179 -0.0948
   7423SM  H17F 9792   2.606   3.468   6.766 -0.8175  1.3147 -0.8280
   7423SM  H17G 9793   2.787   3.497   6.814 -0.3424  0.3452  0.3570
   7423SM  C18F 9794   2.758   3.474   6.605 -0.3304  0.2613  0.0392
   7423SM  H18F 9795   2.672   3.486   6.536  2.0836 -0.4787 -3.3640
   7423SM  H18G 9796   2.779   3.365   6.596 -0.5856  0.2378 -0.2973
   7423SM  C19F 9797   2.875   3.557   6.564 -0.2516  0.2275  1.0864
   7423SM  H19F 9798   2.865   3.668   6.569  1.4906  0.4332  0.8874
   7423SM  H19G 9799   2.880   3.546   6.453  0.2828  2.0715  0.8845
   7423SM  C20F 9800   3.015   3.511   6.610  0.5714 -0.5708 -0.4812
   7423SM  H20F 9801   3.061   3.430   6.550  0.8265 -2.2797  1.9221
   7423SM  H20G 9802   3.004   3.469   6.712  1.2798 -0.0147 -0.1616
   7423SM  C21F 9803   3.119   3.626   6.613  0.6226  0.2428 -0.4001
   7423SM  H21F 9804   3.120   3.664   6.509 -0.0747  1.0565 -0.1246
   7423SM  H21G 9805   3.222   3.588   6.625  0.6140  0.4461  0.4134
   7423SM  C22F 9806   3.083   3.732   6.719 -0.2933  0.3715 -0.4230
   7423SM  H22F 9807   3.048   3.681   6.811 -0.9845  3.0819  0.9465
   7423SM  H22G 9808   3.003   3.797   6.678 -1.2141  0.0250  0.7751
   7423SM  C23F 9809   3.200   3.825   6.762 -0.1223  0.9445 -0.2902
   7423SM  H23F 9810   3.296   3.816   6.708  0.7366 -1.8069  1.4756
   7423SM  H23G 9811   3.215   3.812   6.872 -2.1937  2.4638  0.2375
   7423SM  H23H 9812   3.164   3.929   6.744  0.1118  0.8545 -1.3115
   7523SM     N 9813   1.044   5.351   9.409  0.7608  0.5443 -0.4406
   7523SM   C15 9814   0.933   5.261   9.462 -0.1664 -0.1457 -0.6291
   7523SM  H15A 9815   0.834   5.272   9.421 -0.7497  1.5399  1.1150
   7523SM  H15B 9816   0.910   5.288   9.564  0.3285 -2.1873  0.0723
   7523SM  H15C 9817   0.962   5.157   9.466  0.3237 -0.0305 -1.0126
   7523SM   C14 9818   0.979   5.473   9.367 -0.7891 -0.5820 -0.1036
   7523SM  H14A 9819   1.055   5.536   9.323 -2.2097  1.2943 -0.0198
   7523SM  H14B 9820   0.937   5.526   9.451 -1.6498 -1.4538  0.0367
   7523SM  H14C 9821   0.893   5.457   9.304 -0.5164  1.6333 -1.1319
   7523SM   C13 9822   1.146   5.378   9.512 -0.1626 -0.1406 -0.1953
   7523SM  H13A 9823   1.110   5.437   9.596 -1.7581  0.5726 -1.3162
   7523SM  H13B 9824   1.233   5.431   9.475 -1.0463  2.7443  1.4969
   7523SM  H13C 9825   1.185   5.289   9.559 -0.0519 -0.5206 -1.0056
   7523SM   C12 9826   1.104   5.284   9.287 -0.1231  0.5951  0.5072
   7523SM  H12A 9827   1.015   5.280   9.226 -0.2357  0.4726  0.6767
   7523SM  H12B 9828   1.135   5.185   9.315 -0.1249  0.3946 -0.1952
   7523SM   C11 9829   1.222   5.346   9.209  0.5561 -0.4181 -0.2533
   7523SM  H11A 9830   1.259   5.261   9.148  0.4696 -0.7799  0.1908
   7523SM  H11B 9831   1.303   5.360   9.284  0.0520 -1.2485  0.4738
   7523SM     P 9832   1.314   5.554   9.088 -0.0582  0.5302 -0.0171
   7523SM   O13 9833   1.316   5.675   9.167  0.1621 -0.5224  0.0453
   7523SM   O14 9834   1.440   5.469   9.084  0.3347 -0.3778  0.3147
   7523SM   O11 9835   1.261   5.583   8.943  0.1655 -0.3155 -0.4708
   7523SM   O12 9836   1.191   5.466   9.140  0.7958 -0.2462 -0.0432
   7523SM   C1S 9837   1.309   5.691   8.870 -0.7384 -0.0820 -0.2850
   7523SM   H1S 9838   1.396   5.659   8.808 -0.1488 -0.8396  0.8942
   7523SM   H1T 9839   1.350   5.774   8.932  0.5576 -1.2304  0.4583
   7523SM    NF 9840   1.292   5.855   8.702 -0.7883  0.0057 -0.0101
   7523SM   HNF 9841   1.288   5.937   8.759  0.6344 -1.7133  2.7683
   7523SM   C2S 9842   1.212   5.754   8.765  0.2421  0.7848 -0.4747
   7523SM   H2S 9843   1.175   5.680   8.691 -0.6466 -0.2067  0.9036
   7523SM   C3S 9844   1.086   5.807   8.833 -0.0692 -0.1704 -0.2169
   7523SM   H3S 9845   1.121   5.892   8.895  0.2948  0.1015 -0.7843
   7523SM    O3 9846   1.021   5.713   8.914 -0.0824  0.4145 -0.1594
   7523SM   HO3 9847   1.090   5.650   8.935 -0.3248  0.3761  0.5714
   7523SM   C4S 9848   0.982   5.852   8.725 -0.2777 -0.8976  0.1475
   7523SM   H4S 9849   0.984   5.802   8.627  1.1599  0.0208 -0.3183
   7523SM   C5S 9850   0.902   5.961   8.752 -0.3197  0.6273 -0.3982
   7523SM   H5S 9851   0.924   6.029   8.835  0.8857  0.1986 -0.3522
   7523SM   C6S 9852   0.810   6.011   8.643 -0.1786 -0.1479  0.3090
   7523SM   H6S 9853   0.836   6.117   8.626 -0.5071 -0.0430  0.4409
   7523SM   H6T 9854   0.703   6.020   8.672 -0.3713 -0.2798 -0.3356
   7523SM   C7S 9855   0.822   5.960   8.495  0.7945  0.1024 -0.2027
   7523SM   H7S 9856   0.844   5.851   8.495 -0.8351 -0.2576  0.3915
   7523SM   H7T 9857   0.900   6.009   8.434  0.8038 -0.5364 -0.7214
   7523SM   C8S 9858   0.690   5.959   8.417 -0.6130  0.4616 -0.2794
   7523SM   H8S 9859   0.642   6.057   8.396 -1.4404  0.0425 -0.3820
   7523SM   H8T 9860   0.631   5.887   8.478 -0.8562 -1.5383 -2.7117
   7523SM   C9S 9861   0.708   5.884   8.287 -0.5195 -0.0026 -0.3399
   7523SM   H9S 9862   0.605   5.859   8.253 -0.4738  0.4692 -0.8308
   7523SM   H9T 9863   0.768   5.791   8.296 -0.4096  0.0822 -0.1869
   7523SM  C10S 9864   0.778   5.973   8.181  0.0590 -0.0751  0.2946
   7523SM  H10S 9865   0.885   5.991   8.205 -0.2526  0.6209  1.2256
   7523SM  H10T 9866   0.740   6.078   8.183 -1.3978 -0.5936  2.4652
   7523SM  C11S 9867   0.747   5.929   8.039  0.4315  0.0383 -0.1777
   7523SM  H11S 9868   0.639   5.931   8.012  0.4941  2.4731 -0.5057
   7523SM  H11T 9869   0.789   5.827   8.041  0.4307  0.0114 -1.2109
   7523SM  C12S 9870   0.830   6.001   7.930 -0.0018  0.1057  0.7592
   7523SM  H12S 9871   0.926   6.029   7.978 -0.0830 -2.6650  2.7809
   7523SM  H12T 9872   0.764   6.089   7.913  0.2164 -0.0251 -0.8939
   7523SM  C13S 9873   0.843   5.909   7.805  0.9477  0.2644  0.4774
   7523SM  H13S 9874   0.742   5.866   7.789  0.3865  2.4536 -2.7962
   7523SM  H13T 9875   0.920   5.833   7.828  1.1180  0.6120  1.0899
   7523SM  C14S 9876   0.872   5.987   7.673 -0.0861  0.4264  0.5297
   7523SM  H14S 9877   0.794   6.055   7.635  0.9278  0.2337 -2.1448
   7523SM  H14T 9878   0.886   5.908   7.596 -0.4795  0.7933  0.0800
   7523SM  C15S 9879   0.999   6.074   7.694  0.0114  0.1800 -0.7129
   7523SM  H15S 9880   1.081   6.002   7.717  0.0192  0.3411 -0.2403
   7523SM  H15T 9881   0.979   6.147   7.775 -2.1335  1.1944 -2.0512
   7523SM  C16S 9882   1.047   6.152   7.570  0.1342  0.3761  0.9454
   7523SM  H16S 9883   1.148   6.198   7.581  1.4974 -2.0468 -0.6483
   7523SM  H16T 9884   0.968   6.230   7.555 -0.7835 -0.6777  0.1130
   7523SM  C17S 9885   1.049   6.071   7.441  0.0530 -0.5225  0.1440
   7523SM  H17S 9886   0.954   6.015   7.427 -0.6531 -0.0347  2.4794
   7523SM  H17T 9887   1.128   5.997   7.463 -0.7633 -1.1434  1.0783
   7523SM  C18S 9888   1.081   6.145   7.316  0.1848  0.5158  0.7174
   7523SM  H18S 9889   0.988   6.186   7.270 -0.2228 -0.0331  1.0334
   7523SM  H18T 9890   1.114   6.084   7.230 -2.1594  0.2915 -0.1049
   7523SM  H18U 9891   1.155   6.226   7.337  0.9401 -0.4907  2.0338
   7523SM   C1F 9892   1.386   5.813   8.608 -0.4778  0.1386 -0.6411
   7523SM    OF 9893   1.380   5.699   8.564 -0.3653 -0.1057 -0.5041
   7523SM   C2F 9894   1.495   5.908   8.563 -0.7407  0.8727 -0.0658
   7523SM   H2F 9895   1.575   5.896   8.639 -0.1983  1.2297 -0.5695
   7523SM   H2G 9896   1.466   6.016   8.569  3.2721  2.0424  2.0319
   7523SM   C3F 9897   1.562   5.880   8.422  0.1845 -0.2850 -0.7118
   7523SM   H3F 9898   1.474   5.874   8.355 -2.7308  1.1876  2.7178
   7523SM   H3G 9899   1.618   5.784   8.410 -0.1252 -0.6833  0.8813
   7523SM   C4F 9900   1.656   5.988   8.371  0.3668 -0.4029 -0.4899
   7523SM   H4F 9901   1.742   6.016   8.435 -0.5890  0.5419  0.4388
   7523SM   H4G 9902   1.595   6.081   8.361  3.3183  1.8552  0.7236
   7523SM   C5F 9903   1.714   5.942   8.239  0.3306  0.0442 -1.0325
   7523SM   H5F 9904   1.636   5.899   8.173 -0.9570  1.1732 -0.2852
   7523SM   H5G 9905   1.773   5.854   8.274 -0.6885 -0.8522 -1.5171
   7523SM   C6F 9906   1.797   6.055   8.187 -0.1635 -0.9575  0.3891
   7523SM   H6F 9907   1.871   6.083   8.265  0.9415  0.9399 -1.2379
   7523SM   H6G 9908   1.731   6.145   8.187  0.6525 -0.3438  0.1664
   7523SM   C7F 9909   1.856   6.018   8.050  0.4459 -0.3359  0.0915
   7523SM   H7F 9910   1.785   5.959   7.990  2.0877 -2.0955 -0.2256
   7523SM   H7G 9911   1.955   5.968   8.055  0.0780 -1.1787 -0.7271
   7523SM   C8F 9912   1.882   6.142   7.970  0.2904  0.1054 -0.2620
   7523SM   H8F 9913   1.957   6.205   8.023  0.1307  1.2895 -1.3979
   7523SM   H8G 9914   1.788   6.201   7.962  1.3579  1.9865  0.3838
   7523SM   C9F 9915   1.925   6.112   7.826 -0.4557 -0.1315  0.1518
   7523SM   H9F 9916   1.838   6.058   7.783  1.1703 -1.4750 -1.6455
   7523SM   H9G 9917   2.018   6.052   7.824  0.3256  1.0422 -1.7905
   7523SM  C10F 9918   1.969   6.229   7.743  0.0330  0.2065  0.0514
   7523SM  H10F 9919   2.058   6.268   7.797  0.3635  0.3561 -0.5878
   7523SM  H10G 9920   1.888   6.306   7.744 -0.6589 -0.4380  2.8486
   7523SM  C11F 9921   2.019   6.195   7.599  0.3878 -0.6282 -0.2186
   7523SM  H11F 9922   2.090   6.109   7.597  2.2969  0.8736  0.0498
   7523SM  H11G 9923   2.069   6.284   7.557 -0.3168 -0.5111 -0.8274
   7523SM  C12F 9924   1.902   6.157   7.503 -0.3631 -0.3036  0.4035
   7523SM  H12F 9925   1.827   6.238   7.493 -0.1696 -0.2682 -1.0469
   7523SM  H12G 9926   1.843   6.078   7.555 -2.2323 -0.7425 -2.1431
   7523SM  C13F 9927   1.959   6.107   7.378  0.0275  0.8629  0.0555
   7523SM  H13F 9928   1.923   6.002   7.364  1.1852  0.1489  1.9560
   7523SM  H13G 9929   2.069   6.095   7.390  0.0776  0.7682 -0.5049
   7523SM  C14F 9930   1.941   6.184   7.247 -0.4098  0.2304 -0.3167
   7523SM  H14F 9931   1.967   6.288   7.275 -0.1774 -0.4525  2.3074
   7523SM  H14G 9932   1.833   6.199   7.225 -0.6918  1.7543  1.8054
   7523SM  C15F 9933   2.015   6.127   7.133 -0.4609 -0.2888 -0.0054
   7523SM  H15F 9934   1.965   6.035   7.094 -2.1122  1.1312 -1.4169
   7523SM  H15G 9935   2.118   6.113   7.172 -1.1664  0.0075  2.0978
   7523SM  C16F 9936   2.023   6.218   7.015  0.0586 -0.5634  0.5603
   7523SM  H16F 9937   2.104   6.289   7.043 -0.0804 -0.3645  0.4628
   7523SM  H16G 9938   1.920   6.260   7.007 -0.3016 -1.2477  1.3555
   7523SM  C17F 9939   2.062   6.156   6.880 -0.3661 -0.4887 -0.6291
   7523SM  H17F 9940   2.151   6.092   6.896  0.6049  0.4698 -1.9626
   7523SM  H17G 9941   2.097   6.236   6.811  1.2625 -0.8838 -0.3078
   7523SM  C18F 9942   1.945   6.072   6.830 -0.2025 -0.3979 -0.0713
   7523SM  H18F 9943   1.867   6.144   6.798 -0.6297 -1.0618 -0.5628
   7523SM  H18G 9944   1.890   6.011   6.905  2.0209 -1.0800  1.1026
   7523SM  C19F 9945   1.983   5.981   6.709  0.5556  0.0749 -0.0206
   7523SM  H19F 9946   2.074   5.925   6.739  1.1293  1.7144  1.4577
   7523SM  H19G 9947   2.020   6.046   6.627  1.6617  0.6042  0.8743
   7523SM  C20F 9948   1.868   5.887   6.676  0.5403 -1.1074  0.5091
   7523SM  H20F 9949   1.776   5.943   6.650 -1.4184 -2.8687  3.1010
   7523SM  H20G 9950   1.847   5.823   6.764  0.3239 -1.1700  0.4106
   7523SM  C21F 9951   1.879   5.808   6.546 -0.3056  1.1476 -0.1550
   7523SM  H21F 9952   1.983   5.813   6.508 -0.1686 -0.7652 -0.1227
   7523SM  H21G 9953   1.803   5.842   6.472 -0.5864 -1.4016 -1.1501
   7523SM  C22F 9954   1.851   5.660   6.576  0.6280  0.2025 -0.0525
   7523SM  H22F 9955   1.758   5.645   6.635  0.3658  1.7962 -0.0408
   7523SM  H22G 9956   1.942   5.637   6.636  1.0910  0.7881 -0.5144
   7523SM  C23F 9957   1.842   5.563   6.460  0.1539  0.2143 -0.0026
   7523SM  H23F 9958   1.747   5.572   6.404  0.1858 -2.5358 -0.6430
   7523SM  H23G 9959   1.842   5.458   6.496  0.8357  0.4288  0.6548
   7523SM  H23H 9960   1.927   5.577   6.390  0.7362 -1.6530  0.2589
   7623SM     N 9961   0.832   4.584   8.895  0.4978  0.0581  0.0290
   7623SM   C15 9962   0.861   4.463   8.806 -0.1638 -0.1203  0.1005
   7623SM  H15A 9963   0.839   4.366   8.848 -0.9036  0.2924  0.6959
   7623SM  H15B 9964   0.967   4.469   8.784  0.2803  0.1957  2.0830
   7623SM  H15C 9965   0.814   4.479   8.710  2.0238  1.2679 -0.8411
   7623SM   C14 9966   0.689   4.572   8.930 -0.6108  0.5082 -0.1191
   7623SM  H14A 9967   0.649   4.649   8.994 -0.0262 -0.1639  1.1024
   7623SM  H14B 9968   0.688   4.475   8.977  3.3468  0.9923  1.4159
   7623SM  H14C 9969   0.625   4.567   8.843 -0.4213  0.4298 -0.2567
   7623SM   C13 9970   0.913   4.586   9.023  0.0741 -0.4218 -0.4022
   7623SM  H13A 9971   0.898   4.491   9.071  0.4416 -0.0314  0.5088
   7623SM  H13B 9972   0.894   4.674   9.083  1.7114  0.8375 -1.6293
   7623SM  H13C 9973   1.013   4.587   8.982 -0.5047 -2.3749 -1.9946
   7623SM   C12 9974   0.849   4.706   8.811  0.2210 -0.0192 -0.8752
   7623SM  H12A 9975   0.837   4.793   8.875 -2.8825 -0.1823 -1.1044
   7623SM  H12B 9976   0.776   4.714   8.732 -0.2531  0.1337 -0.4268
   7623SM   C11 9977   0.998   4.725   8.753  0.1407 -0.0334  0.6006
   7623SM  H11A 9978   0.989   4.802   8.674 -0.0382 -2.5653 -1.9817
   7623SM  H11B 9979   1.032   4.637   8.696  0.7730  0.0272  0.8751
   7623SM     P 9980   1.146   4.899   8.886 -0.0412  0.0055  0.1715
   7623SM   O13 9981   1.038   4.998   8.910 -0.4857  0.0518 -0.2619
   7623SM   O14 9982   1.254   4.887   8.989  0.1243  0.2536  0.4745
   7623SM   O11 9983   1.204   4.928   8.743 -0.5699  0.1882  0.5268
   7623SM   O12 9984   1.087   4.753   8.855 -0.3301  0.3272 -0.8435
   7623SM   C1S 9985   1.281   5.051   8.732  0.3318  0.1779  0.2609
   7623SM   H1S 9986   1.367   5.052   8.802  0.4641 -1.8527  0.1628
   7623SM   H1T 9987   1.218   5.139   8.756 -0.1965 -0.5201  1.5074
   7623SM    NF 9988   1.478   5.131   8.600  0.2753  0.0515  0.4515
   7623SM   HNF 9989   1.475   5.231   8.600 -3.1751  0.0537  1.3396
   7623SM   C2S 9990   1.349   5.065   8.588 -0.4345  0.6248 -0.5532
   7623SM   H2S 9991   1.367   4.963   8.546 -1.6120  0.0866  0.2116
   7623SM   C3S 9992   1.247   5.128   8.505 -0.2006  0.2064 -0.3659
   7623SM   H3S 9993   1.217   5.226   8.548 -1.5826  0.2352 -1.3238
   7623SM    O3 9994   1.121   5.057   8.502 -0.9044  0.1366 -0.0455
   7623SM   HO3 9995   1.138   4.980   8.555 -0.1164 -0.2354 -0.8031
   7623SM   C4S 9996   1.298   5.155   8.371 -0.6563  0.0857  0.0958
   7623SM   H4S 9997   1.376   5.233   8.370 -0.4346 -0.0858 -2.1994
   7623SM   C5S 9998   1.287   5.087   8.251  0.3409  0.5612  1.0094
   7623SM   H5S 9999   1.237   4.989   8.246 -0.8777  1.2044 -0.3841
   7623SM   C6S10000   1.353   5.131   8.126  0.3727  0.5334 -0.2086
   7623SM   H6S10001   1.436   5.059   8.108 -0.6522 -0.9576  0.8458
   7623SM   H6T10002   1.395   5.234   8.129  0.6791  0.4887 -1.9166
   7623SM   C7S10003   1.254   5.129   8.007  0.0466  0.1450 -0.4366
   7623SM   H7S10004   1.171   5.200   8.025 -0.4183 -0.9370  2.1706
   7623SM   H7T10005   1.205   5.030   7.998 -2.4665  1.1128  1.5240
   7623SM   C8S10006   1.340   5.164   7.878  0.0793 -0.3460 -0.4889
   7623SM   H8S10007   1.426   5.095   7.859  2.1405  1.8398  0.3425
   7623SM   H8T10008   1.392   5.260   7.900 -2.3516  1.1016 -0.8313
   7623SM   C9S10009   1.259   5.189   7.750  0.5115  0.4778 -0.4881
   7623SM   H9S10010   1.178   5.265   7.764  1.5510  1.5877 -0.3063
   7623SM   H9T10011   1.206   5.092   7.737  2.9699 -1.3351  1.9302
   7623SM  C10S10012   1.337   5.243   7.627 -0.0978  0.6264 -0.0811
   7623SM  H10S10013   1.402   5.328   7.656 -1.8424  1.8081  0.5605
   7623SM  H10T10014   1.260   5.279   7.555  0.0204  1.2729  0.1069
   7623SM  C11S10015   1.422   5.126   7.569  0.1486  0.8920  0.2462
   7623SM  H11S10016   1.351   5.047   7.537  0.8271 -0.1672  1.2856
   7623SM  H11T10017   1.490   5.073   7.638  2.3646 -0.2513 -2.5879
   7623SM  C12S10018   1.504   5.173   7.449  0.5834  0.1179  0.3454
   7623SM  H12S10019   1.591   5.105   7.432 -0.6498 -1.0041 -1.9301
   7623SM  H12T10020   1.556   5.268   7.472 -0.9929  0.9803  0.4697
   7623SM  C13S10021   1.438   5.177   7.317 -0.0243  0.3268  0.3482
   7623SM  H13S10022   1.343   5.234   7.325 -0.7785 -1.1076  2.4992
   7623SM  H13T10023   1.402   5.076   7.286  0.4764  0.2803 -0.0947
   7623SM  C14S10024   1.536   5.228   7.211  0.4851 -0.2739 -0.7047
   7623SM  H14S10025   1.628   5.165   7.214  1.5272  1.1900 -0.5812
   7623SM  H14T10026   1.563   5.327   7.256 -0.9652 -0.3838  0.4673
   7623SM  C15S10027   1.493   5.256   7.069  0.1726  1.0647  0.0721
   7623SM  H15S10028   1.410   5.328   7.076  0.9433  2.1673 -1.6683
   7623SM  H15T10029   1.446   5.161   7.035  0.0224  0.7175  1.1867
   7623SM  C16S10030   1.599   5.291   6.972 -0.6351  0.5843 -0.3602
   7623SM  H16S10031   1.679   5.215   6.957 -1.9435 -0.8749 -0.2031
   7623SM  H16T10032   1.648   5.379   7.017 -2.2769  1.7565 -0.7495
   7623SM  C17S10033   1.527   5.328   6.839 -0.1513  0.7745  0.6911
   7623SM  H17S10034   1.433   5.387   6.845 -0.1257  1.6300 -3.6682
   7623SM  H17T10035   1.491   5.234   6.792  1.2812  0.0359  1.0250
   7623SM  C18S10036   1.625   5.397   6.743  0.2799  0.5747 -0.0117
   7623SM  H18S10037   1.731   5.368   6.761  1.0576  2.8591 -0.4677
   7623SM  H18T10038   1.620   5.508   6.749 -0.1533  0.5833 -0.5030
   7623SM  H18U10039   1.600   5.370   6.638 -1.5044 -0.8145  0.7155
   7623SM   C1F10040   1.584   5.062   8.649 -0.1148 -0.8688 -0.4600
   7623SM    OF10041   1.562   4.955   8.704  0.4175  0.2258  0.0232
   7623SM   C2F10042   1.721   5.123   8.645  0.5256  0.4139 -0.6471
   7623SM   H2F10043   1.778   5.090   8.734 -1.2737  4.0636  2.1494
   7623SM   H2G10044   1.718   5.229   8.680  1.5652  0.0065  0.7734
   7623SM   C3F10045   1.799   5.091   8.521 -0.2566  0.5095  0.0979
   7623SM   H3F10046   1.822   4.982   8.522 -1.7585  0.1694 -0.2880
   7623SM   H3G10047   1.899   5.138   8.530  0.6373 -0.9495 -1.5091
   7623SM   C4F10048   1.727   5.120   8.385 -0.2184 -0.4770  0.2684
   7623SM   H4F10049   1.702   5.229   8.390 -0.6840 -0.5377 -0.5781
   7623SM   H4G10050   1.632   5.066   8.365 -0.3909  0.0340 -0.3510
   7623SM   C5F10051   1.820   5.098   8.265 -0.4668 -0.0579  0.5416
   7623SM   H5F10052   1.859   4.994   8.260 -0.7268 -0.1022 -1.1413
   7623SM   H5G10053   1.904   5.171   8.261 -0.2234 -0.3707 -1.1350
   7623SM   C6F10054   1.744   5.118   8.132  0.2677  0.0811 -0.5679
   7623SM   H6F10055   1.711   5.222   8.110 -1.1876 -0.0140  0.9616
   7623SM   H6G10056   1.652   5.057   8.144 -1.1366  2.1681 -0.3415
   7623SM   C7F10057   1.817   5.052   8.013 -0.1020 -0.5505 -0.5048
   7623SM   H7F10058   1.849   4.947   8.033  1.6594  0.2322  1.0558
   7623SM   H7G10059   1.906   5.118   8.018 -1.2592  1.0051  0.0799
   7623SM   C8F10060   1.752   5.071   7.879 -0.1545 -0.1248  0.7643
   7623SM   H8F10061   1.731   5.180   7.878 -1.6122 -0.3789  1.1067
   7623SM   H8G10062   1.654   5.018   7.885 -0.8338  0.9256 -0.4353
   7623SM   C9F10063   1.832   5.017   7.755  0.1984 -0.0074 -0.8005
   7623SM   H9F10064   1.770   5.043   7.666 -0.0208  1.6891 -0.1720
   7623SM   H9G10065   1.851   4.907   7.760  1.6208  0.1211 -2.3538
   7623SM  C10F10066   1.966   5.092   7.734 -0.1953  0.1256 -0.0588
   7623SM  H10F10067   2.051   5.062   7.800 -0.9844  0.8344  1.3248
   7623SM  H10G10068   1.950   5.199   7.757  1.0843 -0.1454  2.5042
   7623SM  C11F10069   2.007   5.084   7.587 -0.0062  0.0167  0.4978
   7623SM  H11F10070   1.984   4.985   7.543 -1.0769  0.4069  0.1699
   7623SM  H11G10071   2.118   5.085   7.581  0.0481  0.5628  1.3065
   7623SM  C12F10072   1.944   5.199   7.501 -0.3218  0.1629  0.1847
   7623SM  H12F10073   1.958   5.295   7.556 -2.3176 -0.4160  1.8448
   7623SM  H12G10074   1.836   5.174   7.493  0.2069 -2.4473  0.4464
   7623SM  C13F10075   2.014   5.194   7.367  0.2366  0.6806  0.6536
   7623SM  H13F10076   1.976   5.101   7.319 -1.5250  1.3386  0.6878
   7623SM  H13G10077   2.124   5.185   7.378  0.6297  2.7518 -0.9705
   7623SM  C14F10078   1.982   5.308   7.267  0.2843 -0.2036  0.5275
   7623SM  H14F10079   2.021   5.404   7.308 -0.8463  0.6714 -0.3774
   7623SM  H14G10080   1.875   5.324   7.243  0.6740  0.6710 -0.7067
   7623SM  C15F10081   2.066   5.287   7.139 -0.4396  0.2799  0.2202
   7623SM  H15F10082   2.079   5.177   7.133 -1.4924  0.1569 -0.0525
   7623SM  H15G10083   2.167   5.329   7.157 -0.2568  0.2417 -0.6472
   7623SM  C16F10084   2.016   5.345   7.004  0.2057 -0.0510  0.1259
   7623SM  H16F10085   2.009   5.456   7.003 -1.6489 -0.1380 -0.1857
   7623SM  H16G10086   1.913   5.305   6.988 -0.4963  1.5661  0.3267
   7623SM  C17F10087   2.109   5.305   6.885 -0.9549 -0.3687 -0.1142
   7623SM  H17F10088   2.132   5.197   6.895  0.9170 -0.1389 -1.4051
   7623SM  H17G10089   2.201   5.367   6.878 -1.8214  1.3722  2.4327
   7623SM  C18F10090   2.042   5.304   6.745  0.1298  0.6081  0.6897
   7623SM  H18F10091   2.030   5.409   6.712  1.9996  0.1841 -1.6557
   7623SM  H18G10092   1.941   5.260   6.762 -0.0585  0.9161  0.3637
   7623SM  C19F10093   2.109   5.229   6.634  0.2777 -0.5680 -0.8793
   7623SM  H19F10094   2.031   5.204   6.560 -1.5616  2.6949 -0.2231
   7623SM  H19G10095   2.155   5.137   6.676  1.2855  0.2382 -0.1301
   7623SM  C20F10096   2.233   5.296   6.570  0.0580 -0.0499  0.0325
   7623SM  H20F10097   2.328   5.268   6.621 -0.0970 -2.3094 -0.7939
   7623SM  H20G10098   2.224   5.406   6.567  1.7498  0.1155  0.0188
   7623SM  C21F10099   2.261   5.250   6.421  0.8428 -0.9098  0.4554
   7623SM  H21F10100   2.191   5.302   6.352  1.5093  1.4273  1.4415
   7623SM  H21G10101   2.248   5.140   6.415 -2.6690 -0.5319 -0.9636
   7623SM  C22F10102   2.404   5.270   6.382  0.2662 -0.2932  0.0045
   7623SM  H22F10103   2.477   5.219   6.448  0.9710 -0.7525 -1.0904
   7623SM  H22G10104   2.421   5.377   6.405  0.6806 -0.2187 -0.6257
   7623SM  C23F10105   2.435   5.259   6.235 -0.8421 -0.6859 -0.2190
   7623SM  H23F10106   2.383   5.332   6.169  0.3451  1.1675  0.8169
   7623SM  H23G10107   2.420   5.155   6.198  1.4542 -0.7066 -1.2767
   7623SM  H23H10108   2.541   5.292   6.230 -0.4458 -1.8119  0.3811
   7723SM     N10109   1.766   3.139   8.909  0.0468 -0.3172  1.0450
   7723SM   C1510110   1.718   2.994   8.899 -0.1418  0.1977  0.3756
   7723SM  H15A10111   1.652   2.971   8.982 -1.8989  1.1113 -0.7211
   7723SM  H15B10112   1.796   2.920   8.908  0.8548  1.2298  0.4373
   7723SM  H15C10113   1.657   2.976   8.812 -1.2926  0.4388  1.1000
   7723SM   C1410114   1.658   3.236   8.913 -0.1779 -0.0779 -0.5865
   7723SM  H14A10115   1.692   3.339   8.915 -0.0704 -0.0951 -1.1889
   7723SM  H14B10116   1.594   3.225   8.999  1.2520  1.0119  0.6812
   7723SM  H14C10117   1.616   3.233   8.813 -0.8363 -1.4972 -0.2879
   7723SM   C1310118   1.846   3.154   9.037  0.2208 -0.2716 -0.2720
   7723SM  H13A10119   1.931   3.089   9.039  2.1304  2.1089  0.7392
   7723SM  H13B10120   1.788   3.115   9.119 -0.3447 -0.5339 -0.7881
   7723SM  H13C10121   1.877   3.257   9.048 -0.9746  0.0639  0.1168
   7723SM   C1210122   1.852   3.167   8.781  0.6204  0.5500 -0.1801
   7723SM  H12A10123   1.944   3.112   8.782 -0.2917 -1.0397 -0.1657
   7723SM  H12B10124   1.882   3.271   8.778  0.8182  0.5874  1.7383
   7723SM   C1110125   1.784   3.145   8.645  0.5706 -0.5411 -0.4820
   7723SM  H11A10126   1.749   3.040   8.642  0.3467 -0.4634 -0.6133
   7723SM  H11B10127   1.865   3.147   8.568  0.8742 -0.4810 -0.1649
   7723SM     P10128   1.705   3.386   8.583  0.4086  0.0593  0.1969
   7723SM   O1310129   1.572   3.444   8.551  0.1142 -0.2691 -0.0586
   7723SM   O1410130   1.785   3.449   8.689 -0.6796 -0.7602 -0.4459
   7723SM   O1110131   1.786   3.371   8.452 -0.0112 -0.0246 -0.1580
   7723SM   O1210132   1.675   3.240   8.623 -0.0604  1.4608  0.0336
   7723SM   C1S10133   1.760   3.273   8.347 -0.0736 -0.2749 -0.7200
   7723SM   H1S10134   1.663   3.290   8.296 -0.1639  1.0539 -0.1644
   7723SM   H1T10135   1.752   3.171   8.390 -0.0779 -0.1463 -0.4155
   7723SM    NF10136   1.849   3.168   8.149 -0.5866  0.7348  0.5876
   7723SM   HNF10137   1.905   3.085   8.146 -1.5923  0.0564 -0.8212
   7723SM   C2S10138   1.880   3.267   8.255  0.3915 -0.4428 -0.0585
   7723SM   H2S10139   1.882   3.367   8.206 -0.8334 -0.9440 -1.2073
   7723SM   C3S10140   2.017   3.248   8.325 -0.2514 -0.6232 -0.0922
   7723SM   H3S10141   2.026   3.139   8.348  0.8900 -0.6797 -0.7401
   7723SM    O310142   2.038   3.323   8.447  0.2977  0.2969 -0.3224
   7723SM   HO310143   1.947   3.341   8.471  0.5348  0.4675  0.4720
   7723SM   C4S10144   2.127   3.281   8.229 -0.2559  0.0452  0.0588
   7723SM   H4S10145   2.165   3.189   8.182  0.0661 -0.2035  0.7817
   7723SM   C5S10146   2.189   3.397   8.201 -0.1791  0.1224 -0.6477
   7723SM   H5S10147   2.161   3.491   8.249  0.2936 -1.0013  1.9943
   7723SM   C6S10148   2.292   3.412   8.098 -0.5136  0.1129 -0.1737
   7723SM   H6S10149   2.334   3.313   8.069  1.0753  0.4421  0.8609
   7723SM   H6T10150   2.372   3.483   8.127 -1.4456  1.2606 -0.3622
   7723SM   C7S10151   2.243   3.479   7.972  0.5403 -0.1574  0.1011
   7723SM   H7S10152   2.320   3.484   7.891 -0.7296  3.9998 -1.0560
   7723SM   H7T10153   2.220   3.586   7.985 -0.5488 -0.1613 -1.4755
   7723SM   C8S10154   2.119   3.409   7.908 -0.2282  0.3926 -1.0194
   7723SM   H8S10155   2.033   3.414   7.978  1.8440 -2.0276  1.9701
   7723SM   H8T10156   2.143   3.301   7.892 -1.6239 -0.1478  0.3365
   7723SM   C9S10157   2.074   3.469   7.774  0.0790  0.0609 -0.2339
   7723SM   H9S10158   2.153   3.459   7.698  1.4638  1.9267  0.8913
   7723SM   H9T10159   2.046   3.576   7.783  0.5885  0.1235  0.8096
   7723SM  C10S10160   1.942   3.390   7.741  0.2507  0.1301  0.4820
   7723SM  H10S10161   1.878   3.405   7.831 -0.8838 -2.8408  0.2886
   7723SM  H10T10162   1.961   3.281   7.740  1.7109  0.3277  2.3229
   7723SM  C11S10163   1.874   3.450   7.614  0.4418  0.5562  0.4176
   7723SM  H11S10164   1.845   3.558   7.620 -2.6245 -0.1472  0.0287
   7723SM  H11T10165   1.781   3.392   7.598  0.9900  0.0677 -1.0813
   7723SM  C12S10166   1.953   3.437   7.484  0.1504  0.2055 -0.5455
   7723SM  H12S10167   1.995   3.334   7.482  1.3570  0.6407  0.6426
   7723SM  H12T10168   2.033   3.513   7.498 -0.1377  0.3560  0.3537
   7723SM  C13S10169   1.875   3.461   7.356 -0.1192 -0.3267  0.0048
   7723SM  H13S10170   1.805   3.545   7.377 -0.6920 -1.0166  0.9107
   7723SM  H13T10171   1.817   3.372   7.325  0.8693 -0.2656 -2.2479
   7723SM  C14S10172   1.980   3.499   7.254  0.7580 -0.1514  0.6083
   7723SM  H14S10173   2.062   3.424   7.247  1.1042  0.2723  0.0214
   7723SM  H14T10174   2.027   3.598   7.268  1.2853  0.0051 -1.7820
   7723SM  C15S10175   1.904   3.498   7.114 -0.5599 -0.4237  0.3063
   7723SM  H15S10176   1.822   3.573   7.114 -0.3748 -0.2168  1.2223
   7723SM  H15T10177   1.851   3.407   7.079 -0.2377 -0.3728 -0.3422
   7723SM  C16S10178   2.001   3.526   6.997 -0.1705  0.0657 -0.0065
   7723SM  H16S10179   2.023   3.430   6.946  2.5868  0.0218  1.1037
   7723SM  H16T10180   2.098   3.564   7.038  0.6084 -2.2695  0.4383
   7723SM  C17S10181   1.942   3.617   6.896 -0.4809 -0.6034  0.0449
   7723SM  H17S10182   1.925   3.710   6.954  1.0661 -0.0187 -0.3700
   7723SM  H17T10183   1.840   3.580   6.871 -1.0481  0.0946  1.2403
   7723SM  C18S10184   2.032   3.632   6.774 -0.1272  0.0033  0.8003
   7723SM  H18S10185   2.034   3.730   6.721  1.3049  0.2398  1.2426
   7723SM  H18T10186   2.031   3.546   6.703 -0.3951 -0.5665  1.4856
   7723SM  H18U10187   2.137   3.631   6.810 -0.1849  0.8221  1.0082
   7723SM   C1F10188   1.750   3.171   8.067  0.7335  0.1858 -0.6595
   7723SM    OF10189   1.662   3.253   8.062  0.3348 -0.0237 -0.0222
   7723SM   C2F10190   1.748   3.057   7.978 -0.2420  0.5836 -0.4336
   7723SM   H2F10191   1.750   2.965   8.041  2.9081  0.7118 -0.1674
   7723SM   H2G10192   1.834   3.057   7.907  0.8307  0.9294  0.8292
   7723SM   C3F10193   1.609   3.055   7.911 -0.5374 -0.1923  0.7622
   7723SM   H3F10194   1.589   3.153   7.864 -1.1722 -0.8777 -0.4716
   7723SM   H3G10195   1.533   3.042   7.991 -0.2780  1.0116  1.2164
   7723SM   C4F10196   1.591   2.949   7.806  0.3347 -0.4156 -0.0875
   7723SM   H4F10197   1.500   2.973   7.747  1.5128  3.3574 -0.7023
   7723SM   H4G10198   1.569   2.849   7.849 -1.3732  0.3143  0.8151
   7723SM   C5F10199   1.707   2.946   7.702 -0.6133 -0.8500 -0.0545
   7723SM   H5F10200   1.789   2.889   7.749 -0.1454  2.6431  3.9335
   7723SM   H5G10201   1.731   3.053   7.681 -1.6659 -0.5929 -0.0195
   7723SM   C6F10202   1.664   2.880   7.575 -0.7842  0.7282  0.1336
   7723SM   H6F10203   1.572   2.936   7.546 -1.3420  0.8928  2.0527
   7723SM   H6G10204   1.630   2.776   7.593 -1.9333  1.0598 -0.0637
   7723SM   C7F10205   1.771   2.889   7.463  0.5853 -0.3608  0.2168
   7723SM   H7F10206   1.714   2.859   7.373 -1.1635 -0.3048  1.2660
   7723SM   H7G10207   1.862   2.830   7.485  2.4044  1.4146 -2.0697
   7723SM   C8F10208   1.831   3.037   7.433  0.3472  0.0749  0.2218
   7723SM   H8F10209   1.875   3.074   7.528  1.6838 -1.0224  0.0606
   7723SM   H8G10210   1.741   3.102   7.424 -0.7898 -1.5082 -0.4296
   7723SM   C9F10211   1.935   3.040   7.321  0.3490  0.9324  0.4846
   7723SM   H9F10212   2.016   2.967   7.345 -2.0374 -1.2669  2.5271
   7723SM   H9G10213   1.978   3.142   7.324  0.3191  0.9668 -0.0867
   7723SM  C10F10214   1.876   3.024   7.178 -0.0908  0.1445 -0.4138
   7723SM  H10F10215   1.798   3.103   7.170  0.0959  0.5524  1.4428
   7723SM  H10G10216   1.827   2.925   7.166 -2.0407  0.7340  2.0103
   7723SM  C11F10217   1.987   3.053   7.072  0.2737  0.2898  0.4632
   7723SM  H11F10218   2.073   2.989   7.102 -0.9151 -1.8755 -0.4834
   7723SM  H11G10219   2.015   3.160   7.068 -0.7104  0.5702  0.9163
   7723SM  C12F10220   1.941   3.007   6.931  0.7919  0.1179 -0.0964
   7723SM  H12F10221   1.839   3.041   6.903  0.8614 -0.0484 -0.5709
   7723SM  H12G10222   1.935   2.897   6.942  2.5960  0.1045  1.1433
   7723SM  C13F10223   2.051   3.045   6.833 -0.5173  0.4855  1.3246
   7723SM  H13F10224   2.148   3.032   6.887  0.2230  0.1653 -0.0360
   7723SM  H13G10225   2.034   3.153   6.814 -0.2591  0.1589 -1.0025
   7723SM  C14F10226   2.040   2.971   6.694 -0.1450 -0.2151  0.3401
   7723SM  H14F10227   1.980   3.030   6.621 -0.4918 -0.5048  0.3846
   7723SM  H14G10228   1.988   2.874   6.712  2.4218 -1.6274  0.5813
   7723SM  C15F10229   2.174   2.933   6.626  0.3364  0.2024  0.0612
   7723SM  H15F10230   2.228   2.838   6.648  1.9072  0.8138 -1.0866
   7723SM  H15G10231   2.245   3.008   6.665  1.1050 -1.0408  1.1523
   7723SM  C16F10232   2.160   2.939   6.472 -0.1715 -0.2851 -0.1921
   7723SM  H16F10233   2.260   2.942   6.423  1.6710  1.9390  3.3504
   7723SM  H16G10234   2.120   3.041   6.453 -0.5435 -0.4254 -0.1536
   7723SM  C17F10235   2.073   2.830   6.414 -0.3245  0.0613 -0.1841
   7723SM  H17F10236   1.974   2.819   6.463 -1.8602  0.5125 -3.0057
   7723SM  H17G10237   2.120   2.729   6.421 -1.9723 -0.7077  0.3040
   7723SM  C18F10238   2.042   2.857   6.265 -0.8657  0.8267 -0.2952
   7723SM  H18F10239   2.130   2.898   6.210 -0.7182  1.2955  0.2791
   7723SM  H18G10240   1.971   2.943   6.262  0.4701  1.9394 -2.3495
   7723SM  C19F10241   1.973   2.739   6.205  1.3822 -0.4453  0.2073
   7723SM  H19F10242   1.896   2.705   6.278  1.0954  2.6992  1.5394
   7723SM  H19G10243   2.047   2.658   6.195  1.6993 -0.2381  0.8563
   7723SM  C20F10244   1.897   2.770   6.072 -0.0504  0.1224 -0.3223
   7723SM  H20F10245   1.986   2.778   6.005  0.4597 -0.2650  0.2901
   7723SM  H20G10246   1.854   2.872   6.070  0.8078  0.5008  0.0317
   7723SM  C21F10247   1.800   2.665   6.026  0.0879 -0.2252  1.0428
   7723SM  H21F10248   1.764   2.703   5.929  0.5135  0.5215  1.1708
   7723SM  H21G10249   1.712   2.671   6.093  0.2555  1.8520  1.1441
   7723SM  C22F10250   1.850   2.519   6.013 -0.8852 -0.2406 -0.3926
   7723SM  H22F10251   1.887   2.485   6.112 -0.6997  3.0888  0.8278
   7723SM  H22G10252   1.936   2.513   5.944 -1.2142 -0.3383 -0.7958
   7723SM  C23F10253   1.742   2.427   5.958 -0.6190  0.2939 -0.7873
   7723SM  H23F10254   1.775   2.321   5.966  1.7101  1.1337  2.5026
   7723SM  H23G10255   1.729   2.453   5.851  0.3068 -0.3639 -1.0746
   7723SM  H23H10256   1.646   2.444   6.011  0.3381 -0.5543  1.3189
   7823SM     N10257   0.913   6.220   9.201 -0.7317  0.4153  0.3502
   7823SM   C1510258   0.885   6.316   9.097 -0.2415 -0.0380  0.8108
   7823SM  H15A10259   0.782   6.310   9.068  0.2978  0.7398 -1.4696
   7823SM  H15B10260   0.946   6.285   9.014 -0.7307  2.7868 -0.6991
   7823SM  H15C10261   0.899   6.418   9.130 -0.1038  0.6525 -1.2678
   7823SM   C1410262   0.846   6.243   9.330  0.7975 -0.0153 -0.2729
   7823SM  H14A10263   0.740   6.224   9.319  0.7030 -0.7013  1.5879
   7823SM  H14B10264   0.864   6.345   9.361  0.2037 -0.2813  1.0129
   7823SM  H14C10265   0.889   6.181   9.406 -0.7833  0.0746  0.7383
   7823SM   C1310266   0.865   6.094   9.144 -0.8081  0.2897 -0.3185
   7823SM  H13A10267   0.763   6.103   9.111 -0.8506  4.4086  0.4355
   7823SM  H13B10268   0.887   6.012   9.211  0.8677  1.8573  1.1780
   7823SM  H13C10269   0.927   6.070   9.059  1.8581  0.2040  1.5129
   7823SM   C1210270   1.059   6.203   9.226 -0.7989  0.2287 -0.1310
   7823SM  H12A10271   1.066   6.151   9.320  0.1140  1.2220  0.3737
   7823SM  H12B10272   1.105   6.299   9.245  2.2303 -1.5278  2.1039
   7823SM   C1110273   1.146   6.120   9.129 -0.6811  0.5488  0.2917
   7823SM  H11A10274   1.111   6.015   9.136  0.0786  0.2371 -0.4998
   7823SM  H11B10275   1.249   6.127   9.169 -1.0104  0.2744  1.2352
   7823SM     P10276   1.258   6.206   8.916  0.1940 -0.0400 -0.5240
   7823SM   O1310277   1.355   6.273   9.014 -0.0546 -0.0721  0.0142
   7823SM   O1410278   1.317   6.090   8.845  0.1069  0.4068  0.1797
   7823SM   O1110279   1.200   6.325   8.820 -0.3688  0.5943 -0.0945
   7823SM   O1210280   1.125   6.168   8.994  0.1662 -0.7999 -0.2844
   7823SM   C1S10281   1.293   6.383   8.728 -0.1577  0.1863  0.0402
   7823SM   H1S10282   1.390   6.400   8.779  0.2650  0.7151 -0.9078
   7823SM   H1T10283   1.257   6.484   8.697  0.1571 -0.0988 -1.3021
   7823SM    NF10284   1.444   6.351   8.537  0.0112 -0.2713 -0.0387
   7823SM   HNF10285   1.444   6.400   8.451  0.5800 -1.1153 -0.5401
   7823SM   C2S10286   1.322   6.303   8.596  0.3033  0.5093 -0.1480
   7823SM   H2S10287   1.345   6.200   8.630  1.1017  1.4755  2.4694
   7823SM   C3S10288   1.195   6.297   8.508 -0.4368 -0.8602  0.2415
   7823SM   H3S10289   1.172   6.395   8.461 -1.8327 -0.4861  1.6543
   7823SM    O310290   1.077   6.282   8.580  0.2490 -0.1260 -0.1648
   7823SM   HO310291   1.100   6.300   8.671 -0.9919 -1.1453  0.3663
   7823SM   C4S10292   1.201   6.196   8.396  0.6534 -0.4710 -0.7739
   7823SM   H4S10293   1.211   6.239   8.295 -0.6116 -0.5951 -0.9728
   7823SM   C5S10294   1.176   6.068   8.413 -0.5417  0.1792 -1.0165
   7823SM   H5S10295   1.150   6.024   8.511 -1.3762 -0.2936 -1.4319
   7823SM   C6S10296   1.165   5.972   8.299  0.0539 -0.4194  0.8489
   7823SM   H6S10297   1.063   5.929   8.299  0.0335 -0.5258 -1.9422
   7823SM   H6T10298   1.232   5.885   8.311 -1.4652 -1.9252 -0.9852
   7823SM   C7S10299   1.175   6.029   8.157 -0.2663 -0.6437  0.5100
   7823SM   H7S10300   1.109   6.116   8.133  1.6096  1.1806  1.5800
   7823SM   H7T10301   1.140   5.958   8.080  2.1859 -1.7791  0.3491
   7823SM   C8S10302   1.321   6.053   8.107  0.0087  0.0870 -0.2980
   7823SM   H8S10303   1.380   5.970   8.150  0.5863  0.7593  0.2262
   7823SM   H8T10304   1.358   6.150   8.146 -2.6424  0.0825  2.7426
   7823SM   C9S10305   1.328   6.054   7.951 -0.1037  0.8553  0.0519
   7823SM   H9S10306   1.268   6.138   7.910 -0.7754 -1.0036 -3.0659
   7823SM   H9T10307   1.288   5.960   7.906  0.6346  0.0339  1.0386
   7823SM  C10S10308   1.471   6.083   7.902  0.3214 -0.5634  0.9831
   7823SM  H10S10309   1.531   5.993   7.878  1.5036  0.6684 -1.0073
   7823SM  H10T10310   1.517   6.123   7.995 -1.0419 -3.1049  2.8597
   7823SM  C11S10311   1.486   6.172   7.781 -0.0331 -0.1184  0.2061
   7823SM  H11S10312   1.575   6.234   7.800 -1.2598  2.6018 -2.1786
   7823SM  H11T10313   1.401   6.242   7.767 -0.7955 -1.0172  0.2291
   7823SM  C12S10314   1.498   6.093   7.655 -0.4146  0.3133  0.0161
   7823SM  H12S10315   1.399   6.046   7.638 -0.9267  1.5621 -0.5862
   7823SM  H12T10316   1.580   6.019   7.657 -1.6610 -1.1512  3.0482
   7823SM  C13S10317   1.503   6.186   7.536  0.2860 -0.2479 -0.1113
   7823SM  H13S10318   1.597   6.242   7.557  0.9784 -2.0912  2.0577
   7823SM  H13T10319   1.410   6.247   7.544  0.0781 -0.5768 -0.0141
   7823SM  C14S10320   1.503   6.109   7.398 -0.3062  0.1306 -0.6025
   7823SM  H14S10321   1.412   6.045   7.399 -0.8590  0.8669 -1.6253
   7823SM  H14T10322   1.593   6.045   7.395 -1.5793 -1.8604  1.1239
   7823SM  C15S10323   1.488   6.206   7.282  0.6898  0.1920  0.0961
   7823SM  H15S10324   1.577   6.270   7.267  0.7720 -0.1319 -0.8503
   7823SM  H15T10325   1.399   6.268   7.304  2.4135  1.8936  2.8277
   7823SM  C16S10326   1.470   6.121   7.156 -0.5552  0.2347  0.5377
   7823SM  H16S10327   1.407   6.039   7.194 -1.4769  1.4491  1.7118
   7823SM  H16T10328   1.574   6.088   7.131 -0.5482  0.6871 -0.0646
   7823SM  C17S10329   1.399   6.192   7.035  0.2674  0.3361  0.5383
   7823SM  H17S10330   1.466   6.275   7.002  0.7489 -0.3304 -0.1906
   7823SM  H17T10331   1.308   6.245   7.069 -0.9348  0.7983 -3.0640
   7823SM  C18S10332   1.363   6.098   6.917 -0.2650 -0.4916  0.0669
   7823SM  H18S10333   1.442   6.030   6.879  1.3112  1.0879  0.3560
   7823SM  H18T10334   1.342   6.166   6.832  2.5588  1.4026  0.7326
   7823SM  H18U10335   1.279   6.032   6.947  1.1703 -1.7625  1.5149
   7823SM   C1F10336   1.551   6.332   8.600 -0.1983 -0.0719 -0.9033
   7823SM    OF10337   1.557   6.252   8.700 -0.7094  0.3165 -0.3284
   7823SM   C2F10338   1.668   6.414   8.552  0.4103 -0.1178 -0.3336
   7823SM   H2F10339   1.744   6.414   8.633  1.0215  3.0843 -0.7870
   7823SM   H2G10340   1.625   6.517   8.546 -1.1105 -0.7469 -0.7534
   7823SM   C3F10341   1.723   6.350   8.429  0.1023  0.1609  0.0305
   7823SM   H3F10342   1.651   6.333   8.346 -0.5967  0.3007  0.5992
   7823SM   H3G10343   1.773   6.254   8.454 -1.5901 -1.0182 -0.9463
   7823SM   C4F10344   1.839   6.440   8.378 -0.3897  0.2190 -0.7038
   7823SM   H4F10345   1.907   6.477   8.457  0.7481 -0.2774 -1.4221
   7823SM   H4G10346   1.779   6.524   8.337 -1.0737  0.3914  0.6047
   7823SM   C5F10347   1.925   6.368   8.272 -0.0773 -0.1171  0.0217
   7823SM   H5F10348   1.869   6.343   8.179  0.1012 -1.2297  0.2074
   7823SM   H5G10349   1.985   6.283   8.311  1.5427  0.4902 -1.0271
   7823SM   C6F10350   2.027   6.476   8.222  0.3895 -0.4717  1.0029
   7823SM   H6F10351   1.972   6.573   8.223  2.2791  0.6535  1.8531
   7823SM   H6G10352   2.059   6.443   8.121 -0.5641  0.8091  0.2515
   7823SM   C7F10353   2.152   6.501   8.308 -0.2264 -0.0141  0.3291
   7823SM   H7F10354   2.182   6.406   8.356 -0.4065  1.0937  2.7714
   7823SM   H7G10355   2.121   6.569   8.390  1.8694  0.0270  1.1427
   7823SM   C8F10356   2.267   6.553   8.230 -0.3390  0.5129  0.6863
   7823SM   H8F10357   2.230   6.642   8.175 -0.3737 -0.6057 -1.1848
   7823SM   H8G10358   2.300   6.482   8.151  1.0821  1.0894  0.7368
   7823SM   C9F10359   2.379   6.590   8.330  1.1260  0.1665  0.0200
   7823SM   H9F10360   2.470   6.589   8.266  1.2046 -0.8083  0.1223
   7823SM   H9G10361   2.397   6.511   8.407  1.7744 -0.0625 -0.3551
   7823SM  C10F10362   2.373   6.727   8.403 -0.0185 -0.1961  0.2490
   7823SM  H10F10363   2.288   6.717   8.473 -0.4517  1.1366 -0.0656
   7823SM  H10G10364   2.353   6.812   8.334 -1.1583 -0.4731  0.2243
   7823SM  C11F10365   2.498   6.756   8.485 -0.3508  0.1092 -0.0953
   7823SM  H11F10366   2.582   6.766   8.413 -0.4031 -3.6281 -0.9095
   7823SM  H11G10367   2.521   6.663   8.542 -1.1226  1.1704  2.0596
   7823SM  C12F10368   2.486   6.865   8.595  0.4775 -0.2906 -0.3946
   7823SM  H12F10369   2.454   6.950   8.531  3.1228 -1.4897 -3.6106
   7823SM  H12G10370   2.587   6.876   8.641  0.1843 -1.4095  0.5654
   7823SM  C13F10371   2.380   6.839   8.702 -0.1288 -0.0561 -0.4546
   7823SM  H13F10372   2.275   6.825   8.669 -1.0945  1.6938  1.5885
   7823SM  H13G10373   2.376   6.931   8.764 -0.2060 -0.3386 -0.0363
   7823SM  C14F10374   2.420   6.728   8.793  0.0569  0.3260 -0.1111
   7823SM  H14F10375   2.487   6.774   8.868 -0.9132 -0.2614  1.1650
   7823SM  H14G10376   2.462   6.643   8.735 -1.9227 -0.8287  0.0361
   7823SM  C15F10377   2.301   6.667   8.870  0.6666  0.4122  0.4159
   7823SM  H15F10378   2.233   6.742   8.915 -0.2253 -2.5691  4.6284
   7823SM  H15G10379   2.349   6.602   8.946  1.0798 -1.7536 -1.5690
   7823SM  C16F10380   2.218   6.570   8.780 -0.0457  0.1925 -0.0335
   7823SM  H16F10381   2.279   6.506   8.713 -2.1210 -0.9402 -0.9466
   7823SM  H16G10382   2.156   6.629   8.710  1.3224  2.8482  0.8701
   7823SM  C17F10383   2.120   6.467   8.849  0.0648 -0.1397 -0.6519
   7823SM  H17F10384   2.043   6.527   8.903 -0.7604 -2.0568  0.4483
   7823SM  H17G10385   2.172   6.410   8.929  1.0419 -1.0095 -1.8848
   7823SM  C18F10386   2.031   6.386   8.757 -0.3594  0.1806 -0.7488
   7823SM  H18F10387   1.982   6.459   8.688  0.9086  0.2968 -1.5593
   7823SM  H18G10388   1.946   6.344   8.816  0.6445  0.9700  1.3409
   7823SM  C19F10389   2.113   6.274   8.671  0.1138 -0.3918 -0.4070
   7823SM  H19F10390   2.198   6.239   8.733  0.0614  2.0021  1.1557
   7823SM  H19G10391   2.155   6.340   8.592  0.5129  0.2332  0.3105
   7823SM  C20F10392   2.019   6.156   8.620  0.2553 -0.3856  0.0693
   7823SM  H20F10393   2.075   6.089   8.552 -0.5066 -0.5522 -0.3986
   7823SM  H20G10394   1.936   6.201   8.563  0.1464  1.6892  1.7190
   7823SM  C21F10395   1.973   6.072   8.739  0.5800 -0.3344 -0.0296
   7823SM  H21F10396   1.951   6.145   8.820  0.1004  0.1237 -0.5620
   7823SM  H21G10397   2.056   6.008   8.777  1.2402  1.4043  1.5676
   7823SM  C22F10398   1.848   5.979   8.713  0.1869 -0.0869 -0.0334
   7823SM  H22F10399   1.852   5.938   8.610 -0.3997  2.0137 -0.9515
   7823SM  H22G10400   1.759   6.047   8.713  1.1007  1.2960  2.9205
   7823SM  C23F10401   1.827   5.865   8.805  0.1333 -0.2155  0.2057
   7823SM  H23F10402   1.908   5.789   8.806  1.7443  1.4125 -0.6319
   7823SM  H23G10403   1.748   5.800   8.760 -0.7274  0.9959 -0.0887
   7823SM  H23H10404   1.786   5.906   8.900  1.0535  2.7075 -0.5653
   7923SM     N10405   6.106   1.452   8.158  0.4134 -0.1561  0.0808
   7923SM   C1510406   6.172   1.368   8.055 -0.5839  0.2593  0.5882
   7923SM  H15A10407   6.113   1.347   7.967 -1.0799 -0.2901  1.0408
   7923SM  H15B10408   6.204   1.273   8.096  0.3680  0.1227 -0.4189
   7923SM  H15C10409   6.261   1.414   8.016 -0.0953 -0.1127  1.2498
   7923SM   C1410410   6.047   1.571   8.094  0.8073  0.4408 -0.4462
   7923SM  H14A10411   5.962   1.544   8.033 -0.4097  1.4871  0.7418
   7923SM  H14B10412   6.130   1.618   8.043  2.0890  0.4421  1.5363
   7923SM  H14C10413   6.005   1.638   8.168 -0.6073 -2.4238  1.5409
   7923SM   C1310414   6.001   1.378   8.233 -0.4442 -0.3496  0.8325
   7923SM  H13A10415   5.929   1.341   8.162 -0.2041  0.6774  0.0274
   7923SM  H13B10416   5.951   1.438   8.307  0.1295  0.0100  0.9396
   7923SM  H13C10417   6.050   1.295   8.281 -1.1183 -0.7427  0.8470
   7923SM   C1210418   6.214   1.499   8.252 -0.7829 -0.3571 -0.3823
   7923SM  H12A10419   6.179   1.518   8.353  0.3766 -0.3780  0.0501
   7923SM  H12B10420   6.249   1.588   8.203 -0.6831 -0.3273 -0.2594
   7923SM   C1110421   6.334   1.405   8.281  0.8399 -0.0230  0.3097
   7923SM  H11A10422   6.293   1.302   8.278  1.0910 -0.5213  5.3824
   7923SM  H11B10423   6.387   1.420   8.378 -3.0466 -0.0873  2.6347
   7923SM     P10424   6.499   1.561   8.149  0.0846 -0.6839  0.1271
   7923SM   O1310425   6.407   1.654   8.078 -0.1356  0.5424  0.4474
   7923SM   O1410426   6.550   1.615   8.278 -0.4240  0.1070  0.0357
   7923SM   O1110427   6.615   1.522   8.054 -0.0935 -0.7066 -0.2537
   7923SM   O1210428   6.428   1.427   8.172 -0.5758  1.0154  0.1442
   7923SM   C1S10429   6.589   1.436   7.945  0.6148 -0.1657  0.0924
   7923SM   H1S10430   6.493   1.380   7.951  0.7837 -0.5836 -0.8405
   7923SM   H1T10431   6.672   1.363   7.930 -0.8176 -1.4373 -2.3138
   7923SM    NF10432   6.529   1.426   7.705  0.3488  0.4122 -0.1039
   7923SM   HNF10433   6.599   1.381   7.650 -0.0003 -1.0713  0.6199
   7923SM   C2S10434   6.564   1.515   7.810  0.2305 -0.0220 -0.5021
   7923SM   H2S10435   6.487   1.593   7.830 -0.0036  0.6069 -3.3238
   7923SM   C3S10436   6.696   1.589   7.778 -0.8867  0.0007  0.7854
   7923SM   H3S10437   6.769   1.506   7.762 -0.9717  0.0166  0.3018
   7923SM    O310438   6.757   1.659   7.883 -0.6212  0.1690  0.5491
   7923SM   HO310439   6.718   1.622   7.962  1.9697  1.0929  2.3717
   7923SM   C4S10440   6.684   1.678   7.659  0.0153  0.8128 -0.9480
   7923SM   H4S10441   6.603   1.752   7.662  0.2397  1.1218 -1.9666
   7923SM   C5S10442   6.751   1.656   7.547  0.1472  0.4053  0.0906
   7923SM   H5S10443   6.819   1.570   7.541  0.8087  0.8838  0.6040
   7923SM   C6S10444   6.731   1.720   7.411  0.0036 -0.1146  0.0221
   7923SM   H6S10445   6.827   1.764   7.378 -1.2126  0.7221 -2.7139
   7923SM   H6T10446   6.666   1.810   7.423  0.8649  0.9401 -2.6462
   7923SM   C7S10447   6.674   1.622   7.305  0.4729  0.1387 -0.2264
   7923SM   H7S10448   6.564   1.614   7.308  0.3856  1.2782  0.0764
   7923SM   H7T10449   6.719   1.524   7.331  0.1745  0.6021  2.2490
   7923SM   C8S10450   6.695   1.674   7.159  0.9298 -0.1705 -0.5044
   7923SM   H8S10451   6.669   1.588   7.094  0.5744  0.7476 -1.6154
   7923SM   H8T10452   6.800   1.695   7.129  2.8541 -4.7117  2.0066
   7923SM   C9S10453   6.590   1.788   7.133  0.2244 -0.6279 -0.6002
   7923SM   H9S10454   6.602   1.859   7.218  1.3464 -0.9727 -0.4515
   7923SM   H9T10455   6.484   1.761   7.114  0.4301 -1.9513  0.0483
   7923SM  C10S10456   6.621   1.864   7.002  0.0448  0.1812  0.3522
   7923SM  H10S10457   6.728   1.877   6.975  0.4630 -2.1391  0.6378
   7923SM  H10T10458   6.580   1.965   7.024 -1.2845 -0.4752  1.0396
   7923SM  C11S10459   6.548   1.807   6.879  0.5771  0.3256 -0.4317
   7923SM  H11S10460   6.438   1.811   6.895  0.6599  0.5417  0.1255
   7923SM  H11T10461   6.571   1.699   6.887  1.5006  0.6259  1.4738
   7923SM  C12S10462   6.577   1.899   6.760  0.1305  0.1302  0.0645
   7923SM  H12S10463   6.682   1.896   6.725  0.3549  1.1219  0.6114
   7923SM  H12T10464   6.564   2.004   6.794 -2.8667 -0.2592  0.4519
   7923SM  C13S10465   6.462   1.880   6.658 -0.1799 -0.2855  0.7314
   7923SM  H13S10466   6.370   1.908   6.714  0.6926  2.2247  1.0710
   7923SM  H13T10467   6.447   1.777   6.621 -0.6932  0.3436 -0.8788
   7923SM  C14S10468   6.483   1.973   6.534  0.1351 -0.3781  0.6460
   7923SM  H14S10469   6.540   2.061   6.570 -2.0451  0.8623  1.2378
   7923SM  H14T10470   6.387   2.013   6.497 -0.4001 -2.8811 -0.8474
   7923SM  C15S10471   6.561   1.905   6.425 -0.2279 -0.0524 -0.6962
   7923SM  H15S10472   6.492   1.820   6.406 -0.5593 -0.0822  0.5173
   7923SM  H15T10473   6.655   1.860   6.463 -0.5632 -0.9165 -0.8673
   7923SM  C16S10474   6.583   1.985   6.298 -0.0640  0.1922  0.2235
   7923SM  H16S10475   6.608   2.091   6.318  1.7971 -0.3293  0.8851
   7923SM  H16T10476   6.489   1.996   6.240 -0.2813  0.6325  0.6544
   7923SM  C17S10477   6.686   1.929   6.203  0.5611  0.1317 -0.7401
   7923SM  H17S10478   6.650   1.824   6.198 -1.8728  0.7656  1.2602
   7923SM  H17T10479   6.784   1.935   6.256 -0.1880  0.1308  0.6959
   7923SM  C18S10480   6.710   2.000   6.067 -0.5389  0.9671  0.2494
   7923SM  H18S10481   6.702   2.109   6.084 -2.3853  1.0738 -1.0542
   7923SM  H18T10482   6.636   1.974   5.989  0.9807 -0.7910 -0.6857
   7923SM  H18U10483   6.813   1.976   6.034 -1.1538 -0.3339 -0.8404
   7923SM   C1F10484   6.399   1.390   7.682 -0.5082  0.4285 -0.3786
   7923SM    OF10485   6.311   1.422   7.762  0.6399 -0.3383 -0.0728
   7923SM   C2F10486   6.376   1.321   7.555  0.3228 -0.0796  0.0896
   7923SM   H2F10487   6.295   1.245   7.553 -0.5276  0.8097 -0.0128
   7923SM   H2G10488   6.469   1.265   7.530 -0.8540 -2.4013  0.6189
   7923SM   C3F10489   6.357   1.421   7.438 -0.4399  0.2608 -0.2220
   7923SM   H3F10490   6.456   1.472   7.427 -0.3495  0.1157 -0.0728
   7923SM   H3G10491   6.284   1.496   7.474 -0.4576 -1.0796  2.8533
   7923SM   C4F10492   6.327   1.351   7.307  0.1501 -0.0591 -0.3556
   7923SM   H4F10493   6.241   1.280   7.314 -0.5198  0.6562 -1.1441
   7923SM   H4G10494   6.415   1.288   7.281 -0.5399 -1.0014 -0.5033
   7923SM   C5F10495   6.322   1.456   7.193  1.2316 -0.1190  0.6217
   7923SM   H5F10496   6.415   1.515   7.180  1.2900 -0.4548 -0.5047
   7923SM   H5G10497   6.244   1.533   7.209  0.1273 -1.2677  0.9411
   7923SM   C6F10498   6.283   1.398   7.055  0.5873  0.3644 -0.8105
   7923SM   H6F10499   6.198   1.327   7.062  0.8431  0.2004  1.0121
   7923SM   H6G10500   6.371   1.352   7.004  1.1219  1.7508 -1.1738
   7923SM   C7F10501   6.224   1.504   6.955 -0.6303  0.2947 -0.0696
   7923SM   H7F10502   6.278   1.600   6.968 -0.2789  0.2216 -0.9102
   7923SM   H7G10503   6.119   1.526   6.983 -0.6352 -1.0153  1.0543
   7923SM   C8F10504   6.218   1.467   6.801  0.2629  0.5970 -0.0418
   7923SM   H8F10505   6.324   1.466   6.767 -0.0126  3.1752 -1.1837
   7923SM   H8G10506   6.180   1.549   6.737  0.4099  0.6229 -0.0969
   7923SM   C9F10507   6.115   1.355   6.758 -0.6826  0.0098 -0.5959
   7923SM   H9F10508   6.012   1.385   6.788 -1.5376 -1.9451 -1.3860
   7923SM   H9G10509   6.132   1.263   6.818 -0.2571  0.0253 -0.6960
   7923SM  C10F10510   6.126   1.318   6.610  0.3048 -0.0150 -0.3396
   7923SM  H10F10511   6.050   1.242   6.583  0.8684 -0.5589 -0.4118
   7923SM  H10G10512   6.226   1.285   6.576 -1.0615 -2.3897 -2.3582
   7923SM  C11F10513   6.086   1.440   6.514 -0.7359  0.0697 -0.1268
   7923SM  H11F10514   6.168   1.515   6.522  0.0477 -0.6222 -1.3814
   7923SM  H11G10515   5.994   1.483   6.559 -2.5795 -2.9966 -0.7293
   7923SM  C12F10516   6.059   1.387   6.376 -0.1460 -0.4031  0.2196
   7923SM  H12F10517   6.003   1.291   6.369 -1.8391  0.5941 -0.7310
   7923SM  H12G10518   6.156   1.352   6.336  0.8861  0.5702  1.7802
   7923SM  C13F10519   5.988   1.482   6.278  0.5526  0.1866  0.2744
   7923SM  H13F10520   5.895   1.521   6.325 -0.2855  1.8538 -2.5012
   7923SM  H13G10521   5.952   1.430   6.187  1.6217  0.2801 -0.2139
   7923SM  C14F10522   6.068   1.603   6.234  0.6195 -0.4609  0.5361
   7923SM  H14F10523   6.151   1.564   6.172 -0.5700 -0.7846 -0.9031
   7923SM  H14G10524   6.112   1.655   6.322  0.4986 -1.8672  1.4555
   7923SM  C15F10525   5.984   1.699   6.136 -0.6161 -0.4066  0.2557
   7923SM  H15F10526   5.888   1.733   6.181 -0.0654 -0.2588  1.3424
   7923SM  H15G10527   5.966   1.630   6.050  2.2160 -2.1489  0.9366
   7923SM  C16F10528   6.059   1.822   6.105 -1.3657 -0.7574  0.1232
   7923SM  H16F10529   6.089   1.870   6.200 -0.7975 -0.0538 -0.3941
   7923SM  H16G10530   6.003   1.891   6.038 -1.6408 -0.3396  0.7736
   7923SM  C17F10531   6.205   1.796   6.062 -0.3127  0.1437 -0.2617
   7923SM  H17F10532   6.203   1.738   5.967 -1.5926 -1.0829  0.4825
   7923SM  H17G10533   6.254   1.727   6.134  1.1767  1.4009 -0.0027
   7923SM  C18F10534   6.287   1.927   6.042  0.1952 -0.3253 -0.4979
   7923SM  H18F10535   6.379   1.880   6.000  1.0946  1.4568 -0.6251
   7923SM  H18G10536   6.313   1.986   6.133  0.5249 -0.7029 -0.3447
   7923SM  C19F10537   6.231   2.020   5.934  0.0151  0.8102  0.3291
   7923SM  H19F10538   6.154   2.092   5.969 -0.6021  1.3058 -1.9123
   7923SM  H19G10539   6.180   1.965   5.852 -0.8910  1.9754  0.0797
   7923SM  C20F10540   6.345   2.100   5.865  0.1114 -0.1547 -0.9243
   7923SM  H20F10541   6.291   2.153   5.783 -1.6488  0.1271  0.3520
   7923SM  H20G10542   6.426   2.039   5.821  0.4144 -0.1459 -0.3876
   7923SM  C21F10543   6.406   2.205   5.956  0.0251  0.7260 -0.1417
   7923SM  H21F10544   6.474   2.146   6.021  0.4767  0.8313 -0.5166
   7923SM  H21G10545   6.319   2.243   6.014 -0.6920 -1.0116 -0.0372
   7923SM  C22F10546   6.481   2.304   5.863  0.2964  0.0635 -0.1967
   7923SM  H22F10547   6.416   2.359   5.792  1.2665 -0.2888 -1.3916
   7923SM  H22G10548   6.545   2.248   5.792  0.9616  1.3724 -0.6706
   7923SM  C23F10549   6.560   2.408   5.944  0.2598 -0.2431 -0.6674
   7923SM  H23F10550   6.603   2.480   5.871  0.5756 -1.2612 -1.4932
   7923SM  H23G10551   6.652   2.364   5.989 -1.0685 -1.6143  0.8133
   7923SM  H23H10552   6.503   2.453   6.028 -0.4415  0.3316 -1.4376
   8023SM     N10553   0.625   0.977   8.112  0.4446  0.5664  0.1943
   8023SM   C1510554   0.691   1.065   8.215 -0.1405  0.6988  0.1258
   8023SM  H15A10555   0.757   1.008   8.279 -1.2689  0.7641  1.3902
   8023SM  H15B10556   0.620   1.120   8.274 -1.8995 -1.1293 -0.1914
   8023SM  H15C10557   0.763   1.128   8.164  0.2693 -0.5937 -0.9431
   8023SM   C1410558   0.735   0.897   8.045  0.3872 -0.7581  0.4348
   8023SM  H14A10559   0.784   0.828   8.113  1.3591  0.2760  0.8264
   8023SM  H14B10560   0.816   0.964   8.019  1.3009 -0.2617  3.9809
   8023SM  H14C10561   0.700   0.837   7.962 -0.3390  0.1666  0.0562
   8023SM   C1310562   0.517   0.880   8.165  0.5169 -0.2207 -0.1671
   8023SM  H13A10563   0.553   0.803   8.232 -0.4070  0.0040  0.6022
   8023SM  H13B10564   0.465   0.833   8.082 -2.0294  0.3735  1.0062
   8023SM  H13C10565   0.443   0.932   8.224  1.8390  2.3387 -0.6152
   8023SM   C1210566   0.559   1.055   7.997 -0.1822  0.4630 -0.1326
   8023SM  H12A10567   0.483   1.121   8.037 -2.5110 -1.6872 -0.8151
   8023SM  H12B10568   0.512   0.994   7.922  0.0116  0.1633 -0.0137
   8023SM   C1110569   0.641   1.161   7.918  0.2787 -0.1057 -0.6444
   8023SM  H11A10570   0.563   1.198   7.847  0.3065 -0.2929 -0.7743
   8023SM  H11B10571   0.716   1.113   7.852 -0.3865  1.2532 -2.4739
   8023SM     P10572   0.625   1.395   8.040 -0.0101  0.1044 -0.0091
   8023SM   O1310573   0.530   1.360   8.147  0.5381  0.2613  0.2037
   8023SM   O1410574   0.725   1.498   8.066  0.3815 -0.1747 -0.4145
   8023SM   O1110575   0.534   1.437   7.914 -0.1460  0.2677  0.7958
   8023SM   O1210576   0.701   1.267   7.994 -0.5733  0.0270 -0.5060
   8023SM   C1S10577   0.596   1.510   7.813  0.1607  0.1027 -0.4582
   8023SM   H1S10578   0.706   1.490   7.815 -0.1301 -1.5840  1.0897
   8023SM   H1T10579   0.565   1.616   7.827  0.2493  0.0905 -0.1642
   8023SM    NF10580   0.660   1.512   7.579  0.9906  0.5229  0.4177
   8023SM   HNF10581   0.643   1.606   7.549 -0.4371  0.1263 -0.1174
   8023SM   C2S10582   0.554   1.461   7.667 -0.2981  1.2322  0.0540
   8023SM   H2S10583   0.554   1.350   7.661 -0.7406  1.2798 -1.0781
   8023SM   C3S10584   0.412   1.513   7.648 -0.0733 -0.3668  0.8123
   8023SM   H3S10585   0.407   1.620   7.677 -1.3009 -0.5677  1.3942
   8023SM    O310586   0.327   1.446   7.732  0.6275 -0.1592 -0.1497
   8023SM   HO310587   0.381   1.394   7.791 -2.6266 -2.3900  1.1390
   8023SM   C4S10588   0.357   1.498   7.503  0.2184 -0.0421 -0.5025
   8023SM   H4S10589   0.352   1.394   7.468 -0.2507  0.2713 -1.3949
   8023SM   C5S10590   0.325   1.594   7.412 -0.1028  0.1586  0.1618
   8023SM   H5S10591   0.344   1.698   7.444 -2.5735  0.3573  1.2219
   8023SM   C6S10592   0.280   1.576   7.265 -0.6853  0.4686  0.0775
   8023SM   H6S10593   0.175   1.612   7.262 -1.0071 -0.4342  0.1458
   8023SM   H6T10594   0.265   1.469   7.237 -1.8641  0.8382 -0.7748
   8023SM   C7S10595   0.361   1.642   7.155 -0.0744 -0.0956 -0.2333
   8023SM   H7S10596   0.459   1.589   7.155 -1.8378 -3.7100 -0.9086
   8023SM   H7T10597   0.363   1.752   7.169  0.5205 -0.0727 -0.4959
   8023SM   C8S10598   0.294   1.620   7.016  0.0119 -0.2651  0.2453
   8023SM   H8S10599   0.195   1.670   7.011  1.2038  2.3944  1.2816
   8023SM   H8T10600   0.276   1.512   7.001 -2.4486  0.0947  0.2172
   8023SM   C9S10601   0.378   1.672   6.897 -0.1562  0.4136 -0.2051
   8023SM   H9S10602   0.462   1.601   6.884  0.4456  1.2994 -1.3794
   8023SM   H9T10603   0.431   1.764   6.928 -1.3016  0.6641  1.1290
   8023SM  C10S10604   0.310   1.673   6.756  0.0457 -0.3117 -0.0911
   8023SM  H10S10605   0.208   1.712   6.772  1.0575  3.0897 -1.0976
   8023SM  H10T10606   0.283   1.571   6.722  0.0559  0.1660 -1.6262
   8023SM  C11S10607   0.396   1.742   6.650  0.2813 -0.0779 -0.0913
   8023SM  H11S10608   0.504   1.714   6.647 -0.2289 -2.1827 -0.6217
   8023SM  H11T10609   0.405   1.849   6.678  0.6113 -0.0179 -0.4183
   8023SM  C12S10610   0.339   1.740   6.510  0.1847  0.4316  0.2180
   8023SM  H12S10611   0.395   1.814   6.449 -0.0375  0.7941  0.4533
   8023SM  H12T10612   0.232   1.768   6.508 -0.9443 -3.1244 -3.1951
   8023SM  C13S10613   0.335   1.602   6.436 -0.2379 -0.3556 -0.4239
   8023SM  H13S10614   0.286   1.519   6.492  1.0912  0.1837  1.6452
   8023SM  H13T10615   0.444   1.581   6.431  0.0917  0.1176  2.8154
   8023SM  C14S10616   0.291   1.605   6.286  0.2766 -0.6797  0.0365
   8023SM  H14S10617   0.376   1.561   6.230 -0.2124 -1.2120 -0.2986
   8023SM  H14T10618   0.258   1.701   6.242  0.2027 -0.4136  0.6649
   8023SM  C15S10619   0.180   1.500   6.252  0.2456  0.4841 -0.0924
   8023SM  H15S10620   0.090   1.534   6.309 -0.1180 -0.0395 -0.3393
   8023SM  H15T10621   0.220   1.405   6.294  0.2684 -0.3815 -1.9775
   8023SM  C16S10622   0.139   1.496   6.108  0.3626  0.5081 -0.9126
   8023SM  H16S10623   0.089   1.591   6.081  0.5434  1.2933  1.3587
   8023SM  H16T10624   0.059   1.419   6.099  0.1230  0.4926  1.0342
   8023SM  C17S10625   0.256   1.456   6.013 -0.1745  0.1692  0.1297
   8023SM  H17S10626   0.308   1.367   6.053  0.1975 -1.2007 -3.0943
   8023SM  H17T10627   0.327   1.541   5.998  0.5720 -0.9821 -4.5256
   8023SM  C18S10628   0.208   1.416   5.866  0.2999  1.4124  0.4216
   8023SM  H18S10629   0.126   1.484   5.834  1.0809  1.8457 -0.7157
   8023SM  H18T10630   0.162   1.315   5.868 -0.3933  1.6784 -1.0863
   8023SM  H18U10631   0.292   1.417   5.794  2.2693 -0.9173  2.5082
   8023SM   C1F10632   0.778   1.459   7.561 -0.2934 -0.1381  0.7619
   8023SM    OF10633   0.810   1.358   7.625  0.1423 -0.0287 -0.0698
   8023SM   C2F10634   0.865   1.528   7.453  0.1589 -0.2749 -0.6387
   8023SM   H2F10635   0.875   1.633   7.486  0.8970 -0.4849 -0.1648
   8023SM   H2G10636   0.814   1.513   7.356  1.1205  1.0367 -1.3743
   8023SM   C3F10637   1.006   1.467   7.449 -0.1090  0.2967 -1.0188
   8023SM   H3F10638   1.026   1.358   7.437  2.4567  0.5912 -0.0793
   8023SM   H3G10639   1.060   1.496   7.541 -0.4489 -1.0372 -0.3628
   8023SM   C4F10640   1.082   1.525   7.328  0.4993  0.0253  0.1330
   8023SM   H4F10641   1.188   1.493   7.338  0.6769  0.3999 -0.5072
   8023SM   H4G10642   1.081   1.636   7.334  2.3828  0.0453  0.8063
   8023SM   C5F10643   1.029   1.463   7.197 -1.1764  0.5066  0.8303
   8023SM   H5F10644   0.936   1.510   7.158 -2.7160 -1.4735  1.8901
   8023SM   H5G10645   1.010   1.355   7.216  3.3535 -0.5435  0.5026
   8023SM   C6F10646   1.128   1.458   7.080 -0.6048  0.1418  0.1730
   8023SM   H6F10647   1.216   1.393   7.096 -1.7034 -1.1293  1.2762
   8023SM   H6G10648   1.168   1.558   7.053  0.6819 -0.7346 -1.3182
   8023SM   C7F10649   1.067   1.392   6.950  0.3235 -0.3702 -0.0986
   8023SM   H7F10650   1.017   1.477   6.899  1.7790  0.4822 -0.1695
   8023SM   H7G10651   0.985   1.321   6.974 -0.0661 -0.6557 -2.1092
   8023SM   C8F10652   1.171   1.338   6.859  0.1007 -0.4691  0.1290
   8023SM   H8F10653   1.191   1.234   6.893  0.4009  0.0005  1.4261
   8023SM   H8G10654   1.264   1.397   6.852 -0.4180  0.4388  0.7658
   8023SM   C9F10655   1.109   1.328   6.722  0.0036  0.5445  0.0312
   8023SM   H9F10656   1.090   1.426   6.673 -1.0968  0.5432  0.4344
   8023SM   H9G10657   1.006   1.285   6.724 -0.2169  1.0368  2.5043
   8023SM  C10F10658   1.186   1.240   6.623 -0.4774  0.2663 -0.0809
   8023SM  H10F10659   1.127   1.224   6.531  0.6804 -0.6482 -0.7043
   8023SM  H10G10660   1.214   1.148   6.679  1.4371  0.4368 -0.6886
   8023SM  C11F10661   1.317   1.311   6.564 -0.7204  0.8707  0.1990
   8023SM  H11F10662   1.397   1.288   6.638 -0.1447 -0.5273 -0.8067
   8023SM  H11G10663   1.294   1.418   6.548 -0.3474  1.3364  2.4118
   8023SM  C12F10664   1.374   1.241   6.435  0.0271  0.1456  0.3798
   8023SM  H12F10665   1.302   1.263   6.352  0.8331  0.3820 -0.2735
   8023SM  H12G10666   1.391   1.132   6.444 -1.5582 -0.3053 -1.3225
   8023SM  C13F10667   1.508   1.308   6.393  0.0700  0.0763 -0.2483
   8023SM  H13F10668   1.578   1.343   6.471  0.7923 -0.8276 -0.4691
   8023SM  H13G10669   1.496   1.408   6.347  0.6650  0.0081 -0.5663
   8023SM  C14F10670   1.579   1.224   6.291 -0.1063 -0.3596 -0.1647
   8023SM  H14F10671   1.499   1.185   6.223 -0.9400 -0.5158  0.8803
   8023SM  H14G10672   1.626   1.138   6.344 -0.1524  0.3038  0.9707
   8023SM  C15F10673   1.695   1.293   6.221 -0.1723  0.1823  0.6665
   8023SM  H15F10674   1.775   1.316   6.294  0.2308 -1.4114  0.7651
   8023SM  H15G10675   1.667   1.394   6.184 -2.1499 -0.4136  0.4021
   8023SM  C16F10676   1.737   1.211   6.096  0.6527  0.1822 -0.1941
   8023SM  H16F10677   1.828   1.260   6.055 -0.2375  1.2816 -0.9262
   8023SM  H16G10678   1.657   1.232   6.022  1.7152  3.5993 -0.5950
   8023SM  C17F10679   1.766   1.060   6.114  0.2183 -0.3710  0.3752
   8023SM  H17F10680   1.676   1.015   6.162 -0.7354  1.4895  0.4021
   8023SM  H17G10681   1.856   1.066   6.179  0.2721 -1.0107  0.3748
   8023SM  C18F10682   1.797   0.983   5.987 -0.0802 -0.2556 -0.0514
   8023SM  H18F10683   1.721   0.989   5.906 -0.1805 -0.7754  0.0016
   8023SM  H18G10684   1.808   0.881   6.028 -0.9037 -0.5076 -0.4332
   8023SM  C19F10685   1.940   1.016   5.931  0.0297 -0.1160  0.0100
   8023SM  H19F10686   2.007   1.014   6.020 -0.3305  0.3229  0.2957
   8023SM  H19G10687   1.940   1.123   5.901  2.0195  0.2868  1.2195
   8023SM  C20F10688   1.990   0.928   5.812  0.8907 -0.0516  0.7062
   8023SM  H20F10689   2.092   0.956   5.778  0.1514 -0.6301 -2.2386
   8023SM  H20G10690   1.934   0.962   5.722  0.6600 -1.6050  0.2256
   8023SM  C21F10691   1.977   0.776   5.823 -0.1567  0.2371  0.0006
   8023SM  H21F10692   1.880   0.735   5.856  0.1700 -0.8344 -0.3380
   8023SM  H21G10693   2.039   0.751   5.912  0.3431  0.0908 -0.3796
   8023SM  C22F10694   2.038   0.708   5.701  0.4458  0.2183 -0.3712
   8023SM  H22F10695   2.039   0.601   5.730 -0.4571  0.2363 -0.2446
   8023SM  H22G10696   2.141   0.739   5.673 -0.1165  1.9427 -0.6288
   8023SM  C23F10697   1.955   0.735   5.578 -0.5895  0.8408  0.6927
   8023SM  H23F10698   1.935   0.842   5.557 -3.6281  0.5537  1.6671
   8023SM  H23G10699   1.855   0.688   5.583  0.2589 -1.0880  0.5766
   8023SM  H23H10700   2.001   0.695   5.485 -0.3405  1.8626  0.3589
   8123SM     N10701   3.278   4.383   3.842 -0.1849 -0.5223  0.2986
   8123SM   C1510702   3.219   4.265   3.770  0.4526  0.1217  0.0105
   8123SM  H15A10703   3.205   4.301   3.669  4.1024  1.0022 -0.3038
   8123SM  H15B10704   3.126   4.230   3.814 -0.5256  0.0998 -1.9728
   8123SM  H15C10705   3.285   4.182   3.752  0.0964 -0.0623 -0.4761
   8123SM   C1410706   3.399   4.420   3.771 -0.8719 -0.5882  0.0013
   8123SM  H14A10707   3.458   4.330   3.773  1.9833  1.0425 -2.0385
   8123SM  H14B10708   3.454   4.496   3.825  1.1541 -2.3050  0.4612
   8123SM  H14C10709   3.381   4.456   3.671  2.2540 -0.7620 -0.7233
   8123SM   C1310710   3.188   4.504   3.864  0.1769 -0.2406 -0.1064
   8123SM  H13A10711   3.087   4.467   3.876  0.0527 -0.1608 -0.8537
   8123SM  H13B10712   3.189   4.572   3.779 -2.0098 -1.4333 -1.1814
   8123SM  H13C10713   3.217   4.555   3.954 -0.2166  1.1042 -0.7112
   8123SM   C1210714   3.313   4.334   3.986  0.1051  0.3479 -1.0839
   8123SM  H12A10715   3.357   4.236   3.977  1.8654  0.5186  3.3317
   8123SM  H12B10716   3.219   4.342   4.040  0.2179 -0.4716 -0.7629
   8123SM   C1110717   3.403   4.417   4.076 -0.4709 -0.2958 -0.0665
   8123SM  H11A10718   3.401   4.367   4.175 -2.4809 -1.5292 -0.6463
   8123SM  H11B10719   3.366   4.521   4.087  1.6192  0.3480  1.2983
   8123SM     P10720   3.640   4.328   4.029 -0.0720 -0.0523  0.5311
   8123SM   O1310721   3.595   4.202   3.967  0.1577 -0.1850 -0.5166
   8123SM   O1410722   3.772   4.381   3.979  0.0476 -0.5265 -0.5896
   8123SM   O1110723   3.643   4.319   4.186  0.0501  0.4676  0.4065
   8123SM   O1210724   3.532   4.442   4.022 -0.9305 -0.1748 -0.2507
   8123SM   C1S10725   3.696   4.427   4.260  0.8288  0.5136  0.4114
   8123SM   H1S10726   3.632   4.514   4.236 -1.3009 -0.9388  0.5903
   8123SM   H1T10727   3.805   4.444   4.243  1.4054 -3.0113 -0.3393
   8123SM    NF10728   3.703   4.538   4.475  0.3695  0.6911 -0.1269
   8123SM   HNF10729   3.779   4.547   4.539  0.2555 -0.4782  0.1771
   8123SM   C2S10730   3.685   4.402   4.411  1.1599 -0.4309  0.2875
   8123SM   H2S10731   3.584   4.364   4.438  0.6316  1.3845  1.0590
   8123SM   C3S10732   3.792   4.294   4.445 -0.2233  0.3199 -0.4926
   8123SM   H3S10733   3.889   4.346   4.430  1.1698 -1.9878 -0.0250
   8123SM    O310734   3.806   4.179   4.362  0.0452  0.1394 -0.2149
   8123SM   HO310735   3.739   4.206   4.298 -2.8767  0.3238  2.6445
   8123SM   C4S10736   3.773   4.251   4.589 -0.4775 -0.0373  0.1115
   8123SM   H4S10737   3.667   4.236   4.614 -0.4942 -0.2489 -0.0896
   8123SM   C5S10738   3.856   4.246   4.691 -0.5876 -0.2603 -0.1922
   8123SM   H5S10739   3.959   4.277   4.670 -0.2913 -0.9812  0.1353
   8123SM   C6S10740   3.826   4.224   4.839 -0.0092 -0.4738  0.3139
   8123SM   H6S10741   3.719   4.200   4.856  0.2065  0.0298  2.8447
   8123SM   H6T10742   3.847   4.317   4.896  1.4751  0.3888 -1.5370
   8123SM   C7S10743   3.912   4.118   4.902 -0.0931  0.3368  0.1451
   8123SM   H7S10744   4.021   4.142   4.903 -0.1732  0.7283 -0.0673
   8123SM   H7T10745   3.903   4.023   4.846 -2.5951  0.7915 -0.3459
   8123SM   C8S10746   3.868   4.093   5.045  0.2711 -0.0408  0.1032
   8123SM   H8S10747   3.946   4.030   5.093  1.1354  1.3120  0.5336
   8123SM   H8T10748   3.772   4.037   5.040  0.3530 -0.1539 -0.2257
   8123SM   C9S10749   3.824   4.213   5.133 -0.2021 -0.0492 -0.5503
   8123SM   H9S10750   3.743   4.261   5.075 -0.7289  0.1661  0.3341
   8123SM   H9T10751   3.905   4.289   5.141  0.4647 -0.7777 -0.2421
   8123SM  C10S10752   3.769   4.161   5.271  0.0806  0.2991 -0.2352
   8123SM  H10S10753   3.712   4.069   5.248 -3.6352  1.7759  2.1295
   8123SM  H10T10754   3.697   4.236   5.310  1.4832  0.2676  2.6594
   8123SM  C11S10755   3.871   4.140   5.385 -0.3332 -0.3863 -0.0697
   8123SM  H11S10756   3.892   4.241   5.426  0.0057 -0.5837  0.2496
   8123SM  H11T10757   3.967   4.096   5.351  0.0896  1.2338 -1.1118
   8123SM  C12S10758   3.810   4.059   5.505  0.2708 -1.0520 -0.2399
   8123SM  H12S10759   3.774   3.962   5.464  0.1357 -1.0708 -0.0792
   8123SM  H12T10760   3.723   4.113   5.548  0.8997 -0.4349  0.2875
   8123SM  C13S10761   3.904   4.016   5.617 -0.2941 -0.2733 -0.1724
   8123SM  H13S10762   3.955   4.104   5.664 -0.0138 -0.3083 -0.4105
   8123SM  H13T10763   3.991   3.958   5.580 -0.3442  0.3978 -1.4018
   8123SM  C14S10764   3.832   3.944   5.738  0.2685 -0.3712  0.6791
   8123SM  H14S10765   3.789   3.852   5.692 -0.4529  0.5921 -0.6627
   8123SM  H14T10766   3.753   4.019   5.760 -0.3145 -0.6959 -0.2153
   8123SM  C15S10767   3.931   3.925   5.845 -0.3118  0.1754 -0.3113
   8123SM  H15S10768   3.965   4.021   5.891  0.1322  0.8089 -1.8844
   8123SM  H15T10769   4.018   3.871   5.802 -2.7734 -4.1831 -0.3969
   8123SM  C16S10770   3.879   3.812   5.943  0.0007  0.4388 -0.0345
   8123SM  H16S10771   3.873   3.716   5.887 -0.7375  0.1367  0.5523
   8123SM  H16T10772   3.773   3.840   5.960 -0.4150 -0.7387 -0.5500
   8123SM  C17S10773   3.974   3.801   6.069  0.0161 -0.2585  0.4508
   8123SM  H17S10774   3.983   3.906   6.104 -0.9499  0.6351 -1.7702
   8123SM  H17T10775   4.074   3.776   6.030  1.2246  1.3494  2.3150
   8123SM  C18S10776   3.923   3.699   6.167 -0.5327 -0.6089  0.0160
   8123SM  H18S10777   3.998   3.700   6.250  0.3648 -0.6338 -0.7814
   8123SM  H18T10778   3.916   3.600   6.118  1.0158 -1.4943  1.4288
   8123SM  H18U10779   3.825   3.713   6.218  0.4421  0.1552  1.8031
   8123SM   C1F10780   3.604   4.626   4.469  0.1815 -0.1559  0.6312
   8123SM    OF10781   3.501   4.599   4.418  0.8509  0.3522 -0.2885
   8123SM   C2F10782   3.616   4.754   4.543 -0.0248  0.7759 -0.5716
   8123SM   H2F10783   3.562   4.836   4.491  1.0547  1.6080 -0.4080
   8123SM   H2G10784   3.718   4.797   4.551  0.8886 -1.1491 -1.1801
   8123SM   C3F10785   3.533   4.743   4.673  0.4735  0.3034  0.0279
   8123SM   H3F10786   3.434   4.703   4.644  0.8467  0.8064 -2.1689
   8123SM   H3G10787   3.521   4.842   4.722  0.9520 -0.0062  0.7827
   8123SM   C4F10788   3.606   4.658   4.784  0.2761  0.0987 -0.5083
   8123SM   H4F10789   3.698   4.715   4.810 -1.3407  1.7437  2.0814
   8123SM   H4G10790   3.632   4.558   4.743 -0.1708 -0.9106  1.4981
   8123SM   C5F10791   3.523   4.641   4.912  0.1806  0.0242 -0.4479
   8123SM   H5F10792   3.420   4.605   4.890 -0.2886 -0.1618  1.8315
   8123SM   H5G10793   3.524   4.744   4.953  1.5194 -0.0331 -0.3022
   8123SM   C6F10794   3.593   4.557   5.011 -0.4133 -0.3458  1.1504
   8123SM   H6F10795   3.701   4.584   5.013 -0.6887  0.8298  0.8424
   8123SM   H6G10796   3.588   4.453   4.971  0.6502  0.6311 -1.7783
   8123SM   C7F10797   3.533   4.578   5.147 -0.9624  0.0414  0.4599
   8123SM   H7F10798   3.423   4.565   5.134 -0.6710 -1.9545 -0.3620
   8123SM   H7G10799   3.550   4.684   5.174 -0.0317 -0.3034  1.2930
   8123SM   C8F10800   3.572   4.469   5.255 -0.6820 -0.3552  0.4797
   8123SM   H8F10801   3.680   4.469   5.280 -0.3227  0.3571 -0.9651
   8123SM   H8G10802   3.529   4.374   5.214  1.3273  0.0330 -2.9207
   8123SM   C9F10803   3.497   4.499   5.387 -0.7001 -0.5198 -0.5613
   8123SM   H9F10804   3.388   4.491   5.368 -0.7726  2.7242 -2.1720
   8123SM   H9G10805   3.520   4.605   5.411 -2.2436 -0.0959 -0.8354
   8123SM  C10F10806   3.520   4.399   5.501  0.0727 -0.2994  0.2313
   8123SM  H10F10807   3.513   4.303   5.447 -1.7696  0.4099 -0.8755
   8123SM  H10G10808   3.436   4.414   5.573 -0.2872 -1.0061 -0.0409
   8123SM  C11F10809   3.647   4.415   5.586 -0.3251  0.0550  0.3460
   8123SM  H11F10810   3.661   4.525   5.593  0.2591  0.1588 -1.9140
   8123SM  H11G10811   3.738   4.374   5.538 -0.3969  0.8796 -0.5251
   8123SM  C12F10812   3.633   4.363   5.731 -0.5590 -0.1116 -0.1477
   8123SM  H12F10813   3.608   4.254   5.728  0.9284 -0.4721 -2.6639
   8123SM  H12G10814   3.555   4.424   5.780  0.0138  1.0149 -0.6013
   8123SM  C13F10815   3.761   4.371   5.825 -0.3406  0.1271  0.3805
   8123SM  H13F10816   3.800   4.475   5.839 -0.0316 -0.2059  2.2502
   8123SM  H13G10817   3.842   4.316   5.772 -2.2119 -2.7968  0.3307
   8123SM  C14F10818   3.753   4.287   5.960 -0.0046 -0.3380  0.0000
   8123SM  H14F10819   3.848   4.296   6.018 -1.7321 -0.0996  3.0246
   8123SM  H14G10820   3.733   4.182   5.933 -0.2362 -0.1601 -0.5435
   8123SM  C15F10821   3.640   4.316   6.052 -0.2044  0.5012  0.1567
   8123SM  H15F10822   3.538   4.304   6.009  0.2403  2.9525 -1.8254
   8123SM  H15G10823   3.653   4.424   6.073 -0.5173  0.3496  1.1599
   8123SM  C16F10824   3.646   4.245   6.186  0.1458 -0.2122 -0.2259
   8123SM  H16F10825   3.563   4.280   6.251 -2.2109 -2.7785 -1.6291
   8123SM  H16G10826   3.748   4.263   6.227 -0.4307 -0.7173  1.5163
   8123SM  C17F10827   3.611   4.093   6.183  0.5984 -0.3449  0.3917
   8123SM  H17F10828   3.671   4.040   6.106  3.1569 -0.7091  2.4876
   8123SM  H17G10829   3.503   4.079   6.163  0.7202 -1.1584  0.2929
   8123SM  C18F10830   3.625   4.024   6.325  0.5472 -0.4161  1.0945
   8123SM  H18F10831   3.600   3.916   6.316 -0.2994 -0.2317  1.1540
   8123SM  H18G10832   3.547   4.067   6.392 -1.4442  2.0731 -2.4671
   8123SM  C19F10833   3.770   4.046   6.375 -0.3208 -0.1025 -0.4561
   8123SM  H19F10834   3.779   4.145   6.426  0.2132 -0.5592  0.3653
   8123SM  H19G10835   3.849   4.041   6.298  1.2782 -2.1073  1.2172
   8123SM  C20F10836   3.802   3.931   6.478 -0.2535  1.0205  0.4040
   8123SM  H20F10837   3.807   3.834   6.423  1.1607  0.5826  1.2558
   8123SM  H20G10838   3.720   3.928   6.552  0.4010 -0.2877  1.1118
   8123SM  C21F10839   3.932   3.940   6.562  0.4327 -0.3659  0.2177
   8123SM  H21F10840   3.931   4.039   6.613  2.5129 -1.2279  2.0966
   8123SM  H21G10841   4.027   3.931   6.506  0.1444  1.1960 -0.5437
   8123SM  C22F10842   3.950   3.827   6.668  0.0568  0.0619 -0.7132
   8123SM  H22F10843   3.932   3.728   6.621  2.5702  0.1552 -2.0085
   8123SM  H22G10844   3.869   3.842   6.742  0.4689  2.1234 -0.6236
   8123SM  C23F10845   4.082   3.840   6.749 -0.4870  0.5247 -0.3424
   8123SM  H23F10846   4.081   3.802   6.854 -1.8100  2.9053  0.5728
   8123SM  H23G10847   4.108   3.947   6.763 -1.0088  0.5766  0.2527
   8123SM  H23H10848   4.164   3.794   6.690 -2.9113 -2.0663 -1.9622
   8223SM     N10849   4.140   4.859   3.801 -0.0140  0.8073 -0.4638
   8223SM   C1510850   4.107   4.846   3.650 -0.3463 -0.1877 -0.1667
   8223SM  H15A10851   4.146   4.931   3.596 -0.8313  0.6913  0.8214
   8223SM  H15B10852   4.002   4.838   3.628 -0.3898 -2.1086  0.5314
   8223SM  H15C10853   4.149   4.760   3.601 -1.1623  1.5330 -4.3319
   8223SM   C1410854   4.037   4.958   3.860 -0.9715  0.8804 -0.5364
   8223SM  H14A10855   3.934   4.928   3.850 -1.7496  1.9251  3.0439
   8223SM  H14B10856   4.053   5.052   3.809  0.9427  0.1965 -1.2841
   8223SM  H14C10857   4.056   4.965   3.966 -0.0664 -0.7488 -0.5623
   8223SM   C1310858   4.099   4.728   3.860 -0.1181  0.2079  0.4892
   8223SM  H13A10859   3.998   4.702   3.831 -0.3337  1.2825  0.2024
   8223SM  H13B10860   4.097   4.739   3.967 -0.8078 -1.0975  0.6286
   8223SM  H13C10861   4.159   4.641   3.839  2.1242  1.6867  0.4345
   8223SM   C1210862   4.288   4.896   3.807  0.4325 -0.3991 -0.0145
   8223SM  H12A10863   4.297   4.995   3.763 -1.8465  0.2708  0.8571
   8223SM  H12B10864   4.347   4.831   3.745  1.7319 -1.2947  2.0338
   8223SM   C1110865   4.344   4.894   3.950 -0.3640 -0.6029  0.5264
   8223SM  H11A10866   4.454   4.894   3.940 -0.4512  2.9986 -2.6098
   8223SM  H11B10867   4.321   4.800   4.004 -0.7227  0.4317  2.2714
   8223SM     P10868   4.335   5.153   3.999 -0.5360  0.1055 -0.2875
   8223SM   O1310869   4.461   5.145   3.925 -0.2093 -0.0868  0.8059
   8223SM   O1410870   4.229   5.232   3.933  0.3278  0.1512  0.8186
   8223SM   O1110871   4.361   5.219   4.149  0.2000  0.8696  0.4432
   8223SM   O1210872   4.289   5.002   4.027 -0.2478  0.2769  0.4216
   8223SM   C1S10873   4.291   5.158   4.255 -0.4702 -0.0615  0.0594
   8223SM   H1S10874   4.309   5.048   4.254  1.3830  0.1996 -1.2528
   8223SM   H1T10875   4.184   5.187   4.263 -0.3336  0.5073 -0.1185
   8223SM    NF10876   4.324   5.117   4.497 -0.0304 -0.2820  0.2775
   8223SM   HNF10877   4.271   5.156   4.573  1.6681  0.8546  0.9427
   8223SM   C2S10878   4.345   5.210   4.389 -0.3773 -0.2391  0.5418
   8223SM   H2S10879   4.455   5.214   4.376 -0.5929  0.2074 -1.5331
   8223SM   C3S10880   4.302   5.352   4.422  0.3257 -0.1115 -0.3539
   8223SM   H3S10881   4.196   5.355   4.455 -0.3830  0.3172 -2.4788
   8223SM    O310882   4.316   5.452   4.320  0.0831  0.0239  0.0435
   8223SM   HO310883   4.340   5.394   4.247 -1.5544 -1.7113  0.7889
   8223SM   C4S10884   4.380   5.388   4.551  0.1302 -0.4999  1.0394
   8223SM   H4S10885   4.326   5.366   4.644  0.9816 -5.4963  0.6253
   8223SM   C5S10886   4.509   5.432   4.557 -0.0917 -0.8737  0.5428
   8223SM   H5S10887   4.563   5.453   4.464  1.1488  1.9898  1.7873
   8223SM   C6S10888   4.599   5.447   4.683 -0.0728  0.1711  0.1563
   8223SM   H6S10889   4.615   5.555   4.698  0.7719 -0.1409  1.8019
   8223SM   H6T10890   4.693   5.394   4.655  0.0642  1.0705 -1.1396
   8223SM   C7S10891   4.539   5.390   4.819 -0.5684 -0.0838 -0.0179
   8223SM   H7S10892   4.513   5.283   4.805 -1.4518  0.1161  0.0333
   8223SM   H7T10893   4.450   5.453   4.841  0.0882  0.5498  0.8808
   8223SM   C8S10894   4.637   5.402   4.945  0.1195  0.3863  0.0047
   8223SM   H8S10895   4.668   5.507   4.965  2.1063 -0.4432  1.6118
   8223SM   H8T10896   4.731   5.355   4.909 -0.7999 -1.6820  0.1274
   8223SM   C9S10897   4.584   5.338   5.071  0.2813 -0.0982 -0.2218
   8223SM   H9S10898   4.573   5.233   5.039 -0.3854 -0.3103  0.6484
   8223SM   H9T10899   4.482   5.380   5.082  0.2827 -0.4796  1.5032
   8223SM  C10S10900   4.661   5.353   5.200 -1.1097 -0.2646 -0.0593
   8223SM  H10S10901   4.683   5.460   5.222 -1.5583 -0.3774  0.9913
   8223SM  H10T10902   4.754   5.293   5.191 -0.9141 -0.0551  0.5166
   8223SM  C11S10903   4.592   5.313   5.334 -0.2496  0.2195  0.1755
   8223SM  H11S10904   4.538   5.216   5.323 -1.7601  1.2705 -2.7839
   8223SM  H11T10905   4.510   5.388   5.346  0.5947  1.1378  0.2639
   8223SM  C12S10906   4.689   5.302   5.457 -0.3246  0.5543  0.3422
   8223SM  H12S10907   4.767   5.381   5.448  1.7084 -1.3200  0.8188
   8223SM  H12T10908   4.752   5.211   5.460  0.0840  0.8258  0.1949
   8223SM  C13S10909   4.617   5.327   5.594  0.4744  0.2346 -0.4891
   8223SM  H13S10910   4.537   5.251   5.604  0.3243  0.6262  1.7996
   8223SM  H13T10911   4.568   5.427   5.592  1.3026  0.6418 -1.5275
   8223SM  C14S10912   4.715   5.321   5.707  0.1732 -0.2090  0.0034
   8223SM  H14S10913   4.792   5.400   5.705  0.4254 -0.4599 -0.8329
   8223SM  H14T10914   4.785   5.234   5.705  0.2671 -0.1434  0.3846
   8223SM  C15S10915   4.642   5.331   5.837  0.1490  0.0971  0.1630
   8223SM  H15S10916   4.719   5.314   5.915 -0.7431 -4.6014  0.3530
   8223SM  H15T10917   4.567   5.250   5.851 -0.5100  0.6919  0.1240
   8223SM  C16S10918   4.577   5.464   5.872 -0.7990  0.0813 -0.1552
   8223SM  H16S10919   4.487   5.487   5.811  0.2603  1.6288 -1.2246
   8223SM  H16T10920   4.642   5.550   5.845  0.5298 -0.6341  0.6601
   8223SM  C17S10921   4.541   5.486   6.024  0.2821  0.5419 -0.6130
   8223SM  H17S10922   4.493   5.586   6.031  2.7633  1.7945 -0.6521
   8223SM  H17T10923   4.641   5.487   6.072  0.6321 -0.5156 -1.2859
   8223SM  C18S10924   4.455   5.376   6.077  0.4646  0.7519  1.0064
   8223SM  H18S10925   4.507   5.279   6.063  0.4874  1.0521 -1.5795
   8223SM  H18T10926   4.352   5.380   6.035  1.1140  1.2911 -0.6006
   8223SM  H18U10927   4.444   5.393   6.186 -0.3312 -1.1627  1.2713
   8223SM   C1F10928   4.378   4.998   4.502 -0.7172 -0.4249 -0.0384
   8223SM    OF10929   4.460   4.956   4.419 -0.4599 -0.2276 -0.1368
   8223SM   C2F10930   4.336   4.917   4.623  0.4866  0.6120 -0.3457
   8223SM   H2F10931   4.285   4.826   4.585 -0.6704  1.4440 -0.8479
   8223SM   H2G10932   4.249   4.967   4.671 -0.4403 -3.4807  2.8682
   8223SM   C3F10933   4.447   4.886   4.723 -0.1087  0.2635 -0.3266
   8223SM   H3F10934   4.498   4.973   4.770  0.4055 -0.5464  0.6705
   8223SM   H3G10935   4.525   4.819   4.681 -2.0165 -3.1126  1.0718
   8223SM   C4F10936   4.389   4.803   4.840  0.1503  0.2808 -0.3006
   8223SM   H4F10937   4.340   4.706   4.815  0.4038  0.3588 -1.1176
   8223SM   H4G10938   4.314   4.865   4.895 -0.9410  0.2474 -1.7010
   8223SM   C5F10939   4.498   4.764   4.944  0.0993 -0.0464 -0.2786
   8223SM   H5F10940   4.547   4.855   4.984  0.7980 -0.0782 -1.0458
   8223SM   H5G10941   4.575   4.705   4.890 -0.0392  0.3164 -0.8744
   8223SM   C6F10942   4.449   4.686   5.062  0.3641 -0.0889  0.5819
   8223SM   H6F10943   4.422   4.583   5.030  0.1628  0.4003 -0.8784
   8223SM   H6G10944   4.363   4.741   5.105 -2.7370 -2.6166 -1.8748
   8223SM   C7F10945   4.538   4.669   5.184  0.1108  0.3710 -0.4231
   8223SM   H7F10946   4.620   4.598   5.162 -1.0577 -1.4607  0.7420
   8223SM   H7G10947   4.484   4.609   5.261  2.2370 -1.3301 -0.1804
   8223SM   C8F10948   4.599   4.792   5.243 -0.2442  0.6337 -0.2219
   8223SM   H8F10949   4.537   4.883   5.227  1.4560  1.5188 -2.4412
   8223SM   H8G10950   4.697   4.821   5.199 -0.2382  1.5463  0.3745
   8223SM   C9F10951   4.613   4.792   5.401  0.3561  0.0325  0.1440
   8223SM   H9F10952   4.679   4.706   5.427  3.1396  1.8751 -0.3998
   8223SM   H9G10953   4.517   4.761   5.447  0.8145 -4.3174 -1.3111
   8223SM  C10F10954   4.664   4.923   5.454 -0.3224  0.3879  0.3041
   8223SM  H10F10955   4.609   5.013   5.418  0.8452  0.0279 -2.5998
   8223SM  H10G10956   4.765   4.942   5.414 -0.6133  2.6010  0.4810
   8223SM  C11F10957   4.679   4.920   5.604  0.4919 -0.6847  0.1353
   8223SM  H11F10958   4.720   5.021   5.629  0.0795 -0.7205  1.0115
   8223SM  H11G10959   4.748   4.841   5.638 -0.0107 -1.0851  0.2428
   8223SM  C12F10960   4.540   4.893   5.675  0.0929 -0.5072  0.2856
   8223SM  H12F10961   4.510   4.787   5.661  0.5421 -0.3731 -2.2452
   8223SM  H12G10962   4.464   4.951   5.619  0.0693 -0.6300  0.1896
   8223SM  C13F10963   4.533   4.927   5.822 -0.8302 -0.2608  0.1967
   8223SM  H13F10964   4.581   5.025   5.847  0.2236 -0.7742  0.2633
   8223SM  H13G10965   4.599   4.863   5.885  0.7110  1.3834  0.3483
   8223SM  C14F10966   4.386   4.933   5.872 -0.0650 -0.4274 -0.3298
   8223SM  H14F10967   4.335   4.836   5.855 -0.1565 -0.5245  0.4620
   8223SM  H14G10968   4.331   5.014   5.818 -1.6231  1.1085  3.1887
   8223SM  C15F10969   4.382   4.955   6.027  0.1150 -1.2852  0.1004
   8223SM  H15F10970   4.421   5.058   6.043 -0.1927 -0.4590 -3.4792
   8223SM  H15G10971   4.450   4.879   6.070  0.4769 -0.7104  0.5689
   8223SM  C16F10972   4.239   4.945   6.089  0.4147  0.2042 -0.4025
   8223SM  H16F10973   4.199   4.843   6.071 -1.3045  1.0139 -1.4320
   8223SM  H16G10974   4.175   5.021   6.040  0.0921 -1.1126 -2.1314
   8223SM  C17F10975   4.224   4.976   6.242  0.6134  0.1445  0.0577
   8223SM  H17F10976   4.120   5.011   6.255  0.2885 -0.9074  0.3946
   8223SM  H17G10977   4.290   5.064   6.261  1.2635 -0.3360  0.0695
   8223SM  C18F10978   4.263   4.859   6.334 -0.0716  0.0993 -0.1994
   8223SM  H18F10979   4.340   4.793   6.290  0.3604 -0.5519  1.4506
   8223SM  H18G10980   4.172   4.795   6.339  0.0337 -0.0522 -0.2308
   8223SM  C19F10981   4.296   4.893   6.482 -0.4057 -0.8492  0.8545
   8223SM  H19F10982   4.250   4.992   6.503  0.4633  0.0392 -1.0896
   8223SM  H19G10983   4.407   4.895   6.493 -0.2666 -2.4906 -0.0636
   8223SM  C20F10984   4.243   4.779   6.575 -0.0749 -0.4873  0.2480
   8223SM  H20F10985   4.282   4.811   6.674 -0.3194 -3.0890  1.2564
   8223SM  H20G10986   4.285   4.679   6.550 -0.6379 -0.6773  0.0585
   8223SM  C21F10987   4.092   4.777   6.593  0.7191 -0.4148  0.3923
   8223SM  H21F10988   4.047   4.720   6.508 -0.9144  2.5003 -0.8627
   8223SM  H21G10989   4.048   4.879   6.590 -3.3649 -2.0107 -0.5347
   8223SM  C22F10990   4.043   4.711   6.720  0.2742  0.1192 -0.2226
   8223SM  H22F10991   4.087   4.772   6.802 -0.7983  0.3363  0.2189
   8223SM  H22G10992   4.072   4.605   6.729 -2.9035 -1.1011 -2.5036
   8223SM  C23F10993   3.885   4.718   6.735 -0.1223  0.1617 -0.6174
   8223SM  H23F10994   3.846   4.642   6.664  4.3798 -0.6285 -2.6004
   8223SM  H23G10995   3.833   4.813   6.711 -0.1099 -0.6498 -4.3968
   8223SM  H23H10996   3.857   4.693   6.840 -2.6492  0.8901 -1.0727
   8323SM     N10997   5.000   4.319   3.713  0.4046  0.2674  0.6446
   8323SM   C1510998   4.879   4.248   3.764 -0.0387 -0.2954 -0.5757
   8323SM  H15A10999   4.848   4.182   3.684 -1.2038 -2.9642  1.8811
   8323SM  H15B11000   4.799   4.312   3.798  0.0222  0.4687 -1.8306
   8323SM  H15C11001   4.903   4.175   3.841 -1.0246 -0.3306 -0.2870
   8323SM   C1411002   5.051   4.403   3.829 -0.2652 -0.0635 -0.5851
   8323SM  H14A11003   4.978   4.482   3.840  0.3248  0.9482 -3.1004
   8323SM  H14B11004   5.143   4.450   3.797  0.1926  0.0304  0.7932
   8323SM  H14C11005   5.070   4.339   3.914  1.1149  0.9023 -0.1205
   8323SM   C1311006   5.104   4.223   3.676  0.3463  0.0592  0.0525
   8323SM  H13A11007   5.074   4.150   3.603  0.9711 -0.8866  0.7159
   8323SM  H13B11008   5.134   4.151   3.750 -0.3850  0.4628  0.7594
   8323SM  H13C11009   5.191   4.275   3.637 -0.4684 -0.4731 -2.6729
   8323SM   C1211010   4.955   4.403   3.595 -0.1196  0.0937  0.0608
   8323SM  H12A11011   4.907   4.333   3.529 -0.1180 -0.2564  0.4242
   8323SM  H12B11012   5.044   4.447   3.554  1.9131 -2.5616  1.2863
   8323SM   C1111013   4.854   4.510   3.623 -0.2588 -0.5388  0.4669
   8323SM  H11A11014   4.757   4.476   3.665 -0.7788 -1.9193 -1.6719
   8323SM  H11B11015   4.823   4.547   3.523 -0.4206  0.7986  0.9960
   8323SM     P11016   5.014   4.720   3.630  0.2722  0.5020  0.1365
   8323SM   O1311017   5.149   4.680   3.675  0.4179  0.2623 -0.6770
   8323SM   O1411018   4.984   4.738   3.488 -0.4579 -0.2969 -0.8089
   8323SM   O1111019   4.977   4.857   3.709  0.2024 -0.1071 -0.2928
   8323SM   O1211020   4.904   4.625   3.699  0.2363  0.0605  0.4329
   8323SM   C1S11021   4.959   4.864   3.853 -0.0117 -0.4866 -0.2846
   8323SM   H1S11022   4.943   4.761   3.892 -2.0815 -0.5373 -1.1155
   8323SM   H1T11023   4.866   4.919   3.880 -1.1217 -2.5254  0.2673
   8323SM    NF11024   5.066   4.943   4.078  0.0250  0.4740 -0.5262
   8323SM   HNF11025   5.075   5.033   4.121 -0.8266  1.1194 -1.6358
   8323SM   C2S11026   5.077   4.938   3.929  0.1417 -0.1013 -0.7171
   8323SM   H2S11027   5.157   4.868   3.896  0.0731 -1.2511  1.4223
   8323SM   C3S11028   5.101   5.084   3.871 -0.0893  0.1316 -0.3891
   8323SM   H3S11029   5.030   5.153   3.921  1.1323  1.9742 -1.0851
   8323SM    O311030   5.070   5.096   3.735 -0.3902  0.4267 -0.5218
   8323SM   HO311031   5.021   5.015   3.722 -1.5543  0.7736  1.3701
   8323SM   C4S11032   5.242   5.125   3.909 -0.6550 -0.0740 -0.1320
   8323SM   H4S11033   5.254   5.173   4.007  1.0604  1.5364 -1.0772
   8323SM   C5S11034   5.360   5.092   3.845  0.1424 -0.1153  0.5141
   8323SM   H5S11035   5.351   5.016   3.766 -0.9586 -3.1038  3.2911
   8323SM   C6S11036   5.496   5.126   3.895 -0.3305 -0.2755 -0.4057
   8323SM   H6S11037   5.560   5.174   3.818  0.1512  2.6791  1.6806
   8323SM   H6T11038   5.558   5.033   3.893  0.3265  0.1589 -1.9566
   8323SM   C7S11039   5.513   5.201   4.030  0.1500 -0.4515 -0.1348
   8323SM   H7S11040   5.479   5.140   4.116  1.2687  1.3675  1.6774
   8323SM   H7T11041   5.455   5.296   4.027  0.7040 -0.1211 -2.4016
   8323SM   C8S11042   5.658   5.241   4.054 -0.3662  0.2040  0.0032
   8323SM   H8S11043   5.670   5.315   4.136  0.2303  0.1529 -0.0297
   8323SM   H8T11044   5.690   5.290   3.959 -1.8604  0.0546 -0.6058
   8323SM   C9S11045   5.749   5.133   4.095 -0.1827  0.1271  0.3466
   8323SM   H9S11046   5.854   5.168   4.084 -1.5311  3.6259 -4.8028
   8323SM   H9T11047   5.744   5.055   4.017 -2.1868  2.7244 -2.3408
   8323SM  C10S11048   5.723   5.074   4.235 -0.0000 -0.7801 -0.3544
   8323SM  H10S11049   5.644   4.997   4.232 -0.9706  0.1230  0.9913
   8323SM  H10T11050   5.687   5.152   4.306 -0.6332 -1.5692  0.2104
   8323SM  C11S11051   5.851   5.013   4.299  0.4876  0.0638  1.1962
   8323SM  H11S11052   5.929   5.088   4.320  0.1096 -0.0960  3.3959
   8323SM  H11T11053   5.893   4.942   4.224 -0.6345  0.9002 -0.2791
   8323SM  C12S11054   5.812   4.938   4.433 -0.5237  0.2055 -0.2289
   8323SM  H12S11055   5.718   4.884   4.409 -0.2392 -0.7677  0.7551
   8323SM  H12T11056   5.791   5.015   4.511  2.2340 -0.2932  1.1327
   8323SM  C13S11057   5.916   4.837   4.488  0.2481 -0.5265 -0.3189
   8323SM  H13S11058   6.015   4.869   4.527 -0.2563  0.4681  0.1905
   8323SM  H13T11059   5.934   4.782   4.394  0.2526  0.5414 -0.9602
   8323SM  C14S11060   5.845   4.742   4.597 -0.2481 -0.6771 -0.0683
   8323SM  H14S11061   5.898   4.644   4.604 -1.6375 -1.5435 -1.1427
   8323SM  H14T11062   5.744   4.723   4.555 -0.0289  0.7909 -1.3267
   8323SM  C15S11063   5.823   4.799   4.737  0.1291  0.3023 -0.1000
   8323SM  H15S11064   5.755   4.727   4.787 -0.6584 -0.0960 -1.6938
   8323SM  H15T11065   5.767   4.894   4.725 -1.7597 -0.8548 -0.8486
   8323SM  C16S11066   5.947   4.805   4.824  0.2592 -0.4477  0.0389
   8323SM  H16S11067   6.026   4.867   4.778 -1.2476  0.7664 -1.0462
   8323SM  H16T11068   5.988   4.702   4.834  0.9562 -0.2770 -0.9457
   8323SM  C17S11069   5.915   4.857   4.963  0.1146 -0.0545 -0.2743
   8323SM  H17S11070   5.869   4.958   4.967 -0.6910 -0.3797 -1.0323
   8323SM  H17T11071   6.011   4.874   5.018 -0.2196  1.8920 -0.2257
   8323SM  C18S11072   5.826   4.758   5.050 -0.1066  0.0945 -0.3999
   8323SM  H18S11073   5.811   4.801   5.151  1.1316 -1.7902  0.6595
   8323SM  H18T11074   5.883   4.664   5.068 -1.1245 -0.3480  0.6639
   8323SM  H18U11075   5.721   4.743   5.019 -0.6642  0.5949  1.1555
   8323SM   C1F11076   5.067   4.824   4.143  0.2198 -0.1392  0.4051
   8323SM    OF11077   5.078   4.725   4.079  0.3561  0.4177 -0.4934
   8323SM   C2F11078   5.041   4.833   4.291 -0.3343 -0.4095 -0.0436
   8323SM   H2F11079   4.960   4.766   4.326  0.0998 -1.8598 -1.6963
   8323SM   H2G11080   5.010   4.937   4.315  0.7527  0.0063 -0.3921
   8323SM   C3F11081   5.166   4.814   4.364  0.3426 -0.0822 -0.1418
   8323SM   H3F11082   5.233   4.901   4.344 -3.6883  3.9962  2.1371
   8323SM   H3G11083   5.215   4.718   4.337 -1.9581 -0.6074 -3.0166
   8323SM   C4F11084   5.138   4.811   4.513 -0.3956  0.2435 -0.7453
   8323SM   H4F11085   5.056   4.740   4.535 -1.4045  1.9477  1.3494
   8323SM   H4G11086   5.092   4.906   4.546  0.9135  0.6882 -0.0903
   8323SM   C5F11087   5.268   4.782   4.597  0.1415 -0.3189 -0.5070
   8323SM   H5F11088   5.324   4.694   4.559  0.5201 -1.0816  1.6458
   8323SM   H5G11089   5.238   4.762   4.703 -0.2517  0.7807 -0.3979
   8323SM   C6F11090   5.357   4.898   4.607  0.9333 -0.0504  0.3773
   8323SM   H6F11091   5.306   4.980   4.662 -0.3946  0.6903 -1.8481
   8323SM   H6G11092   5.391   4.934   4.507  0.9479 -0.4706  0.2291
   8323SM   C7F11093   5.486   4.868   4.691 -0.6501 -0.1876  0.7076
   8323SM   H7F11094   5.557   4.949   4.662  0.0104 -1.4848 -1.5828
   8323SM   H7G11095   5.529   4.774   4.652 -2.7665 -1.1122  0.4902
   8323SM   C8F11096   5.472   4.868   4.843  0.6649  0.0634 -0.2040
   8323SM   H8F11097   5.568   4.847   4.895  0.0647 -1.3141  0.3758
   8323SM   H8G11098   5.394   4.799   4.879  0.4963  0.6430  0.5572
   8323SM   C9F11099   5.431   5.010   4.894  0.1292 -0.3532  0.3248
   8323SM   H9F11100   5.329   5.038   4.862  0.4233 -1.1197 -1.3392
   8323SM   H9G11101   5.498   5.074   4.832 -2.6012 -0.4891 -2.9948
   8323SM  C10F11102   5.463   5.041   5.046  0.1269  0.6533 -0.0620
   8323SM  H10F11103   5.428   4.953   5.103  1.1706  2.2047  3.2043
   8323SM  H10G11104   5.402   5.132   5.065 -0.7227  0.1065 -0.1660
   8323SM  C11F11105   5.616   5.061   5.080  0.1868 -0.2743 -0.0134
   8323SM  H11F11106   5.659   5.147   5.024  1.1918 -1.1829 -0.6721
   8323SM  H11G11107   5.667   4.969   5.045  0.4014 -0.2156  0.1400
   8323SM  C12F11108   5.645   5.088   5.229 -0.1357  0.0103  0.0877
   8323SM  H12F11109   5.731   5.157   5.238  1.3724 -1.9215  1.1828
   8323SM  H12G11110   5.669   4.988   5.271 -2.7146 -1.6710 -2.0785
   8323SM  C13F11111   5.522   5.150   5.302 -0.1466 -1.1290  0.6725
   8323SM  H13F11112   5.434   5.083   5.295 -0.2169 -0.9156 -0.7800
   8323SM  H13G11113   5.500   5.243   5.245  3.5516 -0.1627  0.5256
   8323SM  C14F11114   5.557   5.201   5.441  0.4229 -0.0231  1.1078
   8323SM  H14F11115   5.511   5.302   5.447 -0.7465 -0.4618 -0.0773
   8323SM  H14G11116   5.667   5.214   5.447  0.7426 -2.7007  2.8503
   8323SM  C15F11117   5.516   5.112   5.563  0.2341  0.6196 -0.0196
   8323SM  H15F11118   5.576   5.019   5.559 -1.0413 -0.2220 -0.2705
   8323SM  H15G11119   5.407   5.091   5.571  0.3628 -0.5970 -1.1049
   8323SM  C16F11120   5.554   5.196   5.691  0.2678  0.3895  0.4706
   8323SM  H16F11121   5.504   5.142   5.774  1.1674 -0.1404  0.6799
   8323SM  H16G11122   5.504   5.295   5.690 -2.5332 -0.9273 -0.7548
   8323SM  C17F11123   5.703   5.203   5.721 -0.1313 -0.3987  0.4875
   8323SM  H17F11124   5.760   5.264   5.648  0.3263 -1.2458  0.1216
   8323SM  H17G11125   5.730   5.096   5.704  1.3723 -0.0871  0.7279
   8323SM  C18F11126   5.729   5.262   5.860  0.2786 -0.1120  0.3180
   8323SM  H18F11127   5.667   5.217   5.941  0.4201  0.5511  0.8077
   8323SM  H18G11128   5.706   5.371   5.855  2.4938  0.4138  0.7680
   8323SM  C19F11129   5.879   5.251   5.896 -0.2507  0.0436 -0.0187
   8323SM  H19F11130   5.898   5.314   5.986 -0.1322  1.0478 -0.7214
   8323SM  H19G11131   5.942   5.288   5.812 -2.3855  0.1691 -1.6542
   8323SM  C20F11132   5.916   5.109   5.918  0.5739  0.2844 -0.4990
   8323SM  H20F11133   5.913   5.058   5.819  0.5211  0.0976 -0.4002
   8323SM  H20G11134   5.844   5.059   5.985  0.0077  0.7417 -0.7512
   8323SM  C21F11135   6.055   5.109   5.979 -0.1395  0.3730 -0.5841
   8323SM  H21F11136   6.061   5.170   6.072  0.3099 -0.5246 -0.0017
   8323SM  H21G11137   6.131   5.143   5.906  0.2873  1.5585  0.3812
   8323SM  C22F11138   6.092   4.959   6.027 -0.7987 -0.4426  0.0386
   8323SM  H22F11139   6.032   4.923   6.114  0.7420 -1.1422  0.8470
   8323SM  H22G11140   6.199   4.961   6.057 -0.0723  0.3119 -2.3916
   8323SM  C23F11141   6.068   4.852   5.923 -0.0133 -0.6154 -0.0771
   8323SM  H23F11142   6.140   4.767   5.931 -0.2253 -0.8369 -0.4888
   8323SM  H23G11143   6.083   4.894   5.821  1.7515  1.2841  0.8787
   8323SM  H23H11144   5.961   4.822   5.924 -0.5199  0.6657 -3.2611
   8423SM     N11145   3.893   4.118   3.689 -0.1559 -0.3547  0.4519
   8423SM   C1511146   3.756   4.054   3.699 -0.1306  0.2971 -0.0014
   8423SM  H15A11147   3.721   4.023   3.602  0.1585 -0.1043  0.0221
   8423SM  H15B11148   3.688   4.115   3.757  0.6077  1.0562  0.0854
   8423SM  H15C11149   3.758   3.960   3.752 -0.6522  0.0289 -0.4433
   8423SM   C1411150   3.878   4.243   3.609  0.3938 -0.8984 -0.2970
   8423SM  H14A11151   3.805   4.314   3.646 -0.9484 -0.7888 -2.9024
   8423SM  H14B11152   3.848   4.233   3.505 -0.2910 -1.1782 -0.0835
   8423SM  H14C11153   3.966   4.305   3.611 -0.9267  1.0215  1.5371
   8423SM   C1311154   3.943   4.162   3.828  0.0012  0.0551  0.0034
   8423SM  H13A11155   3.980   4.078   3.885  1.6894  1.8652  1.7289
   8423SM  H13B11156   3.865   4.214   3.881 -1.5208 -1.4630 -0.6836
   8423SM  H13C11157   4.017   4.238   3.808 -1.8274  1.2596 -2.5887
   8423SM   C1211158   4.000   4.034   3.623 -0.2883 -0.0586 -0.6834
   8423SM  H12A11159   4.088   4.097   3.620 -0.9349  1.0557  1.5862
   8423SM  H12B11160   3.976   4.015   3.519  2.5778 -1.9950 -1.1017
   8423SM   C1111161   4.043   3.895   3.679  0.2555 -0.6709  0.3225
   8423SM  H11A11162   4.096   3.833   3.604  0.0929 -0.4740  0.0469
   8423SM  H11B11163   3.950   3.839   3.705 -0.8861  0.0566 -1.9396
   8423SM     P11164   4.263   3.974   3.805 -0.0210  0.2029  0.4247
   8423SM   O1311165   4.324   3.925   3.673  0.5234  0.1193 -0.3481
   8423SM   O1411166   4.268   4.117   3.844 -0.3252 -0.3960 -0.4103
   8423SM   O1111167   4.317   3.884   3.913 -0.2626  0.1373 -0.0540
   8423SM   O1211168   4.113   3.911   3.799 -0.3989 -0.2697 -0.1458
   8423SM   C1S11169   4.314   3.926   4.047 -0.4091  0.8413 -0.3518
   8423SM   H1S11170   4.225   3.991   4.064 -0.7075  0.6363 -1.1005
   8423SM   H1T11171   4.409   3.974   4.080 -0.0310 -1.2573  1.9312
   8423SM    NF11172   4.271   3.826   4.270 -1.0179 -0.5819  0.3272
   8423SM   HNF11173   4.337   3.821   4.345 -0.1017 -0.5910 -0.4617
   8423SM   C2S11174   4.310   3.794   4.132  0.0393  0.0860  0.8348
   8423SM   H2S11175   4.235   3.726   4.085  2.2362 -0.4334 -2.2946
   8423SM   C3S11176   4.452   3.723   4.127 -0.0533 -0.2956 -0.2021
   8423SM   H3S11177   4.514   3.810   4.161 -2.1419  1.5379 -0.8390
   8423SM    O311178   4.498   3.705   3.988  0.5913 -0.4162 -0.3425
   8423SM   HO311179   4.438   3.757   3.933  1.6736  0.6523 -0.5454
   8423SM   C4S11180   4.456   3.598   4.202  0.6367  0.0292  0.0948
   8423SM   H4S11181   4.396   3.523   4.148  1.7963  0.4109 -1.8142
   8423SM   C5S11182   4.513   3.571   4.317 -0.5343 -0.3286  0.1599
   8423SM   H5S11183   4.569   3.643   4.379 -1.2301 -0.2080  0.6566
   8423SM   C6S11184   4.493   3.437   4.372 -0.5449 -0.3618  0.2790
   8423SM   H6S11185   4.598   3.399   4.379 -0.1661  0.6154  0.0354
   8423SM   H6T11186   4.433   3.367   4.310 -0.7361  0.6850 -0.7420
   8423SM   C7S11187   4.422   3.443   4.512  0.2373 -0.2694 -0.3988
   8423SM   H7S11188   4.404   3.338   4.544  0.7793 -0.0662  0.6207
   8423SM   H7T11189   4.329   3.503   4.501  0.9408  0.8225 -0.5700
   8423SM   C8S11190   4.496   3.515   4.621  0.1904  0.1801  0.0151
   8423SM   H8S11191   4.473   3.624   4.610 -0.2162  0.3406  2.0653
   8423SM   H8T11192   4.601   3.485   4.607 -0.6289 -3.2879  0.3757
   8423SM   C9S11193   4.452   3.458   4.760 -0.3119 -0.6417 -0.1942
   8423SM   H9S11194   4.467   3.348   4.757 -1.7849 -0.8592 -1.1005
   8423SM   H9T11195   4.344   3.482   4.768 -0.6115 -1.6644 -0.8073
   8423SM  C10S11196   4.523   3.514   4.882 -0.1236 -0.3600  0.5061
   8423SM  H10S11197   4.507   3.624   4.876 -0.7660 -0.4730  0.1044
   8423SM  H10T11198   4.632   3.513   4.861 -0.5626  0.3731 -2.0789
   8423SM  C11S11199   4.486   3.451   5.015  0.1994  0.1409  0.2262
   8423SM  H11S11200   4.523   3.346   5.012  0.8880  0.3972 -1.5993
   8423SM  H11T11201   4.375   3.457   5.024  0.2939  0.5313  1.3595
   8423SM  C12S11202   4.553   3.517   5.135  0.4913 -0.2678 -0.3669
   8423SM  H12S11203   4.498   3.609   5.162 -1.2613 -1.3170 -0.2449
   8423SM  H12T11204   4.658   3.535   5.103 -0.0484  1.0483 -1.5240
   8423SM  C13S11205   4.547   3.427   5.260 -0.3009  0.3662 -0.3384
   8423SM  H13S11206   4.597   3.329   5.247  0.3731  0.6474  0.0851
   8423SM  H13T11207   4.440   3.408   5.285  0.3473 -0.6136  1.8551
   8423SM  C14S11208   4.612   3.487   5.389  0.6524  1.2007 -0.8383
   8423SM  H14S11209   4.573   3.590   5.401 -2.0931  0.3919 -2.0918
   8423SM  H14T11210   4.722   3.494   5.370  0.4794  0.0500 -2.4995
   8423SM  C15S11211   4.591   3.393   5.512 -0.3487  0.1788  0.3078
   8423SM  H15S11212   4.585   3.290   5.469 -0.2111 -0.0100  0.7337
   8423SM  H15T11213   4.493   3.426   5.553 -1.9549 -2.7343 -0.8539
   8423SM  C16S11214   4.708   3.397   5.613  0.4906 -0.1389  0.7416
   8423SM  H16S11215   4.801   3.379   5.556  0.4396 -2.0947  1.1996
   8423SM  H16T11216   4.698   3.310   5.682  0.6549 -0.0919  0.8266
   8423SM  C17S11217   4.727   3.524   5.696 -0.2926  0.0339 -0.1089
   8423SM  H17S11218   4.722   3.606   5.622  3.5423 -0.1686 -0.7944
   8423SM  H17T11219   4.822   3.527   5.753  0.2005  1.6887 -0.9604
   8423SM  C18S11220   4.616   3.546   5.805  0.3795 -1.2425  0.1827
   8423SM  H18S11221   4.640   3.638   5.861  0.3458  0.8748 -3.0245
   8423SM  H18T11222   4.594   3.468   5.881 -1.4646  1.4741  2.6097
   8423SM  H18U11223   4.519   3.566   5.755  0.1634 -1.1548  0.6332
   8423SM   C1F11224   4.152   3.864   4.303 -0.2618  0.3467  0.5646
   8423SM    OF11225   4.068   3.877   4.216 -0.3786 -0.4290 -0.7743
   8423SM   C2F11226   4.133   3.909   4.439 -0.3470 -0.2842  0.1058
   8423SM   H2F11227   4.124   4.020   4.441  0.7226 -0.1605 -1.2278
   8423SM   H2G11228   4.214   3.871   4.504 -0.5310  0.6324  0.8996
   8423SM   C3F11229   4.005   3.845   4.507 -0.3062 -0.0003 -0.5756
   8423SM   H3F11230   4.001   3.740   4.469 -0.7335 -0.2173  0.0489
   8423SM   H3G11231   3.925   3.911   4.469  0.9719  2.1772  0.3656
   8423SM   C4F11232   4.005   3.847   4.661  0.0463 -0.6226  0.0731
   8423SM   H4F11233   3.895   3.853   4.680  0.3198 -0.1804  1.6001
   8423SM   H4G11234   4.040   3.951   4.677 -0.9791  0.2700 -2.8124
   8423SM   C5F11235   4.084   3.746   4.741  0.4852 -0.1946 -0.2249
   8423SM   H5F11236   4.185   3.786   4.763  1.0481 -1.7549  0.1896
   8423SM   H5G11237   4.099   3.653   4.681  0.3817 -0.7729  0.6182
   8423SM   C6F11238   4.023   3.716   4.881  0.0831  0.4575 -0.0842
   8423SM   H6F11239   3.920   3.678   4.873  0.9824 -2.2773  0.2957
   8423SM   H6G11240   4.006   3.814   4.932 -2.4151  1.1166 -2.0271
   8423SM   C7F11241   4.113   3.630   4.973 -0.1864  0.4215 -0.3684
   8423SM   H7F11242   4.209   3.683   4.989 -0.1095  0.6604 -1.5115
   8423SM   H7G11243   4.148   3.539   4.921 -1.2426 -0.0952 -0.2021
   8423SM   C8F11244   4.061   3.607   5.116 -0.3191  0.2491  0.1108
   8423SM   H8F11245   3.961   3.560   5.111  0.2675 -1.1393  1.0195
   8423SM   H8G11246   4.029   3.701   5.166 -1.0634  0.7144 -1.1863
   8423SM   C9F11247   4.158   3.525   5.198  0.2338  0.4374 -0.5197
   8423SM   H9F11248   4.249   3.588   5.204 -0.1145  0.9057 -0.0703
   8423SM   H9G11249   4.176   3.427   5.149 -0.8945 -1.9490  3.4589
   8423SM  C10F11250   4.114   3.489   5.329  0.2847  0.4053 -0.0026
   8423SM  H10F11251   4.185   3.414   5.370 -0.8038 -0.7650 -0.2039
   8423SM  H10G11252   4.011   3.449   5.320  0.7192 -0.4366 -1.5661
   8423SM  C11F11253   4.103   3.600   5.435  0.2602 -0.2465  0.2154
   8423SM  H11F11254   4.039   3.677   5.387  0.0928 -0.8175 -0.4910
   8423SM  H11G11255   4.210   3.631   5.437  0.5730 -1.3226  1.1896
   8423SM  C12F11256   4.048   3.572   5.576  0.2866  0.4011 -0.5773
   8423SM  H12F11257   3.942   3.545   5.560  0.0837  0.9399 -0.1834
   8423SM  H12G11258   4.030   3.664   5.636 -1.3219  0.5585 -1.2501
   8423SM  C13F11259   4.132   3.476   5.659  0.3803 -0.3068  0.3197
   8423SM  H13F11260   4.236   3.512   5.668  0.3347 -0.6484  2.9781
   8423SM  H13G11261   4.130   3.381   5.601 -1.3774  0.9687 -1.9015
   8423SM  C14F11262   4.066   3.453   5.801 -0.1036 -0.7068 -0.5744
   8423SM  H14F11263   3.992   3.371   5.788  0.1510 -0.7681 -1.8093
   8423SM  H14G11264   4.019   3.547   5.837  0.5496 -0.0387 -1.4108
   8423SM  C15F11265   4.167   3.407   5.911 -0.4714  0.4301  0.6238
   8423SM  H15F11266   4.214   3.311   5.881 -4.0283 -0.4521 -2.9717
   8423SM  H15G11267   4.107   3.385   6.002  0.5401 -1.8452  0.8088
   8423SM  C16F11268   4.267   3.521   5.938 -1.0077  1.2476 -0.3128
   8423SM  H16F11269   4.223   3.623   5.940  1.1795  2.2634  0.0215
   8423SM  H16G11270   4.345   3.536   5.860  1.9768  2.8795  2.6788
   8423SM  C17F11271   4.355   3.501   6.063  0.0463  0.1884 -0.0375
   8423SM  H17F11272   4.427   3.585   6.072 -0.7807  0.9139  0.0406
   8423SM  H17G11273   4.409   3.407   6.041 -0.0992  0.1837 -0.3860
   8423SM  C18F11274   4.278   3.482   6.198  0.6270  0.3544  0.6827
   8423SM  H18F11275   4.231   3.382   6.211  0.8614 -0.1611 -1.9458
   8423SM  H18G11276   4.183   3.538   6.215  0.7269  0.5271  0.6736
   8423SM  C19F11277   4.370   3.480   6.320 -0.3550  0.3346  0.2943
   8423SM  H19F11278   4.421   3.579   6.325 -1.7756  1.0674  0.6567
   8423SM  H19G11279   4.438   3.394   6.300  0.2075  1.0026 -0.8145
   8423SM  C20F11280   4.293   3.471   6.444 -0.3631 -0.3050 -0.5104
   8423SM  H20F11281   4.255   3.369   6.466 -3.1902  0.8489  0.4328
   8423SM  H20G11282   4.204   3.537   6.436 -0.2810 -0.3018 -1.5913
   8423SM  C21F11283   4.388   3.506   6.562 -0.5627 -0.4918  1.0911
   8423SM  H21F11284   4.419   3.612   6.548 -1.6443 -0.3470 -0.3837
   8423SM  H21G11285   4.491   3.466   6.550  0.3765  2.2373 -1.1786
   8423SM  C22F11286   4.331   3.471   6.696  0.8881  0.3360 -0.4917
   8423SM  H22F11287   4.312   3.362   6.701  2.0281  0.1601  0.6277
   8423SM  H22G11288   4.232   3.520   6.690  0.0193 -1.4757 -1.8769
   8423SM  C23F11289   4.403   3.524   6.821  0.0534 -0.4933 -0.0497
   8423SM  H23F11290   4.438   3.626   6.792 -4.0275  0.6396 -1.6759
   8423SM  H23G11291   4.493   3.465   6.851 -0.4372 -0.4700  1.5845
   8423SM  H23H11292   4.327   3.531   6.902 -0.9978  0.3104 -1.0678
   8523SM     N11293   5.441   5.103   3.405  0.0344  0.0714 -0.3524
   8523SM   C1511294   5.391   5.195   3.302 -0.2780 -0.5994 -0.1583
   8523SM  H15A11295   5.456   5.206   3.216 -1.6525  1.3540 -1.0209
   8523SM  H15B11296   5.378   5.296   3.338  0.6831 -0.3437 -0.4968
   8523SM  H15C11297   5.296   5.156   3.267 -0.7156  1.3116 -1.2615
   8523SM   C1411298   5.315   5.067   3.487  0.1706 -0.6890  0.2372
   8523SM  H14A11299   5.235   5.024   3.429 -1.1023  1.8856 -0.0627
   8523SM  H14B11300   5.275   5.158   3.528 -1.2857 -0.3264 -1.8294
   8523SM  H14C11301   5.342   5.000   3.568 -1.0266  0.3382  1.5428
   8523SM   C1311302   5.486   4.983   3.331 -0.7617 -0.6314  0.2918
   8523SM  H13A11303   5.402   4.960   3.266 -1.4581  4.0243 -0.8398
   8523SM  H13B11304   5.513   4.900   3.395 -1.2492  0.7228  2.3673
   8523SM  H13C11305   5.572   4.988   3.266 -0.3878 -1.2692  0.7321
   8523SM   C1211306   5.556   5.156   3.491  0.4356 -0.1613 -0.2280
   8523SM  H12A11307   5.605   5.071   3.536 -3.7583 -1.0478  3.4029
   8523SM  H12B11308   5.520   5.221   3.569  0.0313  0.7322 -1.1412
   8523SM   C1111309   5.671   5.232   3.416 -0.0344  0.5805  0.2403
   8523SM  H11A11310   5.747   5.274   3.485 -0.4431 -0.3195  1.2563
   8523SM  H11B11311   5.627   5.320   3.364 -1.3305 -1.4753 -2.4187
   8523SM     P11312   5.838   5.045   3.334  0.0495  0.2695 -0.0656
   8523SM   O1311313   5.794   4.918   3.263  0.4522 -0.1757  0.3321
   8523SM   O1411314   5.969   5.103   3.298 -0.3848 -0.3330  0.2364
   8523SM   O1111315   5.816   5.022   3.493 -0.7087  0.1054  0.1409
   8523SM   O1211316   5.730   5.155   3.305 -0.0199  0.8020  0.0096
   8523SM   C1S11317   5.937   5.032   3.579 -0.1401  0.2202  0.8573
   8523SM   H1S11318   5.991   5.129   3.580  2.8264 -1.3084  0.2506
   8523SM   H1T11319   6.017   4.961   3.549 -1.0214 -0.5159  0.1715
   8523SM    NF11320   6.008   5.042   3.829  0.1534  0.1102 -0.3331
   8523SM   HNF11321   6.048   4.973   3.890  0.5032  0.0225 -0.6537
   8523SM   C2S11322   5.905   5.001   3.729 -0.0961  0.0464  0.0954
   8523SM   H2S11323   5.814   5.056   3.760 -0.1178 -0.5221  1.0848
   8523SM   C3S11324   5.865   4.846   3.736 -0.0727  0.0793  0.8521
   8523SM   H3S11325   5.962   4.796   3.717 -1.0863 -1.8575  0.6206
   8523SM    O311326   5.780   4.797   3.634 -0.5771  0.9610  0.0447
   8523SM   HO311327   5.772   4.879   3.585 -2.1629  1.4201  1.0002
   8523SM   C4S11328   5.816   4.805   3.872 -0.5160  0.0725 -0.2978
   8523SM   H4S11329   5.890   4.805   3.953  0.0353  1.3180 -0.7787
   8523SM   C5S11330   5.694   4.759   3.906  0.5546 -0.4328  0.3472
   8523SM   H5S11331   5.622   4.738   3.826 -0.5559 -1.0585  1.4818
   8523SM   C6S11332   5.653   4.733   4.048  0.7521  0.2565 -0.9822
   8523SM   H6S11333   5.543   4.743   4.055  0.5872 -2.2326  2.1645
   8523SM   H6T11334   5.697   4.810   4.116  0.1697 -0.0524 -0.2317
   8523SM   C7S11335   5.703   4.598   4.110 -0.6190  0.9970 -0.6174
   8523SM   H7S11336   5.808   4.574   4.083 -0.8351  0.0203 -0.6400
   8523SM   H7T11337   5.662   4.525   4.037  2.2456  1.9817 -3.4385
   8523SM   C8S11338   5.654   4.569   4.255 -0.3905 -0.0841 -0.3316
   8523SM   H8S11339   5.544   4.575   4.259 -0.5886 -1.1047 -2.7345
   8523SM   H8T11340   5.713   4.639   4.319 -0.8542  1.2957 -1.3695
   8523SM   C9S11341   5.688   4.425   4.305 -0.4288  0.6622  0.0106
   8523SM   H9S11342   5.641   4.355   4.232 -0.9749 -1.5024  2.2607
   8523SM   H9T11343   5.652   4.409   4.409 -1.0316  2.9776  0.1931
   8523SM  C10S11344   5.841   4.401   4.311  0.3227 -0.4505  0.0345
   8523SM  H10S11345   5.897   4.469   4.378 -0.4362  0.0476  0.1829
   8523SM  H10T11346   5.879   4.425   4.209 -1.1383  1.5243 -0.0992
   8523SM  C11S11347   5.887   4.253   4.315  0.4104 -0.7843  0.0680
   8523SM  H11S11348   5.994   4.253   4.284  0.1840  0.2953 -0.7674
   8523SM  H11T11349   5.833   4.191   4.240 -0.1438  0.0495 -0.2399
   8523SM  C12S11350   5.884   4.182   4.457 -0.1827 -0.6959  0.5333
   8523SM  H12S11351   5.817   4.245   4.519 -0.4450  0.2255 -0.6429
   8523SM  H12T11352   5.985   4.171   4.502 -0.3802 -0.7614  0.9608
   8523SM  C13S11353   5.823   4.039   4.429  0.1280  0.0242  0.0948
   8523SM  H13S11354   5.886   3.981   4.358 -1.1781 -0.9863 -0.2886
   8523SM  H13T11355   5.721   4.042   4.385 -0.3114 -1.0980  0.9734
   8523SM  C14S11356   5.803   3.952   4.559 -0.6184  0.6231  0.2485
   8523SM  H14S11357   5.903   3.942   4.606 -0.4828 -1.7494 -0.4132
   8523SM  H14T11358   5.771   3.847   4.542 -2.5426  0.8854  1.8258
   8523SM  C15S11359   5.701   4.007   4.665  0.2237  0.0374  0.1134
   8523SM  H15S11360   5.600   4.012   4.618  0.2277  0.7555  0.1762
   8523SM  H15T11361   5.734   4.111   4.683  3.5784 -0.0495 -4.0320
   8523SM  C16S11362   5.683   3.932   4.804  0.7217  0.0569 -0.5145
   8523SM  H16S11363   5.641   3.831   4.787 -0.9289  0.1594  2.3933
   8523SM  H16T11364   5.614   3.985   4.873  0.4725 -0.3830 -0.4280
   8523SM  C17S11365   5.815   3.914   4.873  0.1801  0.0361  0.4280
   8523SM  H17S11366   5.888   3.995   4.855 -0.1986  0.4611  0.7821
   8523SM  H17T11367   5.859   3.818   4.839  0.7339  0.8549 -1.2396
   8523SM  C18S11368   5.800   3.918   5.023 -0.0314 -0.1189 -0.3394
   8523SM  H18S11369   5.779   4.020   5.061 -1.8255 -1.2382  1.9719
   8523SM  H18T11370   5.900   3.892   5.063 -1.7602 -0.7642  4.1763
   8523SM  H18U11371   5.731   3.843   5.067 -0.0414 -0.3319 -0.7184
   8523SM   C1F11372   6.048   5.169   3.839 -0.4720  0.5701 -0.4113
   8523SM    OF11373   5.997   5.253   3.771  0.3113  0.2685  0.0033
   8523SM   C2F11374   6.164   5.182   3.940 -0.4125  0.1144 -0.2327
   8523SM   H2F11375   6.246   5.108   3.924 -0.4960  0.3914 -2.1377
   8523SM   H2G11376   6.122   5.167   4.041  1.3343 -2.5184  0.2138
   8523SM   C3F11377   6.234   5.323   3.936  0.3024 -0.5597  0.1056
   8523SM   H3F11378   6.263   5.343   3.831 -0.7978  0.7402  0.0124
   8523SM   H3G11379   6.327   5.329   3.998  1.4886 -0.0358 -1.6486
   8523SM   C4F11380   6.143   5.437   3.980  0.2399 -0.2811 -0.2177
   8523SM   H4F11381   6.048   5.450   3.925  0.1729 -0.0448 -0.0500
   8523SM   H4G11382   6.191   5.534   3.955 -2.9421  1.5690  0.3658
   8523SM   C5F11383   6.102   5.433   4.132 -0.2936 -0.1082  0.0960
   8523SM   H5F11384   6.195   5.413   4.189 -2.0451  1.0273  3.6424
   8523SM   H5G11385   6.048   5.337   4.149 -1.2772  0.1909 -1.1293
   8523SM   C6F11386   6.029   5.556   4.179 -0.3490  0.8955 -0.0083
   8523SM   H6F11387   5.972   5.590   4.090  0.2951 -1.3490 -1.3545
   8523SM   H6G11388   6.101   5.632   4.215  0.7108 -0.3457  0.5516
   8523SM   C7F11389   5.935   5.517   4.294 -0.1293 -0.0402  0.0646
   8523SM   H7F11390   5.983   5.467   4.380  0.7974 -0.0342 -0.4372
   8523SM   H7G11391   5.859   5.448   4.252  2.0320 -1.8524 -1.0789
   8523SM   C8F11392   5.860   5.642   4.343  0.6327  0.1977  0.4642
   8523SM   H8F11393   5.794   5.663   4.255 -0.7627 -1.4015  1.0783
   8523SM   H8G11394   5.929   5.728   4.359 -1.4069  1.8526  0.7321
   8523SM   C9F11395   5.783   5.609   4.469 -0.1438 -0.0581  0.0377
   8523SM   H9F11396   5.847   5.588   4.557  1.1486 -0.9702 -1.0698
   8523SM   H9G11397   5.723   5.518   4.449 -0.3705  0.0998  0.0042
   8523SM  C10F11398   5.672   5.715   4.509  0.0716  1.1338 -0.5077
   8523SM  H10F11399   5.600   5.664   4.577 -0.2847 -0.8714 -2.2828
   8523SM  H10G11400   5.606   5.747   4.426 -2.9294 -0.1840  1.1810
   8523SM  C11F11401   5.733   5.848   4.564 -0.2557  0.5630  0.0655
   8523SM  H11F11402   5.642   5.908   4.585 -2.5244 -1.9178 -1.7874
   8523SM  H11G11403   5.802   5.888   4.486 -0.3223 -0.1383 -0.3615
   8523SM  C12F11404   5.807   5.833   4.698  0.3485  0.3651  0.5849
   8523SM  H12F11405   5.910   5.794   4.684 -0.1821 -1.6565  1.9282
   8523SM  H12G11406   5.757   5.770   4.774 -0.3995  0.8677  0.5167
   8523SM  C13F11407   5.817   5.969   4.759  0.1789 -0.4078 -0.0985
   8523SM  H13F11408   5.722   6.027   4.761  1.5578  2.0552 -1.0209
   8523SM  H13G11409   5.894   6.024   4.700  0.1047 -0.5147 -0.2960
   8523SM  C14F11410   5.861   5.960   4.904 -0.3673  0.2366  1.0748
   8523SM  H14F11411   5.933   5.878   4.921  1.6130  1.6618 -0.0108
   8523SM  H14G11412   5.771   5.943   4.967 -0.8393  1.2837  0.7081
   8523SM  C15F11413   5.921   6.089   4.962 -0.5581 -0.4938  1.2495
   8523SM  H15F11414   5.886   6.181   4.910  1.7297 -0.0416  0.3613
   8523SM  H15G11415   6.032   6.076   4.956 -0.4422 -0.0164  2.1748
   8523SM  C16F11416   5.880   6.110   5.112  0.2614  0.4129  0.9874
   8523SM  H16F11417   5.769   6.103   5.116  0.2447 -0.2868 -0.1828
   8523SM  H16G11418   5.905   6.211   5.151 -2.0773  1.6160 -0.4011
   8523SM  C17F11419   5.939   6.003   5.207  0.5161 -0.0321 -0.2559
   8523SM  H17F11420   6.047   5.983   5.193  0.9666  0.9599  1.4560
   8523SM  H17G11421   5.898   5.900   5.206 -0.6084  0.3977 -0.7553
   8523SM  C18F11422   5.939   6.052   5.354  0.2122  0.6297  0.1796
   8523SM  H18F11423   5.832   6.077   5.375 -0.4336  0.0400 -2.0617
   8523SM  H18G11424   6.006   6.140   5.363  0.7844  0.1749  0.3613
   8523SM  C19F11425   5.990   5.946   5.462 -0.1992  0.4399  0.3229
   8523SM  H19F11426   6.093   5.913   5.437 -1.6049 -2.3645 -2.5427
   8523SM  H19G11427   5.925   5.856   5.464  0.2226  0.1218 -0.0425
   8523SM  C20F11428   5.991   6.005   5.606 -0.7077  0.0405  0.4627
   8523SM  H20F11429   6.049   5.926   5.658  1.7253  0.9029 -0.7964
   8523SM  H20G11430   5.886   6.011   5.644 -0.5709 -0.4716  0.9310
   8523SM  C21F11431   6.062   6.136   5.620  0.0117 -0.2677 -0.1193
   8523SM  H21F11432   5.996   6.210   5.569  2.6433  3.2118  1.1378
   8523SM  H21G11433   6.162   6.119   5.576  1.3714  1.0439  2.2778
   8523SM  C22F11434   6.085   6.182   5.768  0.0376  0.3560  0.3818
   8523SM  H22F11435   6.125   6.100   5.832  0.0193 -0.3005 -0.4168
   8523SM  H22G11436   5.987   6.205   5.814 -1.7472 -1.0626 -2.4461
   8523SM  C23F11437   6.194   6.292   5.762  0.3133  0.4643  0.8063
   8523SM  H23F11438   6.242   6.305   5.861  1.5799 -1.7929  0.5567
   8523SM  H23G11439   6.162   6.387   5.715  1.9929  0.2765 -0.8348
   8523SM  H23H11440   6.273   6.246   5.700  1.3830  2.3350  0.7215
   8623SM     N11441   4.002   2.807   3.518 -0.5633 -0.5961  0.1695
   8623SM   C1511442   4.100   2.853   3.411 -0.7313 -0.9960 -0.8429
   8623SM  H15A11443   4.085   2.959   3.397 -1.3732 -1.2224 -2.0192
   8623SM  H15B11444   4.083   2.811   3.312 -0.7099 -1.3696 -0.6904
   8623SM  H15C11445   4.201   2.830   3.442 -0.2082  2.8333  0.7931
   8623SM   C1411446   3.869   2.839   3.471 -0.3744  0.2586  0.3089
   8623SM  H14A11447   3.851   2.946   3.468 -0.4546  0.2426  0.2335
   8623SM  H14B11448   3.808   2.807   3.553 -0.7592  1.6826  0.6184
   8623SM  H14C11449   3.847   2.793   3.376  0.0140 -0.2127  0.4407
   8623SM   C1311450   4.020   2.660   3.549 -0.4132  0.3459 -0.3189
   8623SM  H13A11451   4.001   2.592   3.468 -2.0483 -0.3910  0.6468
   8623SM  H13B11452   3.961   2.629   3.634  1.1830 -0.2688  0.6241
   8623SM  H13C11453   4.121   2.639   3.583  0.0924  0.9353 -1.4044
   8623SM   C1211454   4.028   2.881   3.650  0.2407  0.4738  0.0207
   8623SM  H12A11455   4.126   2.850   3.682  0.1598  0.1566 -0.0356
   8623SM  H12B11456   3.972   2.844   3.735  1.8753  1.0924  1.4369
   8623SM   C1111457   4.036   3.036   3.655  0.7528 -0.1339 -1.1190
   8623SM  H11A11458   4.041   3.063   3.763 -2.2474  0.4120 -1.0208
   8623SM  H11B11459   3.943   3.082   3.616 -0.0323  0.9283  1.7102
   8623SM     P11460   4.206   3.218   3.566  0.4419  0.1214  0.1783
   8623SM   O1311461   4.344   3.211   3.517  0.4299 -0.7368 -0.0823
   8623SM   O1411462   4.112   3.299   3.477  0.2240  0.1384  0.1324
   8623SM   O1111463   4.196   3.288   3.709 -0.2012 -0.2564  0.1682
   8623SM   O1211464   4.156   3.073   3.586 -0.1858 -0.0585 -0.3033
   8623SM   C1S11465   4.289   3.244   3.802 -0.1258  0.0480  0.7750
   8623SM   H1S11466   4.388   3.291   3.782  2.0896 -4.5345 -0.6814
   8623SM   H1T11467   4.287   3.133   3.804  0.9278 -0.2052 -3.0499
   8623SM    NF11468   4.332   3.232   4.040 -0.4479  0.8687  0.6299
   8623SM   HNF11469   4.303   3.157   4.099  0.2028  1.9575  2.3997
   8623SM   C2S11470   4.247   3.293   3.942 -0.6098  0.8735  0.2526
   8623SM   H2S11471   4.262   3.403   3.954  0.4292  0.8189 -0.4312
   8623SM   C3S11472   4.100   3.273   3.971  0.6228  0.2521 -0.6605
   8623SM   H3S11473   4.080   3.164   3.971  0.5676  0.2175  1.2927
   8623SM    O311474   4.011   3.344   3.883  0.1123  0.0034  0.2372
   8623SM   HO311475   4.071   3.361   3.810 -0.3687 -1.7546 -0.6223
   8623SM   C4S11476   4.068   3.318   4.110 -0.8484 -0.2627  0.4704
   8623SM   H4S11477   4.036   3.230   4.167  1.1761 -0.5286  1.2935
   8623SM   C5S11478   4.063   3.444   4.162  0.4072 -0.6142 -0.2642
   8623SM   H5S11479   4.064   3.525   4.088  2.6693 -1.3845 -1.1601
   8623SM   C6S11480   4.031   3.483   4.303  0.0415  0.1016  0.0592
   8623SM   H6S11481   3.941   3.547   4.318  0.2978  0.7248 -1.0157
   8623SM   H6T11482   4.108   3.546   4.352  1.6069 -2.1748  0.6609
   8623SM   C7S11483   3.991   3.370   4.409 -0.7952 -0.1554 -0.2311
   8623SM   H7S11484   4.065   3.288   4.398  2.0041  2.3634 -1.8966
   8623SM   H7T11485   3.892   3.332   4.377 -0.0238 -1.8019 -0.7594
   8623SM   C8S11486   3.976   3.406   4.555  0.2875  0.0074  0.1346
   8623SM   H8S11487   3.912   3.495   4.570  2.6057  1.6014  1.1003
   8623SM   H8T11488   4.078   3.441   4.583  0.4166 -0.2456 -0.0131
   8623SM   C9S11489   3.941   3.286   4.657  0.3094 -1.2009  0.8970
   8623SM   H9S11490   4.004   3.197   4.638  1.6467 -0.5315  2.0281
   8623SM   H9T11491   3.843   3.245   4.624 -0.5472  1.2293  0.1773
   8623SM  C10S11492   3.943   3.327   4.800  0.2771  0.3605 -0.9164
   8623SM  H10S11493   3.861   3.394   4.836 -0.4030 -1.1066  0.3511
   8623SM  H10T11494   4.044   3.371   4.813  1.1675 -1.4554 -1.4863
   8623SM  C11S11495   3.933   3.205   4.894  0.0256 -0.0007 -0.1259
   8623SM  H11S11496   4.022   3.138   4.896  0.0161  0.0003  0.8404
   8623SM  H11T11497   3.845   3.145   4.863 -1.1630  1.8019 -0.3970
   8623SM  C12S11498   3.905   3.243   5.047  0.1115  0.4055 -0.4433
   8623SM  H12S11499   3.813   3.305   5.047 -0.1768  0.0584 -2.8225
   8623SM  H12T11500   3.988   3.310   5.079  0.8110  0.1222 -1.5995
   8623SM  C13S11501   3.878   3.121   5.134 -0.0389 -0.5982 -0.9781
   8623SM  H13S11502   3.963   3.052   5.119  0.2417 -0.2763 -0.8874
   8623SM  H13T11503   3.786   3.076   5.092 -0.7263  0.0204 -0.1655
   8623SM  C14S11504   3.867   3.153   5.286 -0.3036 -0.2163 -0.0097
   8623SM  H14S11505   3.768   3.200   5.302  0.0003  0.0252  1.2810
   8623SM  H14T11506   3.951   3.219   5.318 -1.1724  1.7733 -1.6165
   8623SM  C15S11507   3.874   3.014   5.364 -0.1476 -0.4080  0.3986
   8623SM  H15S11508   3.980   2.985   5.348 -0.6891 -2.0029 -0.5239
   8623SM  H15T11509   3.804   2.939   5.321 -0.7425 -1.7188  3.3978
   8623SM  C16S11510   3.853   3.033   5.512 -0.4495 -0.2004 -0.7933
   8623SM  H16S11511   3.923   3.112   5.547 -0.8197  0.5752 -1.7790
   8623SM  H16T11512   3.885   2.944   5.571  1.7102 -0.5561 -2.3544
   8623SM  C17S11513   3.713   3.076   5.547 -1.3222  0.3524  0.3725
   8623SM  H17S11514   3.646   3.030   5.472 -0.2201 -2.2298  0.8432
   8623SM  H17T11515   3.698   3.186   5.545  1.4320  0.7976 -1.1259
   8623SM  C18S11516   3.671   3.026   5.685 -0.0216  0.2578 -0.5750
   8623SM  H18S11517   3.739   3.044   5.770 -2.5491 -0.4099  1.7355
   8623SM  H18T11518   3.655   2.916   5.675  0.9443  0.0835 -0.2942
   8623SM  H18U11519   3.572   3.074   5.702  1.1138  1.9046  1.8751
   8623SM   C1F11520   4.466   3.257   4.040 -0.6259  0.0911 -0.3949
   8623SM    OF11521   4.516   3.350   3.978 -0.7731 -0.4447  0.4483
   8623SM   C2F11522   4.548   3.167   4.123 -0.5042  0.1018 -0.4534
   8623SM   H2F11523   4.534   3.059   4.103 -0.3044  0.0013 -0.0648
   8623SM   H2G11524   4.505   3.173   4.226 -0.5932  1.2615 -0.5472
   8623SM   C3F11525   4.697   3.196   4.128 -0.6427 -0.2505 -0.0094
   8623SM   H3F11526   4.714   3.304   4.151 -1.0364 -0.6301  2.3843
   8623SM   H3G11527   4.748   3.187   4.030  1.5883  1.1386  0.9365
   8623SM   C4F11528   4.782   3.112   4.221 -0.2613  0.0772  0.2230
   8623SM   H4F11529   4.887   3.149   4.213  0.3387 -1.3613  1.1498
   8623SM   H4G11530   4.802   3.008   4.188  0.8359  0.8108 -1.5447
   8623SM   C5F11531   4.753   3.136   4.366 -0.2669  0.1173  0.1084
   8623SM   H5F11532   4.669   3.070   4.396  0.8116 -2.0947 -1.5157
   8623SM   H5G11533   4.738   3.245   4.385 -2.0558 -0.4102  2.1516
   8623SM   C6F11534   4.882   3.106   4.453  1.2399  0.1913  0.2966
   8623SM   H6F11535   4.959   3.181   4.427  0.7039  0.1226 -1.6940
   8623SM   H6G11536   4.912   3.004   4.421 -1.9853 -0.6693 -0.3468
   8623SM   C7F11537   4.840   3.108   4.598 -0.3715 -0.0306 -0.6110
   8623SM   H7F11538   4.767   3.030   4.629 -1.2346  0.1676 -2.0470
   8623SM   H7G11539   4.786   3.205   4.607  0.6268  0.4202  0.8539
   8623SM   C8F11540   4.963   3.114   4.688 -0.4735 -0.1646 -0.2789
   8623SM   H8F11541   5.043   3.189   4.668  1.5683 -1.8676  0.9982
   8623SM   H8G11542   5.011   3.014   4.687 -0.9761 -0.4272  0.6802
   8623SM   C9F11543   4.904   3.142   4.829  0.2880  0.1829 -0.7437
   8623SM   H9F11544   4.831   3.063   4.855 -0.7628  1.6863  1.1196
   8623SM   H9G11545   4.840   3.233   4.834  2.6691  1.9888 -1.3136
   8623SM  C10F11546   5.011   3.152   4.945 -0.3525  0.6921  0.4087
   8623SM  H10F11547   5.093   3.227   4.939  0.0435  0.2433  0.1735
   8623SM  H10G11548   5.062   3.054   4.951  2.8207  2.2930  2.9166
   8623SM  C11F11549   4.948   3.188   5.081 -0.2995  0.2534  0.3811
   8623SM  H11F11550   4.918   3.294   5.095 -0.2492 -0.0085  3.0426
   8623SM  H11G11551   5.036   3.185   5.149 -0.3916  0.0908  0.4941
   8623SM  C12F11552   4.832   3.103   5.128  0.1818  0.0719  0.2287
   8623SM  H12F11553   4.850   2.996   5.102 -1.0299  0.5647 -3.1375
   8623SM  H12G11554   4.734   3.130   5.084 -0.0932 -1.4008 -0.1128
   8623SM  C13F11555   4.821   3.110   5.276  0.1665  0.5590 -0.1880
   8623SM  H13F11556   4.729   3.054   5.303  0.6465 -1.0650 -1.7534
   8623SM  H13G11557   4.808   3.217   5.304 -3.0782  0.8017 -2.1042
   8623SM  C14F11558   4.938   3.052   5.360 -0.0033 -0.2663 -0.4664
   8623SM  H14F11559   5.029   3.105   5.326 -0.0188  1.3521  1.8032
   8623SM  H14G11560   4.944   2.943   5.339  0.1166 -0.2116 -0.7281
   8623SM  C15F11561   4.917   3.080   5.511  0.1343 -0.0551 -0.2062
   8623SM  H15F11562   4.836   3.154   5.529  0.5969 -0.0331  1.9973
   8623SM  H15G11563   5.010   3.126   5.551  0.9351  0.4838 -2.5217
   8623SM  C16F11564   4.889   2.950   5.606  0.1640 -0.5009  0.9751
   8623SM  H16F11565   4.938   2.865   5.555  0.3915  0.8166 -1.1085
   8623SM  H16G11566   4.779   2.939   5.615 -0.0040 -0.4150 -0.6853
   8623SM  C17F11567   4.938   2.960   5.748 -0.4249  0.2359  0.9005
   8623SM  H17F11568   5.045   2.990   5.747  0.2629 -2.0036  1.7009
   8623SM  H17G11569   4.924   2.862   5.799  1.0184 -1.2173 -1.3174
   8623SM  C18F11570   4.875   3.076   5.834 -0.5086  0.5475  0.1689
   8623SM  H18F11571   4.764   3.071   5.829 -0.4968  0.9450 -0.7386
   8623SM  H18G11572   4.913   3.168   5.784 -2.3417 -0.5065 -3.5152
   8623SM  C19F11573   4.922   3.064   5.978  0.4678 -0.5704  0.2770
   8623SM  H19F11574   5.033   3.056   5.978  0.6664  1.2050 -1.9189
   8623SM  H19G11575   4.874   2.970   6.012  1.3012 -0.6418  1.3258
   8623SM  C20F11576   4.878   3.179   6.058  0.0828 -0.4463  0.2785
   8623SM  H20F11577   4.913   3.274   6.012 -0.5766 -0.3664 -0.0596
   8623SM  H20G11578   4.927   3.179   6.158 -1.4720  1.9261  1.1336
   8623SM  C21F11579   4.730   3.180   6.078 -0.0682 -0.1695  0.2642
   8623SM  H21F11580   4.706   3.090   6.139 -2.5401  1.1283  1.3701
   8623SM  H21G11581   4.675   3.167   5.983 -0.1674 -2.3622  0.5584
   8623SM  C22F11582   4.684   3.316   6.139  0.0644 -0.0339  0.1205
   8623SM  H22F11583   4.574   3.325   6.137  0.0145  0.0069 -3.1341
   8623SM  H22G11584   4.720   3.399   6.075  1.8864 -1.5592 -0.9596
   8623SM  C23F11585   4.731   3.333   6.282  0.1316  0.4941  0.0999
   8623SM  H23F11586   4.695   3.255   6.352  0.9655  0.1626  0.1603
   8623SM  H23G11587   4.704   3.433   6.324  3.3767  1.4949  0.0182
   8623SM  H23H11588   4.840   3.324   6.297  0.0472  0.9880  1.1481
   8723SM     N11589   4.784   3.598   3.358 -0.3249 -0.6003 -0.6018
   8723SM   C1511590   4.721   3.468   3.409  0.1846 -0.3631  0.1547
   8723SM  H15A11591   4.690   3.484   3.511 -0.4641 -0.4418 -0.0289
   8723SM  H15B11592   4.804   3.398   3.414 -0.7854 -1.6376 -0.9964
   8723SM  H15C11593   4.637   3.433   3.351  1.0237 -0.2844 -1.1590
   8723SM   C1411594   4.826   3.590   3.217  0.2552  0.2871  0.2067
   8723SM  H14A11595   4.860   3.687   3.184 -1.1624  0.3772 -1.1628
   8723SM  H14B11596   4.746   3.558   3.152  0.7319 -0.5491  0.0184
   8723SM  H14C11597   4.903   3.516   3.203  1.8843  2.0436 -0.3870
   8723SM   C1311598   4.688   3.706   3.382 -0.3829  0.2499 -0.3606
   8723SM  H13A11599   4.684   3.732   3.487  2.9150 -0.0918 -0.0490
   8723SM  H13B11600   4.587   3.686   3.349 -1.1578  0.3576  1.7682
   8723SM  H13C11601   4.707   3.797   3.327 -2.0370 -0.7084 -2.6471
   8723SM   C1211602   4.916   3.626   3.419 -0.3588 -0.5304 -0.3465
   8723SM  H12A11603   4.914   3.671   3.517  0.6308 -1.6731  0.2244
   8723SM  H12B11604   4.962   3.707   3.364  0.1114 -1.2253 -1.0032
   8723SM   C1111605   5.033   3.516   3.410 -0.0821  0.6895 -0.6335
   8723SM  H11A11606   5.122   3.570   3.447  0.8528 -0.8402 -0.5404
   8723SM  H11B11607   5.054   3.483   3.306 -1.1089  0.6682 -0.8423
   8723SM     P11608   5.077   3.280   3.525 -0.1148  0.1221 -0.1250
   8723SM   O1311609   5.004   3.204   3.632 -0.0647  0.1749 -0.6141
   8723SM   O1411610   5.132   3.207   3.409  0.4493  0.7239  0.1206
   8723SM   O1111611   5.203   3.362   3.590  0.3328 -0.2270 -0.0383
   8723SM   O1211612   4.987   3.401   3.480  0.2866 -0.1323  0.1995
   8723SM   C1S11613   5.197   3.443   3.707  0.5786  0.3358 -1.0792
   8723SM   H1S11614   5.091   3.436   3.738  1.3641 -2.3215  1.4706
   8723SM   H1T11615   5.224   3.550   3.692  3.6226 -0.3331 -1.1252
   8723SM    NF11616   5.241   3.449   3.948  0.0125  0.6417  0.5923
   8723SM   HNF11617   5.309   3.515   3.980  0.4981  0.6625 -0.4065
   8723SM   C2S11618   5.269   3.372   3.825 -0.3021 -0.4900  0.6898
   8723SM   H2S11619   5.229   3.270   3.841 -1.9357  0.1647  0.9607
   8723SM   C3S11620   5.418   3.355   3.790  0.0025  0.2471 -0.0845
   8723SM   H3S11621   5.468   3.454   3.796  0.6818 -0.0460 -0.7309
   8723SM    O311622   5.441   3.298   3.655 -0.1883  0.3196 -0.0815
   8723SM   HO311623   5.354   3.303   3.615 -0.3821 -0.4248  0.2343
   8723SM   C4S11624   5.487   3.262   3.884  0.2421 -0.6594 -0.5547
   8723SM   H4S11625   5.451   3.158   3.882  0.3478 -0.6913 -2.4275
   8723SM   C5S11626   5.595   3.291   3.958 -0.2992 -0.1075  0.2546
   8723SM   H5S11627   5.637   3.392   3.948 -0.6747  0.0598  0.3129
   8723SM   C6S11628   5.661   3.193   4.047  0.5424  0.4660 -0.5916
   8723SM   H6S11629   5.769   3.183   4.023 -0.1198 -1.5737 -3.2088
   8723SM   H6T11630   5.614   3.093   4.038  0.8382  0.3959 -1.4627
   8723SM   C7S11631   5.648   3.235   4.191 -0.1609 -0.6926 -0.0426
   8723SM   H7S11632   5.544   3.229   4.227 -0.2929 -1.3654 -0.5101
   8723SM   H7T11633   5.688   3.338   4.207 -1.6923 -0.3716  2.0261
   8723SM   C8S11634   5.725   3.140   4.280  0.8670  0.2549  0.1216
   8723SM   H8S11635   5.834   3.150   4.260  0.7316  1.7878  0.0642
   8723SM   H8T11636   5.705   3.035   4.249 -0.0573 -0.6213  3.3004
   8723SM   C9S11637   5.707   3.159   4.434  0.2460  0.0334  0.3023
   8723SM   H9S11638   5.602   3.150   4.469  0.7129 -1.2144  1.5254
   8723SM   H9T11639   5.739   3.262   4.460 -0.9017  0.4890 -0.0368
   8723SM  C10S11640   5.803   3.074   4.521 -0.1608 -0.0548  0.4743
   8723SM  H10S11641   5.907   3.076   4.482 -0.7784  1.1903 -1.2323
   8723SM  H10T11642   5.786   2.964   4.520  0.5401 -0.1714 -1.0218
   8723SM  C11S11643   5.794   3.127   4.665  0.0358  0.2503 -0.7826
   8723SM  H11S11644   5.687   3.132   4.695 -0.3942  0.1203 -2.2230
   8723SM  H11T11645   5.830   3.232   4.673 -2.6193  1.2722 -1.4903
   8723SM  C12S11646   5.875   3.045   4.766  0.1418  0.4554 -0.5999
   8723SM  H12S11647   5.975   3.025   4.722 -1.0758 -0.8977 -2.9361
   8723SM  H12T11648   5.821   2.951   4.786  3.1163 -1.2947 -0.1267
   8723SM  C13S11649   5.887   3.114   4.895 -0.1645  0.2850  0.0518
   8723SM  H13S11650   5.789   3.148   4.935  0.1520  0.0910  1.0428
   8723SM  H13T11651   5.957   3.197   4.873  1.3457 -0.1603  2.6323
   8723SM  C14S11652   5.940   3.019   5.013 -0.0100 -0.0810  0.5430
   8723SM  H14S11653   6.041   2.976   4.993 -1.0594 -2.5219  0.1703
   8723SM  H14T11654   5.877   2.931   5.036  2.8387 -2.0746  1.1458
   8723SM  C15S11655   5.961   3.094   5.145  0.3263  0.2183  0.6049
   8723SM  H15S11656   5.875   3.160   5.166 -1.4585 -1.5080 -0.9256
   8723SM  H15T11657   6.058   3.149   5.142  0.1499  0.4921 -1.0246
   8723SM  C16S11658   5.964   3.000   5.267 -0.4958 -0.0986 -0.4031
   8723SM  H16S11659   6.050   2.930   5.259 -1.1162 -0.7320 -2.0487
   8723SM  H16T11660   5.874   2.934   5.265 -0.5577 -0.0478  0.2845
   8723SM  C17S11661   5.961   3.063   5.413  0.7934  0.1614  0.7073
   8723SM  H17S11662   6.059   3.106   5.441  0.6574 -0.0537  1.5397
   8723SM  H17T11663   5.938   2.979   5.482 -0.1603 -0.5603 -0.4339
   8723SM  C18S11664   5.851   3.172   5.423 -0.6034 -0.2360  0.2742
   8723SM  H18S11665   5.844   3.220   5.523  1.5958  0.5876  0.0905
   8723SM  H18T11666   5.751   3.126   5.409 -0.6539 -0.4043  1.1208
   8723SM  H18U11667   5.871   3.256   5.354 -0.9412  1.5548  2.2432
   8723SM   C1F11668   5.123   3.446   4.010 -0.0279 -0.4233 -0.2050
   8723SM    OF11669   5.028   3.376   3.968 -0.3097 -0.6988 -0.3333
   8723SM   C2F11670   5.114   3.533   4.138  1.2110 -0.4456  0.7012
   8723SM   H2F11671   5.074   3.631   4.105  1.2204 -0.0780  1.7510
   8723SM   H2G11672   5.213   3.549   4.185 -0.8156  2.3798  4.6405
   8723SM   C3F11673   5.024   3.462   4.244  0.2563 -0.0658 -0.3300
   8723SM   H3F11674   5.072   3.367   4.278 -1.0144 -0.5527  0.1437
   8723SM   H3G11675   4.934   3.446   4.182  0.4025  1.0347 -0.8556
   8723SM   C4F11676   4.989   3.538   4.374 -0.6902 -0.3113 -0.4200
   8723SM   H4F11677   4.886   3.516   4.409  0.0123  0.0925  2.1483
   8723SM   H4G11678   4.989   3.648   4.359 -3.1092  0.2914  2.8275
   8723SM   C5F11679   5.077   3.504   4.497  0.5861  0.0893  0.6669
   8723SM   H5F11680   5.173   3.560   4.489  0.3133  1.0868  3.2513
   8723SM   H5G11681   5.103   3.396   4.491 -0.7708 -0.2249  0.1419
   8723SM   C6F11682   5.002   3.529   4.627  0.7997  0.1412  0.3938
   8723SM   H6F11683   4.942   3.438   4.649  0.8782 -0.0276 -0.0855
   8723SM   H6G11684   4.940   3.621   4.622  0.9805  0.4848  2.9471
   8723SM   C7F11685   5.097   3.542   4.749 -0.1864 -0.0086  0.5368
   8723SM   H7F11686   5.171   3.618   4.719  0.3455 -0.5753  0.3906
   8723SM   H7G11687   5.144   3.441   4.750 -0.5417 -0.2186 -1.1229
   8723SM   C8F11688   5.037   3.582   4.882 -0.1598  0.3456  0.2119
   8723SM   H8F11689   4.943   3.529   4.907 -0.9464  1.5630 -0.0543
   8723SM   H8G11690   5.024   3.693   4.887 -0.5914  0.2355  2.2900
   8723SM   C9F11691   5.134   3.546   4.999  0.6999 -0.4238  0.2099
   8723SM   H9F11692   5.228   3.603   4.984  1.9653 -2.6351 -0.7560
   8723SM   H9G11693   5.161   3.439   4.986  1.6638 -0.0232 -1.4744
   8723SM  C10F11694   5.061   3.568   5.138 -0.3224  0.0708  0.1695
   8723SM  H10F11695   4.982   3.490   5.149  0.7080 -0.8554  1.2277
   8723SM  H10G11696   5.006   3.664   5.125 -0.9261 -0.5776 -2.8782
   8723SM  C11F11697   5.145   3.541   5.263 -0.7319 -0.4142  0.4053
   8723SM  H11F11698   5.098   3.592   5.350 -2.3018  0.0517 -0.6685
   8723SM  H11G11699   5.243   3.591   5.248 -0.8863 -0.4391 -0.7703
   8723SM  C12F11700   5.174   3.391   5.293  0.2155  0.4326  0.1344
   8723SM  H12F11701   5.203   3.349   5.194  0.1741 -0.1952  0.3822
   8723SM  H12G11702   5.085   3.338   5.332  1.2759 -0.3438  1.5886
   8723SM  C13F11703   5.289   3.366   5.391  0.6715 -0.4219 -0.2934
   8723SM  H13F11704   5.271   3.395   5.496  0.0596 -1.6530 -0.0466
   8723SM  H13G11705   5.369   3.433   5.353 -0.0308 -0.2674 -1.5768
   8723SM  C14F11706   5.312   3.211   5.403  0.0014  0.2460 -0.1027
   8723SM  H14F11707   5.331   3.174   5.300  3.2022  0.8514  0.1659
   8723SM  H14G11708   5.218   3.161   5.435 -0.2764  0.4361 -0.6138
   8723SM  C15F11709   5.429   3.166   5.493  0.2724 -0.4949 -0.0102
   8723SM  H15F11710   5.523   3.207   5.450  1.7613 -1.7127  1.8835
   8723SM  H15G11711   5.437   3.056   5.500  2.0362 -0.3989 -0.1520
   8723SM  C16F11712   5.411   3.210   5.637 -0.1448  0.7666 -0.5630
   8723SM  H16F11713   5.414   3.321   5.632 -0.9629  0.8037 -0.4002
   8723SM  H16G11714   5.491   3.163   5.697 -1.3208  0.9906  1.2858
   8723SM  C17F11715   5.282   3.161   5.703  0.5108  0.3365  0.5107
   8723SM  H17F11716   5.290   3.051   5.689  0.3977  0.1412  1.9063
   8723SM  H17G11717   5.186   3.185   5.653 -1.2794 -2.7401  2.2013
   8723SM  C18F11718   5.294   3.197   5.858  0.2343 -0.8233  0.4191
   8723SM  H18F11719   5.400   3.186   5.890  0.1153 -2.5669  0.2837
   8723SM  H18G11720   5.245   3.121   5.922 -1.2478  0.0927  0.4424
   8723SM  C19F11721   5.225   3.332   5.893 -0.3291 -0.1308  0.7563
   8723SM  H19F11722   5.115   3.332   5.879 -0.6078 -1.7737  2.5503
   8723SM  H19G11723   5.256   3.402   5.813 -0.3044 -0.3122  0.6045
   8723SM  C20F11724   5.268   3.389   6.029  0.5288 -0.0903 -0.5452
   8723SM  H20F11725   5.207   3.481   6.045 -0.2296 -0.5332 -0.8031
   8723SM  H20G11726   5.371   3.428   6.041  0.3555 -0.1546  1.4567
   8723SM  C21F11727   5.243   3.297   6.145  0.2477  0.5582 -0.2383
   8723SM  H21F11728   5.302   3.202   6.150  1.5960  1.2932 -1.4438
   8723SM  H21G11729   5.139   3.261   6.130  0.6493 -1.1036  0.6711
   8723SM  C22F11730   5.242   3.372   6.279  0.1221 -0.4599  0.1773
   8723SM  H22F11731   5.145   3.422   6.300  0.4009 -0.8321  2.7121
   8723SM  H22G11732   5.319   3.449   6.260  1.9042 -2.4151 -1.0354
   8723SM  C23F11733   5.269   3.280   6.395 -0.4136 -0.2127 -0.6513
   8723SM  H23F11734   5.204   3.190   6.385 -0.1315 -0.2542 -2.4918
   8723SM  H23G11735   5.225   3.319   6.490 -1.5864 -1.0984 -0.7959
   8723SM  H23H11736   5.370   3.233   6.397 -0.5478 -0.5037 -0.5633
   8823SM     N11737   3.430   1.826   4.261 -0.6327 -0.2389 -0.6139
   8823SM   C1511738   3.334   1.707   4.235  0.1782 -0.4948  0.1356
   8823SM  H15A11739   3.304   1.647   4.320 -0.2733 -2.6867 -1.5033
   8823SM  H15B11740   3.380   1.634   4.171 -0.9637  0.9726 -2.4937
   8823SM  H15C11741   3.241   1.737   4.188  1.7733  3.8273 -0.7595
   8823SM   C1411742   3.561   1.778   4.314  0.3378  0.2417 -0.4538
   8823SM  H14A11743   3.615   1.864   4.349 -0.7570  0.7331  0.0560
   8823SM  H14B11744   3.619   1.721   4.242  0.3095 -0.0022 -0.2834
   8823SM  H14C11745   3.553   1.704   4.392  1.2740 -0.7027 -1.2108
   8823SM   C1311746   3.463   1.900   4.142  0.0007  0.3069  0.7289
   8823SM  H13A11747   3.503   1.843   4.060 -0.5589 -0.5219  1.0272
   8823SM  H13B11748   3.543   1.971   4.161  2.0087 -1.3869 -0.8924
   8823SM  H13C11749   3.374   1.954   4.117  0.1651  0.9994  1.5593
   8823SM   C1211750   3.357   1.914   4.356 -0.0808  0.1002 -0.0541
   8823SM  H12A11751   3.334   1.854   4.443 -1.8976 -0.8191 -1.1006
   8823SM  H12B11752   3.260   1.944   4.320  0.1474  1.6689  0.5602
   8823SM   C1111753   3.422   2.048   4.404  0.0760 -0.6103 -0.2027
   8823SM  H11A11754   3.525   2.023   4.437 -0.7440 -1.6597  1.7252
   8823SM  H11B11755   3.350   2.085   4.481  0.9766  0.1963  0.2849
   8823SM     P11756   3.325   2.209   4.228  0.1608 -0.6266  0.2795
   8823SM   O1311757   3.370   2.345   4.191  0.1069 -0.4776  0.6659
   8823SM   O1411758   3.274   2.124   4.117  0.1202 -0.2686 -0.2244
   8823SM   O1111759   3.220   2.236   4.333  1.2225 -0.3649  0.1044
   8823SM   O1211760   3.437   2.139   4.299 -0.7330 -0.2677 -0.2453
   8823SM   C1S11761   3.084   2.184   4.332 -0.1072 -0.0779 -0.1486
   8823SM   H1S11762   3.079   2.080   4.294 -0.7799  0.6122 -2.1349
   8823SM   H1T11763   3.023   2.242   4.259 -1.1733  0.3652  1.0604
   8823SM    NF11764   2.894   2.107   4.472 -0.6113 -0.3559 -0.0203
   8823SM   HNF11765   2.805   2.151   4.478 -1.1194 -1.4239  0.8328
   8823SM   C2S11766   3.009   2.194   4.471 -0.2378  0.2723  0.1557
   8823SM   H2S11767   3.078   2.149   4.545  1.4610 -1.8641 -2.5104
   8823SM   C3S11768   2.991   2.349   4.510  0.1105 -0.1785 -0.5110
   8823SM   H3S11769   2.919   2.395   4.439 -1.6156 -0.4265  0.9942
   8823SM    O311770   3.116   2.431   4.508  0.3331  0.4625  0.2722
   8823SM   HO311771   3.174   2.393   4.442  0.7932  0.2164  0.8068
   8823SM   C4S11772   2.937   2.352   4.647 -1.2978  0.9308  0.3767
   8823SM   H4S11773   2.830   2.372   4.662 -1.4963  0.2769 -0.1125
   8823SM   C5S11774   3.017   2.332   4.758  0.4544 -0.2985 -0.1723
   8823SM   H5S11775   3.124   2.311   4.748  0.3951 -1.1504  0.8430
   8823SM   C6S11776   2.980   2.333   4.907 -0.7475 -0.1768 -1.0012
   8823SM   H6S11777   3.058   2.387   4.965 -2.6637  2.3222 -0.5483
   8823SM   H6T11778   2.984   2.232   4.952 -0.5929  0.3805  0.2658
   8823SM   C7S11779   2.838   2.386   4.952 -0.8336 -0.6982 -0.2255
   8823SM   H7S11780   2.754   2.326   4.912 -1.6290  1.3828 -1.8825
   8823SM   H7T11781   2.815   2.488   4.914 -1.4652 -0.1426  1.5692
   8823SM   C8S11782   2.830   2.372   5.103  0.2109 -0.6655 -0.6735
   8823SM   H8S11783   2.920   2.420   5.146 -0.3601  1.2678 -1.5330
   8823SM   H8T11784   2.831   2.262   5.124  0.0583 -0.7054 -0.8686
   8823SM   C9S11785   2.700   2.425   5.162  0.6043  0.1167  0.0575
   8823SM   H9S11786   2.623   2.379   5.096  0.4313  0.3311  0.1085
   8823SM   H9T11787   2.685   2.534   5.146  2.6488  0.3061 -1.0017
   8823SM  C10S11788   2.667   2.374   5.310  0.3716  0.0119 -0.1924
   8823SM  H10S11789   2.753   2.387   5.379 -0.3801 -1.5797  1.1121
   8823SM  H10T11790   2.643   2.266   5.306 -3.1949  0.7026 -0.2070
   8823SM  C11S11791   2.554   2.439   5.379  0.0153  0.5797  0.8125
   8823SM  H11S11792   2.460   2.406   5.331  0.7310 -0.5588  0.1715
   8823SM  H11T11793   2.556   2.549   5.363  0.3098  0.4324 -0.2269
   8823SM  C12S11794   2.550   2.426   5.529 -0.0131 -0.0864 -0.6629
   8823SM  H12S11795   2.654   2.451   5.559 -0.0547  1.0320 -1.3937
   8823SM  H12T11796   2.532   2.323   5.567  0.0535 -0.0380 -0.4986
   8823SM  C13S11797   2.448   2.529   5.591 -0.8088  0.9575  0.0797
   8823SM  H13S11798   2.343   2.504   5.562 -0.9351  1.6261 -0.0446
   8823SM  H13T11799   2.464   2.627   5.542  0.3464 -0.6081 -2.9638
   8823SM  C14S11800   2.485   2.551   5.742 -0.3799 -0.0690  0.2549
   8823SM  H14S11801   2.593   2.577   5.740 -0.7230  1.4764 -1.9310
   8823SM  H14T11802   2.460   2.453   5.788  0.2023 -0.6917 -0.7253
   8823SM  C15S11803   2.404   2.650   5.818  0.3823  0.3113 -0.0061
   8823SM  H15S11804   2.296   2.627   5.804  0.4935  0.0613 -0.4677
   8823SM  H15T11805   2.419   2.752   5.775  0.4738 -0.3092 -1.4967
   8823SM  C16S11806   2.440   2.648   5.972  0.8073 -0.9658  0.2852
   8823SM  H16S11807   2.543   2.685   5.987  0.3349  0.2973  0.5310
   8823SM  H16T11808   2.440   2.543   6.009 -2.0813 -1.2811 -0.3557
   8823SM  C17S11809   2.343   2.735   6.050  0.1957 -0.6506  0.0377
   8823SM  H17S11810   2.240   2.696   6.032  0.2683 -0.1200 -1.7291
   8823SM  H17T11811   2.343   2.837   6.006  2.5268 -0.8558 -0.5767
   8823SM  C18S11812   2.366   2.742   6.196 -0.2124 -0.4466  0.0133
   8823SM  H18S11813   2.349   2.648   6.252  3.4623 -0.5255  1.2215
   8823SM  H18T11814   2.314   2.825   6.249 -0.2680  0.1844 -0.9938
   8823SM  H18U11815   2.473   2.756   6.219 -0.3748 -1.1142  1.2802
   8823SM   C1F11816   2.917   1.975   4.499  0.8126 -0.2528 -0.0789
   8823SM    OF11817   3.031   1.930   4.524 -0.5446  0.4641 -0.2695
   8823SM   C2F11818   2.798   1.879   4.511 -0.9256 -0.2776  0.6032
   8823SM   H2F11819   2.745   1.879   4.414 -0.8234 -0.1399  0.5467
   8823SM   H2G11820   2.733   1.924   4.589  0.2022  0.6188  1.0704
   8823SM   C3F11821   2.847   1.737   4.541  0.2613  0.3661  0.4727
   8823SM   H3F11822   2.908   1.739   4.634  2.2186 -1.1014 -0.6840
   8823SM   H3G11823   2.902   1.713   4.447 -1.7043  2.4620 -1.3238
   8823SM   C4F11824   2.739   1.627   4.543  0.0089  0.3104  0.0046
   8823SM   H4F11825   2.780   1.523   4.541 -0.7636  0.0039 -1.3513
   8823SM   H4G11826   2.689   1.622   4.443  0.2234 -0.4357 -0.0721
   8823SM   C5F11827   2.644   1.634   4.660 -0.2638  0.3755  0.4028
   8823SM   H5F11828   2.584   1.727   4.673 -0.3283  0.2891  0.7415
   8823SM   H5G11829   2.703   1.619   4.753 -0.8610 -0.7011  0.6239
   8823SM   C6F11830   2.545   1.516   4.663 -0.5463  0.0298  0.7622
   8823SM   H6F11831   2.613   1.428   4.668 -0.9169 -0.4190 -1.2055
   8823SM   H6G11832   2.491   1.519   4.567 -1.4682 -0.6123  1.2482
   8823SM   C7F11833   2.437   1.529   4.771  0.0326  0.3479  0.3355
   8823SM   H7F11834   2.357   1.453   4.760  0.4989 -0.0004 -0.7096
   8823SM   H7G11835   2.401   1.634   4.765  2.9719  1.4094 -0.0963
   8823SM   C8F11836   2.508   1.527   4.912  0.2224  0.5362 -1.0449
   8823SM   H8F11837   2.593   1.597   4.923  0.7129 -0.4555  3.6691
   8823SM   H8G11838   2.556   1.428   4.927 -0.7856  0.2024  0.1454
   8823SM   C9F11839   2.408   1.556   5.020  0.0575 -0.0097 -0.1831
   8823SM   H9F11840   2.317   1.492   5.029  1.2177 -1.6552  0.4640
   8823SM   H9G11841   2.373   1.660   5.006  3.2329  1.5345  2.1273
   8823SM  C10F11842   2.475   1.559   5.160 -1.1505 -0.1599 -1.0697
   8823SM  H10F11843   2.539   1.649   5.160  0.5601 -1.0352  3.9872
   8823SM  H10G11844   2.533   1.466   5.181  1.5114  1.0559 -2.6204
   8823SM  C11F11845   2.371   1.573   5.280 -0.6395  0.1675  0.0602
   8823SM  H11F11846   2.437   1.593   5.367  0.6526 -4.0495  0.2472
   8823SM  H11G11847   2.316   1.478   5.295  0.2877 -0.6013 -1.2358
   8823SM  C12F11848   2.274   1.690   5.260 -0.2054 -0.6167  0.2255
   8823SM  H12F11849   2.203   1.679   5.175  0.4423  1.9728 -0.7605
   8823SM  H12G11850   2.341   1.766   5.214 -1.2447  0.4460  0.4134
   8823SM  C13F11851   2.216   1.748   5.394 -0.3092  0.8007 -0.7547
   8823SM  H13F11852   2.154   1.830   5.352 -1.0105 -0.5931 -2.5478
   8823SM  H13G11853   2.299   1.799   5.449 -0.2049 -0.7842  0.6142
   8823SM  C14F11854   2.117   1.655   5.467 -0.6369  0.3614 -0.0616
   8823SM  H14F11855   2.173   1.559   5.476  0.6157  1.0841  0.0469
   8823SM  H14G11856   2.031   1.651   5.397  0.0443 -1.2436 -0.8639
   8823SM  C15F11857   2.057   1.710   5.604  0.1961 -0.7090  0.1024
   8823SM  H15F11858   2.020   1.814   5.592  4.6345  0.9936 -0.5448
   8823SM  H15G11859   2.151   1.732   5.659  0.7928  1.0515 -1.5091
   8823SM  C16F11860   1.959   1.612   5.660  0.1057 -0.2951 -0.8663
   8823SM  H16F11861   1.998   1.510   5.640  1.1113  0.1633 -1.3613
   8823SM  H16G11862   1.864   1.621   5.603  1.1159  2.8210 -2.3033
   8823SM  C17F11863   1.940   1.615   5.812 -0.3747  0.0220 -0.4261
   8823SM  H17F11864   2.016   1.677   5.864  0.5752 -0.5424 -1.0939
   8823SM  H17G11865   1.964   1.513   5.849 -1.1670 -0.4439 -1.1780
   8823SM  C18F11866   1.794   1.645   5.868 -0.1157  0.4666 -0.1796
   8823SM  H18F11867   1.710   1.582   5.833 -1.3961  1.2014  1.4045
   8823SM  H18G11868   1.769   1.748   5.832  0.5386  0.8687  0.4857
   8823SM  C19F11869   1.791   1.636   6.019  0.9155  0.1693 -0.4262
   8823SM  H19F11870   1.875   1.689   6.069  0.5559  1.1620 -0.8550
   8823SM  H19G11871   1.812   1.532   6.050 -0.5873  0.1104  0.5100
   8823SM  C20F11872   1.655   1.690   6.079  0.2905 -0.1260 -0.1489
   8823SM  H20F11873   1.650   1.664   6.187 -0.0916 -0.6868 -0.2940
   8823SM  H20G11874   1.576   1.640   6.019  1.4452  0.4957 -2.3092
   8823SM  C21F11875   1.611   1.837   6.055  0.3800 -0.2619  0.1784
   8823SM  H21F11876   1.613   1.859   5.946 -0.5115 -0.6547  0.0804
   8823SM  H21G11877   1.686   1.895   6.113  1.0981 -0.6277 -0.3688
   8823SM  C22F11878   1.469   1.873   6.114 -0.3589 -0.2934 -0.2021
   8823SM  H22F11879   1.387   1.813   6.068  0.2761 -1.9124  0.6897
   8823SM  H22G11880   1.456   1.980   6.087  0.1339 -0.5458 -1.5537
   8823SM  C23F11881   1.472   1.851   6.258  0.5084 -0.0702  0.5364
   8823SM  H23F11882   1.567   1.878   6.310 -0.1001  0.5847  1.3271
   8823SM  H23G11883   1.451   1.742   6.266 -1.6825  0.1320 -1.3173
   8823SM  H23H11884   1.391   1.908   6.308 -2.1567 -1.4229 -1.9170
   8923SM     N11885   0.254   3.309   3.291 -0.1808 -0.9196  0.2042
   8923SM   C1511886   0.400   3.269   3.271  0.4509 -0.0263  0.4546
   8923SM  H15A11887   0.439   3.339   3.198  0.5200  1.3415  1.7593
   8923SM  H15B11888   0.415   3.167   3.241  0.8192  0.5991 -1.6631
   8923SM  H15C11889   0.458   3.289   3.359  0.1693  0.5545  0.5181
   8923SM   C1411890   0.190   3.326   3.160  0.2876  0.3602  0.2321
   8923SM  H14A11891   0.206   3.426   3.123 -0.1552 -0.9634 -3.9647
   8923SM  H14B11892   0.083   3.317   3.174  0.5418 -0.5490  1.9066
   8923SM  H14C11893   0.217   3.251   3.088  0.1376  1.2029 -0.7337
   8923SM   C1311894   0.193   3.201   3.366  0.0607 -0.4215 -0.3363
   8923SM  H13A11895   0.206   3.110   3.309  0.0862 -0.9457  0.4842
   8923SM  H13B11896   0.089   3.225   3.380 -0.5826 -3.0697 -0.0792
   8923SM  H13C11897   0.242   3.190   3.462  0.2811 -1.3133 -0.5424
   8923SM   C1211898   0.244   3.446   3.357  0.4807 -0.7432 -0.0731
   8923SM  H12A11899   0.138   3.463   3.361  0.7222  0.6763  0.6800
   8923SM  H12B11900   0.285   3.525   3.296  0.5202  0.9362  2.0310
   8923SM   C1111901   0.317   3.460   3.494 -0.5162 -0.4897 -0.0359
   8923SM  H11A11902   0.294   3.375   3.562  0.9350 -0.5940  0.3471
   8923SM  H11B11903   0.271   3.547   3.547  0.3298 -0.4380  0.6426
   8923SM     P11904   0.536   3.621   3.500  0.2134 -0.0988 -0.3254
   8923SM   O1311905   0.679   3.616   3.466 -0.1872  0.0891  0.2775
   8923SM   O1411906   0.457   3.715   3.428  0.2042 -0.0881  0.1287
   8923SM   O1111907   0.527   3.657   3.650  0.1248 -0.0861 -0.2811
   8923SM   O1211908   0.461   3.484   3.491  0.2995  0.0259 -0.4708
   8923SM   C1S11909   0.419   3.731   3.708 -0.0170  0.5346 -0.8856
   8923SM   H1S11910   0.325   3.738   3.649  0.2638 -0.4143 -1.4690
   8923SM   H1T11911   0.465   3.827   3.741 -2.1531  0.4744  2.7604
   8923SM    NF11912   0.244   3.723   3.893  0.6256  0.4965  0.2779
   8923SM   HNF11913   0.252   3.804   3.951  2.1230 -0.0710  0.9201
   8923SM   C2S11914   0.374   3.666   3.849  0.1650  0.9351 -0.7762
   8923SM   H2S11915   0.353   3.560   3.823  0.0785  0.1514  2.1748
   8923SM   C3S11916   0.496   3.667   3.946  0.5026  0.0558  0.5275
   8923SM   H3S11917   0.507   3.774   3.974  1.7380  0.1588 -0.2832
   8923SM    O311918   0.625   3.648   3.889 -0.8396  0.0907  0.3922
   8923SM   HO311919   0.611   3.668   3.796 -1.1341  0.4792  0.5183
   8923SM   C4S11920   0.470   3.586   4.060 -0.6477  0.1361 -0.3799
   8923SM   H4S11921   0.417   3.642   4.138  0.0250  0.1298  0.0894
   8923SM   C5S11922   0.515   3.465   4.087 -0.5335  1.0524 -0.1227
   8923SM   H5S11923   0.588   3.423   4.018 -1.2168 -1.3384  0.5242
   8923SM   C6S11924   0.502   3.382   4.210  0.0282  0.6856 -0.8591
   8923SM   H6S11925   0.602   3.363   4.254  0.3980 -0.1120 -2.0022
   8923SM   H6T11926   0.457   3.283   4.189 -1.6829  0.7077  2.0824
   8923SM   C7S11927   0.417   3.451   4.317  0.6269 -0.3137 -0.2651
   8923SM   H7S11928   0.313   3.464   4.280  0.0504  1.2646  1.7429
   8923SM   H7T11929   0.447   3.557   4.335 -0.9612 -0.3006  2.8159
   8923SM   C8S11930   0.399   3.374   4.447 -0.1660 -0.2971 -0.1028
   8923SM   H8S11931   0.499   3.350   4.490 -0.0353 -2.7935 -1.5917
   8923SM   H8T11932   0.347   3.277   4.435  1.2917 -1.1374  0.0783
   8923SM   C9S11933   0.324   3.449   4.561 -0.9917 -0.4011  0.2169
   8923SM   H9S11934   0.216   3.457   4.536 -0.6504  0.1918 -1.1493
   8923SM   H9T11935   0.366   3.552   4.566 -1.1317 -0.3509  0.3611
   8923SM  C10S11936   0.334   3.378   4.694  0.4923  0.1561 -0.4185
   8923SM  H10S11937   0.431   3.419   4.731  0.5810  0.6499 -1.1634
   8923SM  H10T11938   0.333   3.268   4.682  0.2359 -0.0626  1.3695
   8923SM  C11S11939   0.221   3.405   4.797  0.0788  0.3700 -0.7566
   8923SM  H11S11940   0.135   3.345   4.760 -1.9447  1.5276  1.7520
   8923SM  H11T11941   0.188   3.511   4.803  2.5389  1.1216  2.6012
   8923SM  C12S11942   0.257   3.365   4.940  0.0240 -0.1358 -0.2273
   8923SM  H12S11943   0.348   3.421   4.971 -0.5291  0.8168 -0.2763
   8923SM  H12T11944   0.279   3.257   4.954 -2.2593 -0.3111  3.0337
   8923SM  C13S11945   0.138   3.386   5.043 -0.1311 -0.5605 -0.5101
   8923SM  H13S11946   0.050   3.324   5.015 -0.3695 -1.3132  1.7299
   8923SM  H13T11947   0.102   3.489   5.021  0.0303  0.0009  1.6179
   8923SM  C14S11948   0.188   3.366   5.186  0.0697 -0.6207  0.1902
   8923SM  H14S11949   0.269   3.441   5.198 -1.0663  0.9196 -1.3422
   8923SM  H14T11950   0.228   3.263   5.201  2.8568  0.1453 -1.2862
   8923SM  C15S11951   0.077   3.385   5.292 -0.2306  0.5784  0.1415
   8923SM  H15S11952  -0.002   3.314   5.258  0.6293 -0.1345 -0.4032
   8923SM  H15T11953   0.041   3.488   5.273  4.5594  2.6487  0.7933
   8923SM  C16S11954   0.115   3.369   5.441  0.3567 -0.1003 -0.1326
   8923SM  H16S11955   0.174   3.459   5.470 -0.3574  1.3514 -2.8159
   8923SM  H16T11956   0.192   3.289   5.439  1.3359  0.8218 -1.5576
   8923SM  C17S11957  -0.001   3.356   5.537 -0.3104 -0.5589 -0.2252
   8923SM  H17S11958  -0.058   3.451   5.530  0.7745  0.1325  0.1211
   8923SM  H17T11959   0.042   3.357   5.639 -1.0713 -0.7822  0.1059
   8923SM  C18S11960  -0.101   3.244   5.529 -1.2140  1.3472 -0.0375
   8923SM  H18S11961  -0.164   3.240   5.621  0.8245 -0.6512  1.3899
   8923SM  H18T11962  -0.038   3.153   5.533  0.4264  2.3163 -1.9438
   8923SM  H18U11963  -0.165   3.247   5.439  2.2984 -2.0685 -2.9973
   8923SM   C1F11964   0.130   3.686   3.839 -0.7654  0.4498 -0.2287
   8923SM    OF11965   0.121   3.596   3.760 -0.3595  0.0466 -0.7317
   8923SM   C2F11966   0.008   3.766   3.872  0.0362 -0.2175  0.0117
   8923SM   H2F11967  -0.046   3.766   3.775  0.6890  0.8907 -0.3696
   8923SM   H2G11968   0.034   3.868   3.907 -0.1877 -0.6974  1.6525
   8923SM   C3F11969  -0.076   3.693   3.980  0.5366  0.4471  0.5251
   8923SM   H3F11970  -0.099   3.590   3.943  2.4361  0.7372 -1.7517
   8923SM   H3G11971  -0.168   3.755   3.975  1.2228  1.4930  0.7144
   8923SM   C4F11972  -0.011   3.683   4.113  0.2367  0.7798  0.0600
   8923SM   H4F11973   0.034   3.775   4.157 -1.3983  1.0446  1.2574
   8923SM   H4G11974   0.068   3.610   4.087 -0.9525 -0.2153 -0.9041
   8923SM   C5F11975  -0.117   3.637   4.211  0.1283 -0.4052  0.4804
   8923SM   H5F11976  -0.175   3.550   4.174  1.4646 -2.1054  2.1689
   8923SM   H5G11977  -0.185   3.721   4.237 -1.1367 -1.4113  0.5051
   8923SM   C6F11978  -0.065   3.580   4.348  0.7743 -0.2498  0.3706
   8923SM   H6F11979   0.027   3.637   4.374  0.1340  0.5055  1.0710
   8923SM   H6G11980  -0.052   3.471   4.360 -0.1187 -0.5739 -1.3252
   8923SM   C7F11981  -0.158   3.613   4.469 -0.8495  0.0606 -0.8617
   8923SM   H7F11982  -0.254   3.558   4.469  0.0678 -1.6356  0.6019
   8923SM   H7G11983  -0.193   3.718   4.472  1.9902  1.1432 -1.6685
   8923SM   C8F11984  -0.101   3.584   4.606  0.0222 -0.8780  0.4010
   8923SM   H8F11985  -0.023   3.657   4.637 -0.5754  0.8770 -2.0047
   8923SM   H8G11986  -0.055   3.483   4.594  2.7440  0.3096 -0.0254
   8923SM   C9F11987  -0.218   3.592   4.707 -0.2117  0.4641 -0.6030
   8923SM   H9F11988  -0.296   3.518   4.682  0.8751 -1.7857  2.0798
   8923SM   H9G11989  -0.246   3.699   4.712  1.9656  1.0472  1.6610
   8923SM  C10F11990  -0.181   3.561   4.851 -0.0783  0.5430 -0.4846
   8923SM  H10F11991  -0.118   3.645   4.888  1.0043  0.6336 -2.3885
   8923SM  H10G11992  -0.124   3.466   4.855 -0.0272  0.6178  1.2508
   8923SM  C11F11993  -0.306   3.553   4.935  0.2205 -0.6070 -0.2163
   8923SM  H11F11994  -0.368   3.464   4.908 -0.7171 -0.1184  0.2822
   8923SM  H11G11995  -0.366   3.645   4.916  3.5606  1.2444 -3.0345
   8923SM  C12F11996  -0.263   3.538   5.085 -0.0243  0.7187  0.1270
   8923SM  H12F11997  -0.237   3.633   5.136  3.2241  0.2034 -0.3198
   8923SM  H12G11998  -0.169   3.479   5.082  0.3596  1.3609 -1.2085
   8923SM  C13F11999  -0.371   3.473   5.160 -0.2461  0.4614 -0.1157
   8923SM  H13F12000  -0.397   3.374   5.116 -2.2681  1.2794 -0.9273
   8923SM  H13G12001  -0.466   3.528   5.144 -1.3825 -0.5358  2.7094
   8923SM  C14F12002  -0.339   3.465   5.308 -0.2459 -0.3251 -0.1631
   8923SM  H14F12003  -0.294   3.561   5.341  0.6252 -1.0808  0.9761
   8923SM  H14G12004  -0.258   3.393   5.334 -0.8715 -0.9502  0.0772
   8923SM  C15F12005  -0.459   3.444   5.391 -0.0736 -0.0027 -0.1479
   8923SM  H15F12006  -0.521   3.357   5.359 -1.9448  1.0743  0.4100
   8923SM  H15G12007  -0.528   3.532   5.391 -0.8761 -0.5240 -2.8292
   8923SM  C16F12008  -0.415   3.415   5.539  0.0677 -0.3424  0.1402
   8923SM  H16F12009  -0.335   3.492   5.553  1.2130 -1.6335  0.9024
   8923SM  H16G12010  -0.370   3.314   5.547  1.9164  0.2526 -1.6657
   8923SM  C17F12011  -0.527   3.428   5.640 -0.1112  0.2072 -0.2531
   8923SM  H17F12012  -0.581   3.331   5.645  3.5617 -1.9915  0.0732
   8923SM  H17G12013  -0.600   3.508   5.616 -1.5601 -0.9138  0.2128
   8923SM  C18F12014  -0.473   3.463   5.780  0.1359  0.3274 -0.6374
   8923SM  H18F12015  -0.430   3.565   5.787 -0.3549  0.5274 -0.4783
   8923SM  H18G12016  -0.396   3.384   5.785  0.6148  0.8174 -0.2373
   8923SM  C19F12017  -0.575   3.444   5.882 -1.0700  0.1091 -0.6501
   8923SM  H19F12018  -0.603   3.337   5.871 -0.5372 -0.4318  2.3528
   8923SM  H19G12019  -0.663   3.507   5.855  0.0912  1.8297 -0.6123
   8923SM  C20F12020  -0.523   3.458   6.019  0.0320 -0.0801 -0.8506
   8923SM  H20F12021  -0.464   3.551   6.029 -2.4756  1.3907  1.4465
   8923SM  H20G12022  -0.470   3.364   6.046 -1.4223 -1.0018 -1.1020
   8923SM  C21F12023  -0.639   3.464   6.119  0.0219  0.4147  0.0905
   8923SM  H21F12024  -0.688   3.365   6.112  0.6735  0.0702  0.3752
   8923SM  H21G12025  -0.721   3.531   6.084 -0.2379 -0.0071 -0.1113
   8923SM  C22F12026  -0.597   3.486   6.269  0.4328  0.6785  0.1896
   8923SM  H22F12027  -0.621   3.594   6.280  0.4779  0.9495 -1.8843
   8923SM  H22G12028  -0.487   3.475   6.281  0.5314  1.0128 -0.3717
   8923SM  C23F12029  -0.681   3.402   6.365 -0.2191 -0.2650  0.2683
   8923SM  H23F12030  -0.677   3.448   6.467 -0.3093  0.6412 -0.1290
   8923SM  H23G12031  -0.644   3.299   6.384 -0.8001 -0.1600  2.2110
   8923SM  H23H12032  -0.785   3.407   6.326  0.1533  0.9502 -0.5955
   9023SM     N12033   6.159   3.042   3.176 -0.3094  0.6233 -0.5276
   9023SM   C1512034   6.163   3.189   3.219  0.6529 -0.8964  0.0277
   9023SM  H15A12035   6.225   3.246   3.151  1.4894 -1.3340  0.3999
   9023SM  H15B12036   6.215   3.185   3.313  0.0752 -0.2970  0.3743
   9023SM  H15C12037   6.066   3.227   3.243  0.9328  1.2543 -1.8775
   9023SM   C1412038   6.105   3.039   3.043  0.4623 -0.1261 -0.1438
   9023SM  H14A12039   6.166   3.092   2.971 -1.2112  0.9610 -0.8123
   9023SM  H14B12040   6.009   3.088   3.039  0.5532  0.0902  0.2866
   9023SM  H14C12041   6.085   2.937   3.012 -2.5313 -0.3198  2.0316
   9023SM   C1312042   6.299   2.990   3.160  0.8320 -0.4210 -0.7303
   9023SM  H13A12043   6.360   3.048   3.092  1.5182 -0.0538  0.1826
   9023SM  H13B12044   6.294   2.888   3.124  0.8120 -1.5503  2.1989
   9023SM  H13C12045   6.354   2.990   3.253  0.0217  0.8579 -0.2258
   9023SM   C1212046   6.073   2.959   3.272 -0.0082 -0.1057  0.5472
   9023SM  H12A12047   6.051   2.867   3.220 -3.4588  0.0753  1.4075
   9023SM  H12B12048   5.980   3.014   3.282  1.1983  2.6288 -1.9347
   9023SM   C1112049   6.137   2.935   3.412 -0.1251 -0.3455  0.0491
   9023SM  H11A12050   6.221   2.866   3.389 -0.7377 -0.9933 -0.2782
   9023SM  H11B12051   6.059   2.875   3.464  0.0875  0.2660  1.0928
   9023SM     P12052   6.065   3.137   3.578 -0.2419  0.1429  0.2038
   9023SM   O1312053   6.129   3.269   3.604  0.2016 -0.5732 -0.4748
   9023SM   O1412054   5.931   3.133   3.519 -0.6195 -0.0599 -0.5201
   9023SM   O1112055   6.064   3.064   3.717  0.0056  0.1267 -0.1384
   9023SM   O1212056   6.167   3.053   3.487  0.2034 -0.3002 -0.6589
   9023SM   C1S12057   6.139   2.946   3.754  0.5402 -0.1854 -0.4944
   9023SM   H1S12058   6.240   2.937   3.710  0.5347 -1.9337 -0.2179
   9023SM   H1T12059   6.081   2.862   3.709 -1.4986  1.4371 -1.0790
   9023SM    NF12060   6.237   2.812   3.947  0.4503 -0.3634 -0.3467
   9023SM   HNF12061   6.177   2.734   3.963 -0.2192 -0.0163 -1.0625
   9023SM   C2S12062   6.147   2.927   3.914  0.0345 -0.0759 -0.0306
   9023SM   H2S12063   6.204   3.014   3.951 -0.6653 -1.0314  3.6434
   9023SM   C3S12064   6.008   2.927   3.980 -0.3510  0.0565 -0.0923
   9023SM   H3S12065   5.958   2.836   3.938  0.7905 -0.4346 -0.4253
   9023SM    O312066   5.924   3.030   3.939  0.1231  0.4484  0.0374
   9023SM   HO312067   5.954   3.052   3.851 -2.2990  1.4002 -0.6284
   9023SM   C4S12068   6.017   2.907   4.128  0.1963  0.3726 -0.8452
   9023SM   H4S12069   6.061   2.986   4.191  0.1221 -2.1182  2.6190
   9023SM   C5S12070   5.970   2.794   4.192 -0.5216  0.1087  0.0133
   9023SM   H5S12071   5.923   2.717   4.129  1.0128 -0.5943 -0.3199
   9023SM   C6S12072   5.961   2.760   4.339  0.2053 -0.3164  0.0993
   9023SM   H6S12073   5.916   2.660   4.354 -0.1217 -0.0622  0.8692
   9023SM   H6T12074   5.892   2.835   4.384  1.6168  0.2149  1.4661
   9023SM   C7S12075   6.099   2.743   4.412  0.0828 -0.3338 -0.4058
   9023SM   H7S12076   6.169   2.814   4.362  0.6024 -1.7245 -1.6944
   9023SM   H7T12077   6.134   2.639   4.399  0.4264 -0.3135  0.2929
   9023SM   C8S12078   6.083   2.774   4.562 -0.2307 -0.0169  0.2406
   9023SM   H8S12079   6.001   2.711   4.602  0.0471 -1.2675 -1.0788
   9023SM   H8T12080   6.063   2.881   4.585  2.2658  0.7509 -0.8251
   9023SM   C9S12081   6.204   2.739   4.642  0.1291 -0.6688  0.2637
   9023SM   H9S12082   6.291   2.796   4.602 -0.0661 -1.6916 -1.7700
   9023SM   H9T12083   6.245   2.638   4.619 -0.5006 -0.4328 -2.0802
   9023SM  C10S12084   6.174   2.764   4.787  0.1803 -0.6033 -0.1797
   9023SM  H10S12085   6.130   2.863   4.812 -0.2637 -0.7833 -0.2291
   9023SM  H10T12086   6.280   2.773   4.817  1.0012 -2.0614 -2.3960
   9023SM  C11S12087   6.113   2.643   4.869 -0.4542 -0.1970  0.0882
   9023SM  H11S12088   6.173   2.554   4.841  2.4061  2.0980 -1.6919
   9023SM  H11T12089   6.006   2.635   4.841  0.0499  0.4708 -2.2295
   9023SM  C12S12090   6.118   2.662   5.023 -0.1764  0.1697 -0.1828
   9023SM  H12S12091   6.050   2.582   5.060 -0.2836  0.4302  0.1949
   9023SM  H12T12092   6.073   2.761   5.046 -1.4059 -0.0704 -1.4103
   9023SM  C13S12093   6.253   2.652   5.092 -0.6152 -0.1139  0.6963
   9023SM  H13S12094   6.309   2.741   5.054  0.4144 -1.0384 -0.0248
   9023SM  H13T12095   6.310   2.566   5.052  1.6525  1.4714  0.2672
   9023SM  C14S12096   6.248   2.652   5.244  0.6082 -0.0848  0.3146
   9023SM  H14S12097   6.175   2.729   5.277 -0.2585  0.0415 -1.7637
   9023SM  H14T12098   6.348   2.685   5.278 -0.8284  2.5591  2.3575
   9023SM  C15S12099   6.208   2.514   5.308 -0.9091 -0.1468  0.3182
   9023SM  H15S12100   6.282   2.437   5.276  0.1190  0.8054  0.3177
   9023SM  H15T12101   6.115   2.467   5.268 -0.2673  0.2534 -1.8132
   9023SM  C16S12102   6.198   2.535   5.459 -0.1921 -0.6504  0.0685
   9023SM  H16S12103   6.117   2.606   5.488  2.7636  2.3696  1.6400
   9023SM  H16T12104   6.299   2.571   5.488  0.1120 -1.7732  0.4379
   9023SM  C17S12105   6.181   2.410   5.543  0.6010 -0.1748 -0.9701
   9023SM  H17S12106   6.279   2.359   5.539  0.7704  0.2026 -2.8624
   9023SM  H17T12107   6.101   2.343   5.505  0.1596  0.3172 -0.9320
   9023SM  C18S12108   6.138   2.441   5.690  0.0267  0.0935  0.2046
   9023SM  H18S12109   6.029   2.462   5.692 -0.5114 -2.3385  0.1454
   9023SM  H18T12110   6.192   2.522   5.743 -0.5439  2.3620 -2.4903
   9023SM  H18U12111   6.145   2.351   5.755 -1.2535  0.5245  0.9821
   9023SM   C1F12112   6.364   2.795   3.908  0.1289 -0.2055 -0.2812
   9023SM    OF12113   6.421   2.878   3.837  0.2914 -0.0530 -0.2604
   9023SM   C2F12114   6.437   2.673   3.959 -0.2631 -0.5727  0.6400
   9023SM   H2F12115   6.483   2.628   3.868 -2.3360  1.0132 -1.3189
   9023SM   H2G12116   6.351   2.614   3.998 -1.6552  0.8982 -0.0988
   9023SM   C3F12117   6.538   2.683   4.074  1.1586 -0.0179 -0.4764
   9023SM   H3F12118   6.613   2.759   4.044  0.3835  1.1516  0.4631
   9023SM   H3G12119   6.575   2.578   4.082  1.9983  0.1458 -1.9164
   9023SM   C4F12120   6.481   2.726   4.211 -0.1672 -0.3317 -0.6257
   9023SM   H4F12121   6.400   2.657   4.244  0.5694 -1.5910 -1.3690
   9023SM   H4G12122   6.431   2.824   4.198 -2.8858 -1.5381  0.0291
   9023SM   C5F12123   6.593   2.728   4.316 -0.7381 -0.0704 -0.2757
   9023SM   H5F12124   6.663   2.813   4.300 -1.7788  1.1372  1.2030
   9023SM   H5G12125   6.640   2.628   4.306 -0.0674  0.4392 -3.2764
   9023SM   C6F12126   6.546   2.732   4.463  0.5241  0.2493 -0.2979
   9023SM   H6F12127   6.472   2.649   4.468  0.6546  0.1729  0.5156
   9023SM   H6G12128   6.476   2.817   4.482 -0.8923 -1.2699  1.6148
   9023SM   C7F12129   6.649   2.712   4.571 -0.1640 -0.8037 -0.0097
   9023SM   H7F12130   6.721   2.797   4.571  1.1845 -1.8399 -2.0862
   9023SM   H7G12131   6.702   2.621   4.535  0.9739 -0.1612 -0.0285
   9023SM   C8F12132   6.581   2.695   4.699 -0.1815  0.4560 -0.7806
   9023SM   H8F12133   6.484   2.640   4.702 -0.7876  1.4862 -0.7817
   9023SM   H8G12134   6.560   2.798   4.737  0.9476  0.1531  0.7503
   9023SM   C9F12135   6.670   2.645   4.816  0.6966  0.0043 -0.2144
   9023SM   H9F12136   6.773   2.685   4.818  0.8097 -0.2767 -0.4219
   9023SM   H9G12137   6.683   2.536   4.800 -0.2694  0.3403 -4.2953
   9023SM  C10F12138   6.617   2.662   4.960 -0.0768  0.7253 -0.5590
   9023SM  H10F12139   6.530   2.593   4.974  0.4152  0.0325 -0.8751
   9023SM  H10G12140   6.581   2.766   4.974 -1.3558  0.1424  0.9117
   9023SM  C11F12141   6.724   2.637   5.071  0.3161  0.3287 -0.2387
   9023SM  H11F12142   6.815   2.701   5.067  0.2953  0.3510 -0.4042
   9023SM  H11G12143   6.772   2.538   5.058  0.0193  0.0147  0.9580
   9023SM  C12F12144   6.649   2.632   5.201 -0.5621 -0.0170 -0.7423
   9023SM  H12F12145   6.565   2.562   5.219 -0.0193 -0.3627  0.5727
   9023SM  H12G12146   6.603   2.731   5.221 -0.5949 -0.2582  0.4486
   9023SM  C13F12147   6.749   2.606   5.308 -0.7236  0.6378 -0.2933
   9023SM  H13F12148   6.829   2.682   5.314  0.8496 -0.7859 -1.9764
   9023SM  H13G12149   6.796   2.505   5.306  0.4693  1.1285  1.3518
   9023SM  C14F12150   6.672   2.605   5.446 -0.2675 -0.4529  0.4412
   9023SM  H14F12151   6.606   2.515   5.455 -2.4942  0.9687 -0.8990
   9023SM  H14G12152   6.615   2.699   5.460  1.2338  0.7224 -0.8954
   9023SM  C15F12153   6.780   2.599   5.558 -0.0085  0.0609  0.1046
   9023SM  H15F12154   6.872   2.646   5.517 -1.4112  0.5867 -2.6421
   9023SM  H15G12155   6.820   2.497   5.574  0.9282  0.4650  0.4391
   9023SM  C16F12156   6.721   2.661   5.687 -0.8652 -0.2745  0.5956
   9023SM  H16F12157   6.784   2.613   5.765  1.3529  1.4233 -0.0696
   9023SM  H16G12158   6.617   2.624   5.699 -0.7720 -0.5562  0.5402
   9023SM  C17F12159   6.728   2.812   5.682  0.0830 -0.2961 -0.1272
   9023SM  H17F12160   6.669   2.855   5.598 -0.6521  0.3802  0.7208
   9023SM  H17G12161   6.836   2.835   5.670 -0.4391  1.1232 -2.8384
   9023SM  C18F12162   6.669   2.874   5.811 -0.3913  0.5962 -0.0132
   9023SM  H18F12163   6.735   2.827   5.887  1.4048 -3.4969 -3.6279
   9023SM  H18G12164   6.568   2.835   5.838 -0.6416  1.3400  0.1345
   9023SM  C19F12165   6.680   3.027   5.820  0.4108  0.9458 -0.2002
   9023SM  H19F12166   6.606   3.082   5.758 -0.7987 -0.3294  0.0648
   9023SM  H19G12167   6.786   3.058   5.806  1.3922 -1.7085  0.7912
   9023SM  C20F12168   6.635   3.068   5.965 -0.5571  0.0317 -0.1788
   9023SM  H20F12169   6.665   2.994   6.042 -2.2604 -0.1550  0.3284
   9023SM  H20G12170   6.525   3.060   5.967 -0.7111  1.9664  0.2647
   9023SM  C21F12171   6.683   3.200   6.014  0.8215  0.4623  0.0332
   9023SM  H21F12172   6.793   3.208   6.023  0.7612  0.4423  0.8229
   9023SM  H21G12173   6.651   3.215   6.119  2.6685  0.7736  0.5859
   9023SM  C22F12174   6.625   3.320   5.939 -0.3493  0.1054  0.1495
   9023SM  H22F12175   6.516   3.301   5.944 -0.0867 -1.1994  1.4016
   9023SM  H22G12176   6.664   3.325   5.835  0.8740  0.4378  0.6052
   9023SM  C23F12177   6.643   3.454   6.004 -0.0578  0.0334  0.1464
   9023SM  H23F12178   6.651   3.449   6.115  0.5694  1.0505  0.1554
   9023SM  H23G12179   6.566   3.525   5.967  0.0673 -0.2095 -0.5995
   9023SM  H23H12180   6.738   3.501   5.970  0.4137 -0.6526  0.4663
   9123SM     N12181   1.428   4.186   3.264 -0.1965  0.2619  0.5448
   9123SM   C1512182   1.512   4.290   3.324 -0.3623  0.1222 -0.4920
   9123SM  H15A12183   1.474   4.325   3.419 -3.6859 -2.0359 -0.8520
   9123SM  H15B12184   1.518   4.382   3.268  0.9704 -1.4769 -3.1899
   9123SM  H15C12185   1.612   4.252   3.338 -0.8125 -1.3618 -1.1051
   9123SM   C1412186   1.300   4.237   3.206 -0.6446  0.4910 -0.2430
   9123SM  H14A12187   1.320   4.284   3.111 -0.1261  2.0947  0.6066
   9123SM  H14B12188   1.268   4.329   3.253  0.7857  1.7447 -1.6089
   9123SM  H14C12189   1.224   4.161   3.211 -1.2881  1.1518  0.2865
   9123SM   C1312190   1.507   4.121   3.156 -0.1245 -0.3820  0.0893
   9123SM  H13A12191   1.436   4.087   3.082 -0.8482 -0.0378  0.6143
   9123SM  H13B12192   1.574   4.041   3.185  0.9761  0.1093 -0.9908
   9123SM  H13C12193   1.566   4.197   3.106 -0.0788  0.1130  0.8764
   9123SM   C1212194   1.404   4.086   3.365 -0.2031  0.7107 -0.3916
   9123SM  H12A12195   1.490   4.035   3.406 -1.0851 -0.3116  0.2277
   9123SM  H12B12196   1.341   4.007   3.327  0.4005  0.2633 -0.4780
   9123SM   C1112197   1.323   4.147   3.489  0.5498 -0.3417 -0.0364
   9123SM  H11A12198   1.255   4.068   3.528  2.0883 -1.0963  1.2546
   9123SM  H11B12199   1.249   4.217   3.445  1.3642  1.2847  1.0580
   9123SM     P12200   1.502   4.139   3.673  0.0218  0.2157  0.0331
   9123SM   O1312201   1.589   4.048   3.592 -0.1421 -0.3267  0.2862
   9123SM   O1412202   1.573   4.237   3.767  1.0069 -0.5000  0.3038
   9123SM   O1112203   1.407   4.034   3.762  0.2215 -0.1643 -0.3974
   9123SM   O1212204   1.398   4.214   3.583 -0.0948 -0.5289  0.1725
   9123SM   C1S12205   1.449   4.000   3.891  0.3956  0.2077  0.0101
   9123SM   H1S12206   1.451   4.092   3.953 -0.8406  1.4996 -1.7791
   9123SM   H1T12207   1.551   3.957   3.878  0.1627  0.1739 -1.9071
   9123SM    NF12208   1.376   3.871   4.095 -0.6785 -0.2874 -0.3656
   9123SM   HNF12209   1.445   3.805   4.124  0.2924  0.0240 -1.8384
   9123SM   C2S12210   1.357   3.893   3.951  0.1170  0.1250  0.0741
   9123SM   H2S12211   1.253   3.930   3.938  1.0307  3.1353  0.5793
   9123SM   C3S12212   1.368   3.768   3.856  0.2975  0.5283 -0.3211
   9123SM   H3S12213   1.476   3.748   3.841  0.1218 -1.6306  0.8900
   9123SM    O312214   1.308   3.791   3.730 -0.3143 -0.0996  0.9127
   9123SM   HO312215   1.340   3.879   3.710  1.3207 -0.4089  1.9234
   9123SM   C4S12216   1.300   3.643   3.911  0.6211 -0.2657  0.2701
   9123SM   H4S12217   1.193   3.648   3.934  1.0444  1.3202  2.1962
   9123SM   C5S12218   1.357   3.533   3.966  0.3428 -0.1853 -0.0778
   9123SM   H5S12219   1.465   3.543   3.985  0.7876 -0.7877 -2.0629
   9123SM   C6S12220   1.278   3.412   4.022 -0.5338  0.3932  0.2600
   9123SM   H6S12221   1.340   3.324   3.994  1.3317  1.5898  0.4037
   9123SM   H6T12222   1.176   3.409   3.979  0.1754 -1.3875 -1.4522
   9123SM   C7S12223   1.278   3.411   4.177 -0.2162  0.0798  0.4538
   9123SM   H7S12224   1.220   3.500   4.209 -1.0363 -0.8126  1.5246
   9123SM   H7T12225   1.378   3.426   4.222  0.8640  1.2206 -2.0992
   9123SM   C8S12226   1.200   3.293   4.234 -0.4564  0.2522 -0.0754
   9123SM   H8S12227   1.223   3.203   4.174 -1.0239  0.1908 -0.2098
   9123SM   H8T12228   1.092   3.316   4.220 -0.9076 -1.0681  0.9517
   9123SM   C9S12229   1.226   3.283   4.385 -0.5946 -0.0053  0.6239
   9123SM   H9S12230   1.247   3.383   4.428 -2.1436 -0.1560  1.7959
   9123SM   H9T12231   1.319   3.228   4.410  0.2740  0.8131 -0.6610
   9123SM  C10S12232   1.111   3.212   4.458 -0.0188  0.6149 -0.5097
   9123SM  H10S12233   1.095   3.105   4.436 -0.5342  0.2663  1.3362
   9123SM  H10T12234   1.020   3.265   4.422 -0.6358 -1.0350 -1.4780
   9123SM  C11S12235   1.119   3.218   4.607  0.2219 -0.3269  0.6828
   9123SM  H11S12236   1.025   3.172   4.645  0.8345 -0.4444  2.1625
   9123SM  H11T12237   1.125   3.323   4.642 -1.3947  0.1599 -0.4204
   9123SM  C12S12238   1.245   3.150   4.657  0.2236 -0.6891  0.5188
   9123SM  H12S12239   1.342   3.180   4.612  0.8280 -0.0941  2.1644
   9123SM  H12T12240   1.225   3.041   4.643 -0.1426 -0.3909 -1.6107
   9123SM  C13S12241   1.251   3.169   4.810 -0.2895  0.5038 -0.0008
   9123SM  H13S12242   1.228   3.275   4.836 -2.0888 -0.3923  2.4639
   9123SM  H13T12243   1.349   3.145   4.855 -0.2638 -1.9383 -1.2121
   9123SM  C14S12244   1.138   3.088   4.885 -0.0121  0.2186  0.7134
   9123SM  H14S12245   1.146   2.980   4.858  0.7108 -0.0174  1.8219
   9123SM  H14T12246   1.033   3.115   4.859  0.2447  1.6168  1.0485
   9123SM  C15S12247   1.145   3.100   5.034 -0.2894  0.7680 -0.6538
   9123SM  H15S12248   1.253   3.102   5.061 -0.6113 -1.1076  1.0388
   9123SM  H15T12249   1.099   3.014   5.086 -1.4210  1.9218  0.3510
   9123SM  C16S12250   1.083   3.227   5.094 -0.0136  0.2984 -0.0243
   9123SM  H16S12251   0.973   3.219   5.105 -0.1120  0.1406 -0.9614
   9123SM  H16T12252   1.100   3.314   5.026 -1.3746  1.0553  0.5624
   9123SM  C17S12253   1.144   3.259   5.231 -0.2812  0.0760 -0.2560
   9123SM  H17S12254   1.253   3.273   5.216 -0.4673  1.1674 -0.6332
   9123SM  H17T12255   1.115   3.177   5.301 -2.9165  0.0273 -1.2991
   9123SM  C18S12256   1.088   3.378   5.294 -0.5076  0.3399 -0.3891
   9123SM  H18S12257   0.978   3.366   5.303 -0.1001 -2.6334  1.9528
   9123SM  H18T12258   1.131   3.468   5.245  1.7143  1.5041  3.2698
   9123SM  H18U12259   1.124   3.394   5.398 -1.7235 -0.6434  0.2177
   9123SM   C1F12260   1.338   3.969   4.177  0.4626 -0.6372 -0.4499
   9123SM    OF12261   1.281   4.065   4.131  0.3560  0.1904  0.2970
   9123SM   C2F12262   1.367   3.951   4.321 -0.2066 -0.0923  0.0780
   9123SM   H2F12263   1.458   4.011   4.341 -0.2790  0.3732 -0.9319
   9123SM   H2G12264   1.385   3.843   4.338  1.5144  0.1910  0.2587
   9123SM   C3F12265   1.257   4.006   4.415 -0.4156  0.4075 -1.0000
   9123SM   H3F12266   1.163   3.946   4.413  1.4693 -3.1915  2.9841
   9123SM   H3G12267   1.243   4.114   4.394 -0.0345  0.7925  0.5909
   9123SM   C4F12268   1.308   3.992   4.559  0.2810  0.2438 -0.6788
   9123SM   H4F12269   1.400   4.052   4.571 -0.0206  0.9729 -1.7924
   9123SM   H4G12270   1.346   3.888   4.567 -1.4204 -0.3257  0.5637
   9123SM   C5F12271   1.217   4.029   4.679  0.4846 -0.1208 -0.6501
   9123SM   H5F12272   1.118   3.988   4.650  1.0343 -1.7020 -0.4199
   9123SM   H5G12273   1.204   4.139   4.687  0.2168 -0.1775 -0.2567
   9123SM   C6F12274   1.264   3.972   4.806  0.2581  1.1540 -0.4562
   9123SM   H6F12275   1.373   3.986   4.823  0.5176 -0.3008 -0.7362
   9123SM   H6G12276   1.259   3.864   4.782 -0.9414  1.7437 -3.2715
   9123SM   C7F12277   1.177   4.003   4.919 -0.4313  1.1104 -0.3291
   9123SM   H7F12278   1.077   3.968   4.884 -0.9498  1.2505  0.9818
   9123SM   H7G12279   1.168   4.112   4.936 -3.8713  0.7456  0.8899
   9123SM   C8F12280   1.217   3.927   5.044 -0.1372  0.1291  0.4321
   9123SM   H8F12281   1.313   3.968   5.083  0.2818 -1.4104  1.0973
   9123SM   H8G12282   1.239   3.820   5.022  0.6913 -0.1326  2.3893
   9123SM   C9F12283   1.118   3.956   5.155 -0.6686  0.2231  0.3623
   9123SM   H9F12284   1.017   3.954   5.109  1.0037  0.3722 -3.8194
   9123SM   H9G12285   1.143   4.052   5.204  2.0071  0.7060 -1.7291
   9123SM  C10F12286   1.123   3.850   5.272 -0.4878 -0.4971 -0.0863
   9123SM  H10F12287   1.230   3.855   5.302 -0.0620 -4.9531 -0.2599
   9123SM  H10G12288   1.113   3.748   5.230  0.3574 -1.3096  1.6115
   9123SM  C11F12289   1.025   3.881   5.381  0.3923 -0.0752  0.0312
   9123SM  H11F12290   1.048   3.810   5.464  0.8705  3.0459  2.7880
   9123SM  H11G12291   0.925   3.860   5.337 -0.2840  1.5616  0.6834
   9123SM  C12F12292   1.010   4.020   5.443  0.5879 -0.0799 -0.1088
   9123SM  H12F12293   0.918   4.015   5.506  1.4614  0.0301  1.2315
   9123SM  H12G12294   0.985   4.103   5.374  0.4474  0.1937  0.2646
   9123SM  C13F12295   1.118   4.053   5.543  0.1697 -0.0680 -0.0330
   9123SM  H13F12296   1.214   4.054   5.488  0.9938  1.5293  1.3297
   9123SM  H13G12297   1.131   3.978   5.623 -1.0286 -0.7927 -0.4924
   9123SM  C14F12298   1.116   4.193   5.611  0.3028  0.2235  0.5898
   9123SM  H14F12299   1.128   4.264   5.527  0.2973 -1.7556 -1.1649
   9123SM  H14G12300   1.199   4.198   5.684  0.6228  0.9428  0.1767
   9123SM  C15F12301   0.981   4.244   5.674 -0.0435  0.0888  0.6111
   9123SM  H15F12302   0.902   4.228   5.597  0.8599  3.7879 -1.3099
   9123SM  H15G12303   0.980   4.353   5.693  1.8527  0.4633 -1.1042
   9123SM  C16F12304   0.936   4.172   5.801 -0.2986  0.1431  0.2699
   9123SM  H16F12305   0.987   4.223   5.885 -2.0785  2.2047  0.1868
   9123SM  H16G12306   0.970   4.066   5.802  1.4647  0.6546 -0.8777
   9123SM  C17F12307   0.784   4.172   5.813  0.6201 -0.2598  0.1251
   9123SM  H17F12308   0.722   4.132   5.731  1.4879  0.8511 -1.1122
   9123SM  H17G12309   0.766   4.282   5.818  1.7934 -0.1057  1.9175
   9123SM  C18F12310   0.737   4.101   5.945 -0.0191 -0.0859 -0.2562
   9123SM  H18F12311   0.638   4.140   5.978 -0.4230  0.1346 -1.6547
   9123SM  H18G12312   0.800   4.133   6.030  1.1285 -3.7757  0.4738
   9123SM  C19F12313   0.726   3.947   5.924 -0.1447  0.4295 -0.3432
   9123SM  H19F12314   0.822   3.904   5.889 -0.7830 -1.4491  0.1189
   9123SM  H19G12315   0.650   3.919   5.847  0.8838  0.0251 -1.2426
   9123SM  C20F12316   0.703   3.877   6.057 -0.5414 -0.2653  0.2545
   9123SM  H20F12317   0.606   3.905   6.104 -0.5187 -0.9173  0.7066
   9123SM  H20G12318   0.778   3.932   6.118 -1.9936  1.6965  0.3673
   9123SM  C21F12319   0.732   3.730   6.045  0.4289  0.0391 -0.2266
   9123SM  H21F12320   0.817   3.702   5.980  0.7156 -0.5204  0.3873
   9123SM  H21G12321   0.647   3.681   5.993  0.0079  0.2210  0.2806
   9123SM  C22F12322   0.765   3.661   6.181 -0.2016  0.2332  0.3431
   9123SM  H22F12323   0.843   3.715   6.239  0.6251  0.6213 -1.0779
   9123SM  H22G12324   0.809   3.564   6.149  0.7248  0.7499 -0.0015
   9123SM  C23F12325   0.640   3.632   6.268  0.1397 -0.3285  0.7313
   9123SM  H23F12326   0.615   3.719   6.332  2.2046  1.3208 -0.5792
   9123SM  H23G12327   0.652   3.537   6.324 -1.1083 -1.0922 -0.2101
   9123SM  H23H12328   0.549   3.614   6.206 -0.2131 -0.2500  1.2225
   9223SM     N12329   3.925   1.273   3.846  0.0471  0.1730  0.1035
   9223SM   C1512330   3.845   1.375   3.771 -0.2510 -0.0082 -0.2999
   9223SM  H15A12331   3.787   1.337   3.688  0.2229  1.3353 -1.2717
   9223SM  H15B12332   3.918   1.441   3.728  0.2947  0.4684  1.2807
   9223SM  H15C12333   3.772   1.421   3.837 -0.6933  0.1569 -0.9014
   9223SM   C1412334   4.000   1.204   3.740 -0.2092  0.0300  0.1421
   9223SM  H14A12335   4.046   1.110   3.767 -1.3767 -0.7355 -0.3882
   9223SM  H14B12336   4.088   1.263   3.721  1.2281 -1.0583  2.9292
   9223SM  H14C12337   3.933   1.179   3.658  0.3129  1.8917 -0.9027
   9223SM   C1312338   4.016   1.342   3.942 -0.7271 -0.0495 -0.3701
   9223SM  H13A12339   3.955   1.395   4.013  0.0651  0.7360 -0.2493
   9223SM  H13B12340   4.085   1.409   3.892 -0.0351  0.8174  1.6110
   9223SM  H13C12341   4.073   1.274   4.004 -3.2402 -0.3902  1.7259
   9223SM   C1212342   3.838   1.168   3.917 -0.0271  0.5906  0.0869
   9223SM  H12A12343   3.758   1.127   3.857  0.1884 -0.4695  0.4922
   9223SM  H12B12344   3.783   1.225   3.990  0.8301  1.8442 -0.2031
   9223SM   C1112345   3.898   1.050   3.993 -0.6717  0.2001  0.7470
   9223SM  H11A12346   3.821   1.004   4.059 -1.2378 -1.6567 -1.1112
   9223SM  H11B12347   3.978   1.094   4.056 -0.3470  3.2425 -1.5580
   9223SM     P12348   4.044   0.850   3.945 -0.1509 -0.0190 -0.1551
   9223SM   O1312349   3.995   0.720   3.896  0.1345  0.1084 -0.1518
   9223SM   O1412350   4.166   0.904   3.881  0.7113 -0.5959  0.1398
   9223SM   O1112351   4.046   0.851   4.095  0.1695  0.1077 -0.2227
   9223SM   O1212352   3.935   0.952   3.901 -0.2458 -0.0354 -0.2467
   9223SM   C1S12353   4.151   0.842   4.196 -0.1311  0.6922  0.3364
   9223SM   H1S12354   4.247   0.885   4.161 -0.7934  0.7229 -1.6096
   9223SM   H1T12355   4.171   0.735   4.214 -0.4961  0.5063 -0.3234
   9223SM    NF12356   4.204   0.886   4.445 -0.3059  0.5323 -0.1054
   9223SM   HNF12357   4.189   0.858   4.540 -0.4249  0.2442 -0.2082
   9223SM   C2S12358   4.102   0.893   4.340  1.1222  0.4260  0.6580
   9223SM   H2S12359   4.081   1.000   4.323  1.0160  0.5809  1.6720
   9223SM   C3S12360   3.965   0.828   4.378 -0.1631 -0.3039  0.3049
   9223SM   H3S12361   3.984   0.720   4.394 -1.7951 -0.8615 -1.2160
   9223SM    O312362   3.864   0.834   4.274  0.0646 -0.2952  0.7506
   9223SM   HO312363   3.918   0.855   4.197 -0.5004 -0.7960  0.2066
   9223SM   C4S12364   3.908   0.883   4.506  0.3640 -0.5859  0.4950
   9223SM   H4S12365   3.969   0.852   4.592  2.0613  1.9258  0.3010
   9223SM   C5S12366   3.803   0.965   4.532  0.2641 -0.1999 -0.3403
   9223SM   H5S12367   3.737   1.007   4.456  0.4632 -2.3703 -1.7741
   9223SM   C6S12368   3.772   1.014   4.669 -0.0412  0.2011  0.1097
   9223SM   H6S12369   3.676   0.974   4.708  0.0467  2.3440  2.7898
   9223SM   H6T12370   3.745   1.122   4.664 -2.4091 -0.3617 -1.0795
   9223SM   C7S12371   3.862   0.991   4.794 -0.1381  0.0511 -0.1022
   9223SM   H7S12372   3.966   1.026   4.773  1.2003 -2.7804  1.3062
   9223SM   H7T12373   3.868   0.881   4.805 -0.6902 -0.1103 -1.2147
   9223SM   C8S12374   3.819   1.061   4.924  0.0590 -0.2879  0.3194
   9223SM   H8S12375   3.723   1.020   4.961 -0.3125 -0.5807 -0.9137
   9223SM   H8T12376   3.823   1.167   4.892  0.4421 -0.2400  0.5172
   9223SM   C9S12377   3.922   1.038   5.040  0.3395 -0.3779 -0.1887
   9223SM   H9S12378   4.018   1.076   5.000 -0.7852  1.6568 -1.1489
   9223SM   H9T12379   3.925   0.928   5.056 -0.5511 -0.2779  0.7935
   9223SM  C10S12380   3.892   1.100   5.179  0.6206  0.5738  0.2720
   9223SM  H10S12381   3.790   1.064   5.206  0.5454 -0.2962 -1.0687
   9223SM  H10T12382   3.889   1.209   5.162  4.4010  0.5884 -1.1969
   9223SM  C11S12383   3.992   1.077   5.286  0.0073  0.2934 -0.3481
   9223SM  H11S12384   4.097   1.103   5.260  0.4989  1.1093  2.1814
   9223SM  H11T12385   4.019   0.975   5.322 -0.3257  0.5336  0.6286
   9223SM  C12S12386   3.949   1.155   5.416 -0.8186  0.5236  0.2516
   9223SM  H12S12387   3.848   1.123   5.452  0.5284 -1.9049  2.2109
   9223SM  H12T12388   3.939   1.261   5.386 -1.3102  0.6380  0.7869
   9223SM  C13S12389   4.052   1.137   5.536  0.1623  0.2860 -0.2023
   9223SM  H13S12390   4.021   1.217   5.606  1.0941 -1.2703  2.1120
   9223SM  H13T12391   4.159   1.153   5.510  0.8404  0.9446  2.6864
   9223SM  C14S12392   4.028   1.001   5.606  0.0844  0.1066  0.1383
   9223SM  H14S12393   4.047   0.920   5.534  0.0004  0.9304 -0.8388
   9223SM  H14T12394   3.918   0.997   5.624 -0.3696  0.6566 -2.1142
   9223SM  C15S12395   4.100   0.981   5.736  0.5127  0.1184  0.3977
   9223SM  H15S12396   4.210   0.983   5.718  0.3864 -1.1239 -0.6832
   9223SM  H15T12397   4.072   0.879   5.772 -3.2929  1.0616  0.5118
   9223SM  C16S12398   4.045   1.077   5.841 -1.0261 -0.3443 -0.4753
   9223SM  H16S12399   3.935   1.079   5.853 -1.3260 -2.9015 -2.0652
   9223SM  H16T12400   4.086   1.178   5.818  0.5303 -0.1513  2.6585
   9223SM  C17S12401   4.101   1.044   5.980 -0.3053  0.4428  0.2116
   9223SM  H17S12402   4.211   1.035   5.966 -0.7429 -3.2900 -2.0099
   9223SM  H17T12403   4.077   0.942   6.016 -1.9600  1.2019  1.4351
   9223SM  C18S12404   4.052   1.141   6.087 -0.2574  0.0281  0.7084
   9223SM  H18S12405   4.070   1.241   6.042 -1.7319 -0.4458 -1.0628
   9223SM  H18T12406   4.114   1.138   6.179  0.6402 -0.1283  0.1083
   9223SM  H18U12407   3.946   1.131   6.117 -0.8494 -0.0637 -1.2645
   9223SM   C1F12408   4.321   0.952   4.427  0.6773  0.8900 -1.2376
   9223SM    OF12409   4.342   1.014   4.324 -0.0122  0.0545 -0.1494
   9223SM   C2F12410   4.422   0.947   4.536  0.0123  0.0379 -0.5528
   9223SM   H2F12411   4.393   0.857   4.595  0.7469  0.7528  0.9412
   9223SM   H2G12412   4.407   1.037   4.600 -1.4590 -0.0910 -0.6772
   9223SM   C3F12413   4.567   0.929   4.487  0.2090 -0.7264 -0.2944
   9223SM   H3F12414   4.616   1.025   4.459  1.2001 -0.7367  1.2644
   9223SM   H3G12415   4.581   0.865   4.398 -0.4994 -2.2885  0.6730
   9223SM   C4F12416   4.668   0.880   4.589 -0.1232 -0.2641 -0.3454
   9223SM   H4F12417   4.770   0.906   4.552 -0.2862  0.7278 -0.1185
   9223SM   H4G12418   4.654   0.770   4.588 -1.0202 -0.2149  1.7437
   9223SM   C5F12419   4.635   0.927   4.730  0.2479 -1.1293 -0.5243
   9223SM   H5F12420   4.531   0.894   4.748  0.8900 -3.5112 -0.6988
   9223SM   H5G12421   4.667   1.032   4.740 -0.2004 -0.9587 -0.8440
   9223SM   C6F12422   4.712   0.846   4.829  0.2767  0.1516 -0.3437
   9223SM   H6F12423   4.818   0.838   4.798  1.3999  1.4380  2.7748
   9223SM   H6G12424   4.673   0.743   4.839  1.1104  0.0999  4.7499
   9223SM   C7F12425   4.688   0.897   4.976 -0.1497  0.0823  0.5751
   9223SM   H7F12426   4.594   0.856   5.018  0.4450 -1.3589  0.5471
   9223SM   H7G12427   4.681   1.008   4.978  0.7970  0.1484  1.9059
   9223SM   C8F12428   4.801   0.864   5.071  0.1127  0.4076 -0.6598
   9223SM   H8F12429   4.897   0.918   5.053  0.5928 -0.4821 -0.8289
   9223SM   H8G12430   4.835   0.759   5.061  2.8765  1.1282  0.2817
   9223SM   C9F12431   4.759   0.881   5.215 -0.0194 -0.0709 -0.6169
   9223SM   H9F12432   4.689   0.800   5.247  1.7145 -1.3793  0.0257
   9223SM   H9G12433   4.705   0.974   5.241  0.2918 -0.6252  2.3663
   9223SM  C10F12434   4.877   0.859   5.312 -0.3624  0.0574  0.7643
   9223SM  H10F12435   4.944   0.947   5.300  0.9887 -1.2887 -3.7169
   9223SM  H10G12436   4.936   0.767   5.295  0.0362  0.0675  2.0295
   9223SM  C11F12437   4.830   0.827   5.458 -0.3482 -0.0775  0.2583
   9223SM  H11F12438   4.810   0.719   5.470 -1.6787  0.3448  2.4520
   9223SM  H11G12439   4.742   0.889   5.488 -0.6341 -0.1291 -0.4590
   9223SM  C12F12440   4.950   0.841   5.553 -0.6267 -0.7422 -0.2154
   9223SM  H12F12441   4.981   0.948   5.555  0.8704 -1.1340  2.9115
   9223SM  H12G12442   5.038   0.780   5.525  1.9333  1.7087  1.8584
   9223SM  C13F12443   4.892   0.812   5.693 -0.1776  0.3958 -0.5899
   9223SM  H13F12444   4.809   0.739   5.686 -0.0985  0.0485  1.3657
   9223SM  H13G12445   4.851   0.908   5.731 -1.9033 -0.0283 -1.2946
   9223SM  C14F12446   5.002   0.743   5.775  0.4157 -0.1933  0.0328
   9223SM  H14F12447   5.100   0.790   5.757  1.6410 -2.3207  0.7467
   9223SM  H14G12448   5.009   0.648   5.718 -1.0816 -0.0281 -0.4798
   9223SM  C15F12449   4.963   0.721   5.914  0.9131  0.1780  0.5180
   9223SM  H15F12450   4.872   0.657   5.909  2.0879 -1.5608 -4.4792
   9223SM  H15G12451   4.930   0.811   5.969 -0.9986 -1.2234  1.7923
   9223SM  C16F12452   5.049   0.637   6.007  0.1126 -0.1366  0.6309
   9223SM  H16F12453   5.138   0.692   6.042  1.3192 -1.9374  0.5129
   9223SM  H16G12454   5.085   0.561   5.934 -1.1013 -1.2254  1.1111
   9223SM  C17F12455   4.979   0.573   6.127  0.4761  0.3709  0.0385
   9223SM  H17F12456   4.896   0.511   6.087  0.3227  1.3352 -1.1966
   9223SM  H17G12457   4.937   0.660   6.183 -0.2699 -0.0240  0.1147
   9223SM  C18F12458   5.080   0.490   6.210 -0.1366 -0.4609 -0.0176
   9223SM  H18F12459   5.161   0.470   6.137 -1.3814 -2.0159 -1.0373
   9223SM  H18G12460   5.043   0.389   6.239  0.8748 -0.8013  0.1216
   9223SM  C19F12461   5.133   0.569   6.332  0.0789 -0.4383 -0.8353
   9223SM  H19F12462   5.150   0.674   6.299 -0.4389 -0.2622 -0.5495
   9223SM  H19G12463   5.235   0.529   6.352 -0.5289 -2.9676 -2.3492
   9223SM  C20F12464   5.045   0.564   6.457 -0.3810  0.1276  0.0010
   9223SM  H20F12465   5.084   0.640   6.528 -0.8403 -0.8478  1.3509
   9223SM  H20G12466   5.069   0.462   6.494 -1.1579  0.6961  2.2270
   9223SM  C21F12467   4.902   0.580   6.448  0.4517  0.1787  0.6652
   9223SM  H21F12468   4.859   0.510   6.373 -1.2108  0.7259  1.0715
   9223SM  H21G12469   4.872   0.685   6.431  0.5000  0.3166  1.4004
   9223SM  C22F12470   4.830   0.557   6.582 -0.6396 -0.3666 -0.0964
   9223SM  H22F12471   4.858   0.629   6.663 -0.1586 -0.1293 -0.4684
   9223SM  H22G12472   4.861   0.456   6.615 -0.0305 -0.1620 -0.0222
   9223SM  C23F12473   4.684   0.561   6.564 -0.1778 -0.0919  0.3045
   9223SM  H23F12474   4.648   0.509   6.472  2.3689 -2.5288  0.5316
   9223SM  H23G12475   4.643   0.662   6.547 -0.6372 -0.5239 -1.3782
   9223SM  H23H12476   4.637   0.506   6.648 -0.1911 -1.9057 -0.8089
   9323SM     N12477   1.323   5.007   3.652 -0.5481  0.3635 -0.4546
   9323SM   C1512478   1.428   5.054   3.553 -0.1488  0.0508 -0.2673
   9323SM  H15A12479   1.508   4.982   3.561 -1.7946 -2.0316 -1.4650
   9323SM  H15B12480   1.466   5.152   3.577  0.6040 -0.5373  1.0803
   9323SM  H15C12481   1.390   5.047   3.452 -2.3830  1.1269  0.4398
   9323SM   C1412482   1.201   5.101   3.640  0.0372  0.4362  0.1697
   9323SM  H14A12483   1.143   5.091   3.550 -0.1819 -1.2035  0.4445
   9323SM  H14B12484   1.233   5.201   3.662  2.4442 -0.3179  0.3411
   9323SM  H14C12485   1.137   5.061   3.718  0.6014 -0.1763  0.3297
   9323SM   C1312486   1.276   4.870   3.620 -0.1359 -0.5316 -0.6115
   9323SM  H13A12487   1.359   4.803   3.610 -0.0738 -0.5329 -0.0754
   9323SM  H13B12488   1.248   4.861   3.516 -0.2873  0.4833 -0.6712
   9323SM  H13C12489   1.199   4.827   3.683  0.2456 -1.7181 -0.9318
   9323SM   C1212490   1.386   5.008   3.792  0.4464  0.0636 -0.5208
   9323SM  H12A12491   1.422   5.107   3.815 -1.0157  0.3088  0.9154
   9323SM  H12B12492   1.468   4.938   3.792 -1.6459 -2.5465 -1.0068
   9323SM   C1112493   1.292   4.970   3.915 -0.9182  0.0508 -0.1062
   9323SM  H11A12494   1.217   5.052   3.917  0.4505  1.4058 -1.3342
   9323SM  H11B12495   1.342   4.982   4.013  1.2544  2.0966 -1.3676
   9323SM     P12496   1.312   4.713   3.972  0.5061  0.0026  0.2303
   9323SM   O1312497   1.251   4.581   3.933 -0.3175  0.0214 -0.6417
   9323SM   O1412498   1.453   4.733   3.936 -0.4508  0.1706  0.4230
   9323SM   O1112499   1.285   4.738   4.121 -0.0977  0.1654  0.5583
   9323SM   O1212500   1.234   4.835   3.905 -0.3683 -0.1559  0.0214
   9323SM   C1S12501   1.156   4.756   4.175 -0.4298 -0.6259 -0.5822
   9323SM   H1S12502   1.083   4.691   4.122  0.2930 -1.7828 -0.1783
   9323SM   H1T12503   1.126   4.861   4.155  0.9985 -0.3263 -1.3394
   9323SM    NF12504   1.023   4.714   4.378 -0.7130  0.6313 -0.2398
   9323SM   HNF12505   0.973   4.799   4.393 -0.6281  0.4397  1.3779
   9323SM   C2S12506   1.159   4.735   4.331  0.7307  0.1823 -0.1138
   9323SM   H2S12507   1.223   4.650   4.360  2.0436  1.1834  0.0336
   9323SM   C3S12508   1.242   4.856   4.394 -0.1071  0.0834 -0.3387
   9323SM   H3S12509   1.182   4.945   4.365  0.2909  0.4687  0.0133
   9323SM    O312510   1.368   4.874   4.327  0.3392 -0.3444 -0.1382
   9323SM   HO312511   1.367   4.818   4.249 -1.1371  0.5040 -0.7545
   9323SM   C4S12512   1.262   4.851   4.552  0.5533 -0.1669  0.5430
   9323SM   H4S12513   1.196   4.917   4.610  1.4181 -0.7792  2.2953
   9323SM   C5S12514   1.348   4.778   4.619 -0.0933 -0.6551 -0.1309
   9323SM   H5S12515   1.409   4.709   4.557 -1.1170  0.8544 -2.9982
   9323SM   C6S12516   1.367   4.779   4.769  0.0707  0.5656  0.0445
   9323SM   H6S12517   1.475   4.788   4.793  0.3205 -0.7750 -0.5116
   9323SM   H6T12518   1.345   4.678   4.809  3.4160  0.1210  1.0889
   9323SM   C7S12519   1.285   4.881   4.858  0.8768 -0.0559 -0.4759
   9323SM   H7S12520   1.178   4.893   4.829  0.6422 -0.1061  0.3402
   9323SM   H7T12521   1.342   4.972   4.830  1.2783 -0.2247 -0.2210
   9323SM   C8S12522   1.298   4.848   5.011  0.1360 -0.6973  0.2229
   9323SM   H8S12523   1.407   4.849   5.032  0.2133 -1.9759 -0.0091
   9323SM   H8T12524   1.252   4.751   5.040 -1.8853  0.7607  2.1737
   9323SM   C9S12525   1.229   4.951   5.103  0.1073 -0.3011  0.0907
   9323SM   H9S12526   1.123   4.922   5.088  0.5353 -1.1058 -1.6273
   9323SM   H9T12527   1.245   5.052   5.058  1.6382 -0.2552  0.6633
   9323SM  C10S12528   1.269   4.963   5.240  0.1811  0.6769 -0.3650
   9323SM  H10S12529   1.368   5.014   5.245 -0.4868  2.0222 -0.3888
   9323SM  H10T12530   1.272   4.868   5.298 -3.3288 -0.2002 -1.4175
   9323SM  C11S12531   1.172   5.061   5.313 -0.3425 -0.3202  0.6960
   9323SM  H11S12532   1.067   5.042   5.281 -1.4427  2.9497  1.9433
   9323SM  H11T12533   1.197   5.167   5.287 -1.8134 -0.0983  0.0674
   9323SM  C12S12534   1.181   5.046   5.466 -0.3077 -0.4499  0.0359
   9323SM  H12S12535   1.287   5.074   5.485 -0.7708  0.9122  0.8358
   9323SM  H12T12536   1.169   4.940   5.497 -1.8242 -0.5530 -0.7806
   9323SM  C13S12537   1.096   5.145   5.532 -0.1866 -0.5163 -0.2958
   9323SM  H13S12538   0.993   5.151   5.491  0.0407 -0.2635 -0.8364
   9323SM  H13T12539   1.130   5.250   5.516 -0.5642 -0.4294 -0.5419
   9323SM  C14S12540   1.080   5.121   5.685  0.6702  0.5728 -0.5533
   9323SM  H14S12541   1.183   5.113   5.727 -0.6391 -0.0694  2.8579
   9323SM  H14T12542   1.021   5.028   5.698  1.6086 -0.0299 -0.4662
   9323SM  C15S12543   0.994   5.228   5.763  0.4067  0.3342 -0.0634
   9323SM  H15S12544   1.045   5.327   5.770  0.3739  0.2352  5.0444
   9323SM  H15T12545   0.892   5.243   5.721 -0.3979 -3.1865  0.3429
   9323SM  C16S12546   0.976   5.183   5.907  0.1149  0.4126 -0.6515
   9323SM  H16S12547   1.078   5.188   5.952 -1.1327 -0.1752  2.5685
   9323SM  H16T12548   0.927   5.084   5.922 -1.2122  1.2764  1.1459
   9323SM  C17S12549   0.894   5.274   5.993 -0.5216  0.4701 -0.2753
   9323SM  H17S12550   0.788   5.250   5.969 -1.4563  0.6341  3.1691
   9323SM  H17T12551   0.912   5.381   5.967 -0.3430  0.4869 -0.0840
   9323SM  C18S12552   0.906   5.257   6.145 -0.6940  0.4063 -0.1039
   9323SM  H18S12553   0.842   5.328   6.202  0.2386  0.6844  0.6167
   9323SM  H18T12554   1.014   5.247   6.171 -0.7916  0.7683  0.4309
   9323SM  H18U12555   0.863   5.159   6.173 -0.6398  0.9307  1.9081
   9323SM   C1F12556   0.958   4.602   4.357  0.1305  0.2370 -0.3056
   9323SM    OF12557   1.010   4.507   4.302 -0.0762  0.4902  0.1521
   9323SM   C2F12558   0.814   4.604   4.403  0.1193  0.1799 -1.4247
   9323SM   H2F12559   0.746   4.560   4.326  0.0732 -1.4482 -0.4977
   9323SM   H2G12560   0.784   4.709   4.420 -0.8706 -0.5543  2.2252
   9323SM   C3F12561   0.808   4.533   4.545  1.0437  0.1473  0.7528
   9323SM   H3F12562   0.849   4.430   4.535 -1.2433 -0.6988 -0.6589
   9323SM   H3G12563   0.697   4.532   4.554  0.8116  2.3287 -1.0655
   9323SM   C4F12564   0.869   4.612   4.660  0.2062  0.4053 -0.1573
   9323SM   H4F12565   0.849   4.722   4.658 -1.0501  0.2775  2.1107
   9323SM   H4G12566   0.980   4.610   4.660  0.1978 -1.3268  0.6282
   9323SM   C5F12567   0.834   4.554   4.803  0.1862 -0.2419 -0.2580
   9323SM   H5F12568   0.883   4.455   4.814  1.3925  0.2424 -1.1357
   9323SM   H5G12569   0.724   4.545   4.818  0.2458  0.0084  0.3765
   9323SM   C6F12570   0.895   4.639   4.922 -0.1382  0.3107  0.7417
   9323SM   H6F12571   1.004   4.622   4.935 -0.4003 -0.4712  2.1219
   9323SM   H6G12572   0.845   4.616   5.018  0.6280 -0.5890  0.9369
   9323SM   C7F12573   0.888   4.791   4.905 -0.1730 -0.0688 -0.8417
   9323SM   H7F12574   0.947   4.821   4.817  0.9441  1.2907  0.3246
   9323SM   H7G12575   0.943   4.837   4.990 -1.2422 -2.1126  1.0774
   9323SM   C8F12576   0.740   4.849   4.907  0.4159  0.0506  0.4613
   9323SM   H8F12577   0.689   4.795   4.825  0.2266  1.5715 -0.4542
   9323SM   H8G12578   0.742   4.955   4.872 -0.3913 -1.3343 -4.6122
   9323SM   C9F12579   0.653   4.826   5.035 -0.0514 -0.3915  0.2507
   9323SM   H9F12580   0.636   4.716   5.033 -0.5023 -0.3169 -0.2193
   9323SM   H9G12581   0.560   4.883   5.017  1.0731  1.4089 -0.0999
   9323SM  C10F12582   0.721   4.875   5.164 -0.6261 -0.3777  0.1850
   9323SM  H10F12583   0.786   4.962   5.141 -0.1299 -0.6653  0.4919
   9323SM  H10G12584   0.784   4.789   5.196  0.0800  0.0358 -0.0978
   9323SM  C11F12585   0.610   4.922   5.260  0.5021 -0.4168 -0.2235
   9323SM  H11F12586   0.553   4.834   5.297 -1.9762  1.2132  0.1055
   9323SM  H11G12587   0.550   4.998   5.206  1.5695  0.4963 -0.1710
   9323SM  C12F12588   0.675   4.988   5.382  0.2155 -0.0189 -0.0235
   9323SM  H12F12589   0.723   5.083   5.350 -1.6649  0.6254 -1.1202
   9323SM  H12G12590   0.749   4.915   5.419 -0.0889 -0.0467  0.5401
   9323SM  C13F12591   0.564   5.022   5.488 -0.3347 -0.7335 -0.6303
   9323SM  H13F12592   0.489   4.942   5.501 -0.3181 -0.7126 -0.4019
   9323SM  H13G12593   0.512   5.098   5.425  0.0415 -0.1731 -0.2714
   9323SM  C14F12594   0.619   5.081   5.620  0.2318  0.3559 -0.0663
   9323SM  H14F12595   0.694   5.159   5.591 -0.6413  1.4724  0.6216
   9323SM  H14G12596   0.675   4.996   5.665 -0.1953  0.7917  1.3330
   9323SM  C15F12597   0.512   5.138   5.717  0.5139 -0.1158 -0.8411
   9323SM  H15F12598   0.467   5.225   5.664  1.5223  0.1595 -1.2790
   9323SM  H15G12599   0.558   5.176   5.811  0.8323  0.5280 -1.2502
   9323SM  C16F12600   0.395   5.045   5.763  0.8804 -0.0497 -0.1371
   9323SM  H16F12601   0.433   4.951   5.809  0.6217 -1.3578 -2.4249
   9323SM  H16G12602   0.333   5.031   5.671  0.1379  0.2347  0.3109
   9323SM  C17F12603   0.305   5.120   5.867 -0.2092  0.3254 -0.1401
   9323SM  H17F12604   0.271   5.214   5.818 -0.9079  0.3385  0.3523
   9323SM  H17G12605   0.363   5.143   5.958  0.1069  3.3512 -0.9851
   9323SM  C18F12606   0.177   5.037   5.890  0.0802 -0.4457  0.5181
   9323SM  H18F12607   0.212   4.934   5.912 -0.2317 -1.0347 -1.5844
   9323SM  H18G12608   0.116   5.031   5.798 -0.3897 -0.5157  0.8350
   9323SM  C19F12609   0.085   5.091   6.001 -0.0630 -0.6507 -0.0771
   9323SM  H19F12610   0.114   5.182   6.056 -1.0735  0.2611 -1.0084
   9323SM  H19G12611   0.106   5.016   6.080  0.5366 -2.5791 -1.9370
   9323SM  C20F12612  -0.056   5.106   5.958  0.1716  0.1232 -0.3213
   9323SM  H20F12613  -0.089   5.010   5.912 -0.9262  1.0829 -1.6253
   9323SM  H20G12614  -0.053   5.185   5.880  3.2957 -0.4260 -0.9220
   9323SM  C21F12615  -0.157   5.118   6.079  0.1973 -0.2165  0.7644
   9323SM  H21F12616  -0.121   5.199   6.147  0.9693 -0.5622  0.7807
   9323SM  H21G12617  -0.171   5.020   6.129  1.0684 -2.5061 -3.0571
   9323SM  C22F12618  -0.294   5.163   6.035  0.1772  0.4996  0.3289
   9323SM  H22F12619  -0.331   5.099   5.952 -3.1919  1.1740  1.1408
   9323SM  H22G12620  -0.290   5.260   5.979  1.8775  0.9560  1.1961
   9323SM  C23F12621  -0.400   5.166   6.133 -0.2673 -0.0528 -0.9763
   9323SM  H23F12622  -0.495   5.186   6.078  0.7479  0.2616 -2.6931
   9323SM  H23G12623  -0.378   5.241   6.212 -1.7852 -1.2132  0.6159
   9323SM  H23H12624  -0.411   5.067   6.182  1.0028  0.2196 -0.0864
   9423SM     N12625   4.478   6.156   4.089  0.1158 -0.2054  0.2326
   9423SM   C1512626   4.422   6.223   4.214 -0.0095 -0.2392  0.1979
   9423SM  H15A12627   4.485   6.302   4.252 -0.8711 -0.1867  1.5831
   9423SM  H15B12628   4.410   6.160   4.301  0.3948  0.9651  1.1592
   9423SM  H15C12629   4.329   6.272   4.190 -0.7931 -1.8419 -0.1395
   9423SM   C1412630   4.396   6.036   4.060 -0.0364 -0.4023 -0.1508
   9423SM  H14A12631   4.399   6.002   3.958 -3.6132  0.2799 -0.6009
   9423SM  H14B12632   4.292   6.063   4.071  0.4569  1.8717 -0.5832
   9423SM  H14C12633   4.417   5.949   4.121 -1.4076 -1.6778 -1.4515
   9423SM   C1312634   4.467   6.253   3.973 -0.3395 -0.0118  0.0470
   9423SM  H13A12635   4.534   6.336   3.994  2.2931 -2.0235  0.1040
   9423SM  H13B12636   4.368   6.289   3.952 -0.3803 -0.2033 -0.0825
   9423SM  H13C12637   4.494   6.204   3.881 -3.9826  0.6357 -1.5381
   9423SM   C1212638   4.624   6.117   4.116  0.3340 -0.3813  0.8001
   9423SM  H12A12639   4.611   6.062   4.208 -0.2700 -1.1275  0.2804
   9423SM  H12B12640   4.688   6.198   4.148  0.2419 -0.0472  0.1427
   9423SM   C1112641   4.701   6.030   4.020 -0.0395 -0.3244  0.4187
   9423SM  H11A12642   4.641   5.937   4.009 -0.6803  0.1983 -0.6461
   9423SM  H11B12643   4.804   6.005   4.054  0.0322  0.2439  0.6222
   9423SM     P12644   4.828   6.183   3.849 -0.0792  0.1417  0.0326
   9423SM   O1312645   4.939   6.112   3.783 -0.6060  0.1097 -0.2418
   9423SM   O1412646   4.775   6.294   3.772 -0.3687 -0.8245  0.6309
   9423SM   O1112647   4.873   6.232   3.990 -0.4846 -0.1089  0.1036
   9423SM   O1212648   4.712   6.084   3.893  0.7167 -0.6278  0.2937
   9423SM   C1S12649   4.828   6.355   4.044  0.5295  0.0489  0.1721
   9423SM   H1S12650   4.720   6.352   4.067  0.4124 -1.7029 -0.4652
   9423SM   H1T12651   4.842   6.449   3.987 -2.7383  0.7965  0.4315
   9423SM    NF12652   4.851   6.494   4.254  0.0486 -0.0428 -0.0471
   9423SM   HNF12653   4.896   6.583   4.258  1.1811 -0.5003 -1.6932
   9423SM   C2S12654   4.901   6.384   4.177 -1.1217 -0.3148 -0.6114
   9423SM   H2S12655   4.905   6.290   4.235 -1.0814  1.1160  1.8147
   9423SM   C3S12656   5.059   6.409   4.144  0.5872  0.6364  0.0858
   9423SM   H3S12657   5.057   6.501   4.081  0.6116  0.9684  0.5664
   9423SM    O312658   5.129   6.316   4.068 -0.0835 -0.2406 -0.0145
   9423SM   HO312659   5.073   6.239   4.056  1.3102 -1.0241 -2.1297
   9423SM   C4S12660   5.131   6.447   4.275  0.9261  0.2666  0.1889
   9423SM   H4S12661   5.134   6.556   4.290 -1.8610  0.3919  0.3678
   9423SM   C5S12662   5.165   6.367   4.374  0.0246  0.9723  0.3914
   9423SM   H5S12663   5.141   6.260   4.368 -2.1418  1.3648  1.1339
   9423SM   C6S12664   5.221   6.422   4.508  0.0203  0.4347  0.2318
   9423SM   H6S12665   5.277   6.517   4.490  0.6059 -0.1236 -1.0705
   9423SM   H6T12666   5.288   6.355   4.565  0.5077  2.1372  1.7548
   9423SM   C7S12667   5.107   6.457   4.614 -0.6222 -0.0226 -0.1887
   9423SM   H7S12668   5.053   6.362   4.634 -0.1846 -0.0870  0.7616
   9423SM   H7T12669   5.045   6.530   4.558  0.0118  1.0660  0.5085
   9423SM   C8S12670   5.169   6.530   4.736 -0.2208  0.4919 -0.1835
   9423SM   H8S12671   5.231   6.607   4.686 -1.1455  1.0684 -0.4555
   9423SM   H8T12672   5.230   6.457   4.795 -0.6541 -0.8995 -1.4022
   9423SM   C9S12673   5.067   6.591   4.836 -0.3701 -0.0304 -0.4927
   9423SM   H9S12674   4.994   6.518   4.877 -0.5069 -0.3696 -1.3247
   9423SM   H9T12675   5.003   6.660   4.776 -2.6851 -1.1763  0.5012
   9423SM  C10S12676   5.147   6.665   4.945 -1.0946 -0.5900  0.9913
   9423SM  H10S12677   5.078   6.745   4.980 -1.9723 -2.3686  3.7013
   9423SM  H10T12678   5.225   6.725   4.894 -1.3867 -0.4834  0.6648
   9423SM  C11S12679   5.197   6.576   5.054 -0.1126 -0.2721 -0.4918
   9423SM  H11S12680   5.286   6.520   5.017  0.3198 -0.7516  1.1780
   9423SM  H11T12681   5.120   6.504   5.089 -0.9428  1.0808  0.5636
   9423SM  C12S12682   5.231   6.664   5.171  0.1673  0.3905 -0.3574
   9423SM  H12S12683   5.140   6.689   5.228 -0.8121 -2.4100 -0.5121
   9423SM  H12T12684   5.270   6.763   5.139 -1.4589 -0.0289 -4.2185
   9423SM  C13S12685   5.324   6.581   5.264  0.2925 -0.1494  0.3467
   9423SM  H13S12686   5.420   6.573   5.210  0.1593  1.3094 -0.1491
   9423SM  H13T12687   5.277   6.480   5.270  1.6747 -0.8033  0.4634
   9423SM  C14S12688   5.340   6.627   5.403  0.0558 -0.1106 -0.2632
   9423SM  H14S12689   5.310   6.734   5.407 -2.5251 -0.7261 -1.2454
   9423SM  H14T12690   5.450   6.622   5.419  0.4514 -2.1245 -2.9024
   9423SM  C15S12691   5.266   6.549   5.512 -0.0091  0.4191 -0.0212
   9423SM  H15S12692   5.269   6.442   5.485 -1.1667  0.4651 -0.3885
   9423SM  H15T12693   5.162   6.585   5.494  0.3137  0.4222 -2.1787
   9423SM  C16S12694   5.319   6.569   5.657 -0.5471  0.6333  0.1125
   9423SM  H16S12695   5.290   6.673   5.684  2.2367  1.0082  2.0869
   9423SM  H16T12696   5.426   6.540   5.662 -0.9868 -1.1300  0.1250
   9423SM  C17S12697   5.251   6.471   5.754 -0.2601 -0.6615 -0.0815
   9423SM  H17S12698   5.300   6.483   5.853  1.4816 -1.0418 -0.8663
   9423SM  H17T12699   5.253   6.366   5.716 -0.7329  0.1889 -2.5930
   9423SM  C18S12700   5.102   6.501   5.766  0.0074 -0.8869 -0.4137
   9423SM  H18S12701   5.081   6.602   5.806 -2.8449 -0.6121 -2.2818
   9423SM  H18T12702   5.037   6.431   5.821 -2.2798  0.3044 -1.4684
   9423SM  H18U12703   5.063   6.502   5.662 -0.1687 -1.8119 -0.3651
   9423SM   C1F12704   4.734   6.474   4.318  0.2631 -0.0299 -0.4661
   9423SM    OF12705   4.666   6.376   4.298  0.6593 -0.4596  0.1567
   9423SM   C2F12706   4.695   6.570   4.426  0.2187 -0.4048  0.8509
   9423SM   H2F12707   4.654   6.659   4.372  1.1260 -0.0823  0.6853
   9423SM   H2G12708   4.791   6.601   4.471  1.2824 -0.8024 -1.0476
   9423SM   C3F12709   4.591   6.499   4.512  0.6567 -0.2128 -0.6157
   9423SM   H3F12710   4.625   6.402   4.553  1.5141 -0.3159 -1.5291
   9423SM   H3G12711   4.497   6.468   4.461  0.3590 -1.8687  0.8738
   9423SM   C4F12712   4.558   6.580   4.637  0.5120 -0.7186  0.4781
   9423SM   H4F12713   4.479   6.524   4.691  0.9930 -1.2208  0.6613
   9423SM   H4G12714   4.515   6.682   4.620  1.9398  0.0172  1.1307
   9423SM   C5F12715   4.680   6.601   4.718 -0.8894 -0.1929 -0.1836
   9423SM   H5F12716   4.749   6.673   4.669 -2.5183  0.9792 -0.8570
   9423SM   H5G12717   4.733   6.505   4.735 -0.3015 -0.1200 -1.5186
   9423SM   C6F12718   4.660   6.649   4.862 -0.4981  0.0001  0.2157
   9423SM   H6F12719   4.606   6.745   4.855  0.3159  0.3830 -1.0224
   9423SM   H6G12720   4.755   6.675   4.912 -0.8951  0.4527  0.7431
   9423SM   C7F12721   4.580   6.547   4.944  0.8774  0.3227 -0.2003
   9423SM   H7F12722   4.604   6.439   4.936 -2.7485 -0.9691  3.2968
   9423SM   H7G12723   4.471   6.549   4.927  0.7148 -2.3643  0.1625
   9423SM   C8F12724   4.597   6.582   5.101 -0.5124 -0.1899  1.2199
   9423SM   H8F12725   4.507   6.568   5.165 -0.7010  0.7939  1.1874
   9423SM   H8G12726   4.634   6.685   5.116  4.0575 -1.8556  3.1065
   9423SM   C9F12727   4.706   6.492   5.157  0.2384  0.0497 -0.1794
   9423SM   H9F12728   4.791   6.500   5.086  0.7749  0.0930  0.4623
   9423SM   H9G12729   4.671   6.386   5.150  0.5213  0.0136 -1.2657
   9423SM  C10F12730   4.747   6.529   5.300 -0.0937  0.2833 -0.0169
   9423SM  H10F12731   4.768   6.637   5.308 -0.2072  0.1627  2.7051
   9423SM  H10G12732   4.837   6.470   5.329  0.8024  0.9557 -1.3098
   9423SM  C11F12733   4.645   6.487   5.410 -0.2227  0.2021  0.0931
   9423SM  H11F12734   4.627   6.379   5.391  0.5842  0.1439 -0.3949
   9423SM  H11G12735   4.546   6.536   5.401 -0.3981 -0.4240 -2.0790
   9423SM  C12F12736   4.697   6.505   5.552  0.2699  0.7354 -0.1682
   9423SM  H12F12737   4.699   6.615   5.562  0.4295  0.8026 -0.8332
   9423SM  H12G12738   4.797   6.457   5.562  1.1336  2.0215 -1.9917
   9423SM  C13F12739   4.603   6.448   5.662 -1.0239 -0.1902  0.1641
   9423SM  H13F12740   4.577   6.345   5.630 -2.3532  0.6366 -1.6116
   9423SM  H13G12741   4.530   6.531   5.662  1.3291  2.0280 -0.3520
   9423SM  C14F12742   4.682   6.431   5.801  0.9196 -0.0151 -0.2052
   9423SM  H14F12743   4.715   6.529   5.839 -2.0934  0.7216  0.8137
   9423SM  H14G12744   4.764   6.357   5.796  2.0624  1.2376 -0.4455
   9423SM  C15F12745   4.583   6.381   5.914  0.3204  0.4559 -0.3490
   9423SM  H15F12746   4.543   6.282   5.883 -0.6640  0.6284  0.3226
   9423SM  H15G12747   4.494   6.447   5.904  0.2012  0.1930 -1.1772
   9423SM  C16F12748   4.642   6.389   6.058  0.4442 -0.1472 -0.1611
   9423SM  H16F12749   4.650   6.497   6.083 -0.4692 -0.1119  0.0264
   9423SM  H16G12750   4.738   6.335   6.067 -0.8759 -2.3593  1.6485
   9423SM  C17F12751   4.554   6.334   6.169  0.4551 -0.0855 -0.4335
   9423SM  H17F12752   4.556   6.223   6.164 -1.0807 -0.1728  0.2824
   9423SM  H17G12753   4.448   6.368   6.170  0.1068 -1.0911  1.0582
   9423SM  C18F12754   4.607   6.367   6.308 -0.5608 -1.1398 -0.2346
   9423SM  H18F12755   4.570   6.471   6.322 -0.0917 -0.6787 -2.0647
   9423SM  H18G12756   4.718   6.373   6.300 -0.1731 -0.3761  3.7035
   9423SM  C19F12757   4.558   6.276   6.420  0.0020  0.6094 -0.4966
   9423SM  H19F12758   4.614   6.288   6.515 -1.4710 -0.0453  0.4877
   9423SM  H19G12759   4.596   6.183   6.372  1.7271  0.4232  1.0813
   9423SM  C20F12760   4.403   6.268   6.443 -0.3065  0.1863  0.1372
   9423SM  H20F12761   4.342   6.276   6.351 -1.5514  4.2203  1.1246
   9423SM  H20G12762   4.390   6.363   6.499  1.4375  2.0540 -2.3717
   9423SM  C21F12763   4.354   6.144   6.528 -0.4122 -1.1500 -0.3497
   9423SM  H21F12764   4.252   6.157   6.569  0.4191 -0.6559  1.7193
   9423SM  H21G12765   4.424   6.139   6.615 -0.0935  2.8027 -0.2055
   9423SM  C22F12766   4.372   6.012   6.452 -0.2301  0.8261 -0.5399
   9423SM  H22F12767   4.478   5.976   6.457 -0.6439 -0.5977 -1.3156
   9423SM  H22G12768   4.349   6.043   6.348 -0.8513  1.9787 -0.0656
   9423SM  C23F12769   4.278   5.906   6.496 -0.1926  0.5500  0.4294
   9423SM  H23F12770   4.173   5.941   6.505  0.0116  0.9684  1.3037
   9423SM  H23G12771   4.310   5.855   6.588 -1.2840 -1.2380 -0.1285
   9423SM  H23H12772   4.276   5.816   6.430  1.1383  0.6103  0.2806
   9523SM     N12773   2.345   3.557   3.823 -0.1108 -0.1570 -0.3665
   9523SM   C1512774   2.364   3.676   3.915  0.3389 -0.2245  0.0332
   9523SM  H15A12775   2.301   3.674   4.003  0.2993  1.5819  0.0664
   9523SM  H15B12776   2.339   3.770   3.869  1.4086  0.8402  1.5264
   9523SM  H15C12777   2.464   3.691   3.952  0.3560 -0.8063  0.2306
   9523SM   C1412778   2.459   3.547   3.734  0.8884  0.0789  0.2923
   9523SM  H14A12779   2.433   3.472   3.661  0.5803 -1.0149  1.4735
   9523SM  H14B12780   2.555   3.524   3.779  0.0030  0.6739  2.6229
   9523SM  H14C12781   2.482   3.643   3.690 -1.3580  0.8454  0.6549
   9523SM   C1312782   2.323   3.437   3.913  0.5169 -0.0863 -0.0111
   9523SM  H13A12783   2.224   3.433   3.957 -0.3671 -2.2693 -2.0208
   9523SM  H13B12784   2.392   3.417   3.994  0.8335 -0.1106 -0.2834
   9523SM  H13C12785   2.337   3.349   3.852 -0.8367  0.1710 -0.7298
   9523SM   C1212786   2.215   3.575   3.736  0.1248 -0.1583 -0.3132
   9523SM  H12A12787   2.224   3.665   3.677  2.1726  0.6857  1.1869
   9523SM  H12B12788   2.134   3.595   3.804  1.8936  4.6795  0.7926
   9523SM   C1112789   2.167   3.463   3.638  0.0301 -0.5630  0.7703
   9523SM  H11A12790   2.255   3.442   3.573 -1.0020 -1.5501 -0.3736
   9523SM  H11B12791   2.093   3.507   3.568  0.5797 -0.0914  0.4872
   9523SM     P12792   1.964   3.308   3.682  0.3966  0.2541 -0.2490
   9523SM   O1312793   1.892   3.368   3.794 -0.1166 -0.3059  0.4165
   9523SM   O1412794   1.919   3.342   3.546 -0.2748  0.5234  0.4482
   9523SM   O1112795   1.960   3.148   3.694 -0.0679 -0.5263  0.3587
   9523SM   O1212796   2.116   3.342   3.695  0.2897  0.2136 -0.5978
   9523SM   C1S12797   2.024   3.080   3.801 -0.0241  0.1226  0.3467
   9523SM   H1S12798   2.119   3.132   3.827  0.6969  0.0366 -1.9377
   9523SM   H1T12799   2.052   2.983   3.757 -1.5644  0.2599 -1.0020
   9523SM    NF12800   2.033   3.030   4.050  0.5593  0.0676  0.3426
   9523SM   HNF12801   2.052   2.936   4.076  3.0436  0.5729  0.5497
   9523SM   C2S12802   1.944   3.059   3.930  0.5682  0.1177 -0.7494
   9523SM   H2S12803   1.885   3.152   3.944 -0.4241 -0.5794 -0.1705
   9523SM   C3S12804   1.840   2.951   3.901  0.4769 -0.4273  0.5114
   9523SM   H3S12805   1.889   2.851   3.898 -0.3080 -0.8022  0.0850
   9523SM    O312806   1.782   2.961   3.770  0.1348  0.2105 -0.0235
   9523SM   HO312807   1.834   3.030   3.729 -0.0626 -0.2363 -1.0497
   9523SM   C4S12808   1.740   2.949   4.016  0.1588  0.1785 -0.8468
   9523SM   H4S12809   1.790   2.905   4.104  1.7461  3.7764  0.2264
   9523SM   C5S12810   1.629   3.021   4.031 -0.0568  0.2605 -0.1558
   9523SM   H5S12811   1.608   3.084   3.943  2.6032  0.4200 -0.7662
   9523SM   C6S12812   1.546   3.037   4.157 -0.6735  0.8677  0.2209
   9523SM   H6S12813   1.454   2.975   4.146 -1.8182  2.6021 -0.3810
   9523SM   H6T12814   1.506   3.141   4.157  1.2999  1.6771 -0.1210
   9523SM   C7S12815   1.611   2.993   4.290 -0.6733  0.1036 -0.0418
   9523SM   H7S12816   1.633   2.885   4.274 -2.7370 -0.3919  0.1844
   9523SM   H7T12817   1.531   2.994   4.368  1.1321 -0.9690  1.9475
   9523SM   C8S12818   1.732   3.071   4.348  0.6048 -0.0676  1.1810
   9523SM   H8S12819   1.698   3.166   4.394 -0.6888  0.5400 -0.8884
   9523SM   H8T12820   1.785   3.096   4.253  0.3823 -1.5289  0.6406
   9523SM   C9S12821   1.819   2.992   4.447 -0.5348  0.8619 -0.7589
   9523SM   H9S12822   1.921   3.035   4.461  0.6380 -2.4296  2.3697
   9523SM   H9T12823   1.831   2.891   4.401 -2.5081  0.2654 -0.0434
   9523SM  C10S12824   1.761   2.956   4.583 -0.0739 -0.3558  0.0090
   9523SM  H10S12825   1.815   2.871   4.630 -0.4269  0.3893  1.8591
   9523SM  H10T12826   1.653   2.929   4.582 -0.0298 -0.5599  0.5430
   9523SM  C11S12827   1.780   3.064   4.689  0.5663 -0.3103  0.0567
   9523SM  H11S12828   1.728   3.156   4.655  0.2243 -0.5977 -0.1996
   9523SM  H11T12829   1.889   3.086   4.690  0.6036 -0.2833 -1.6458
   9523SM  C12S12830   1.725   3.025   4.829  0.5410 -0.4241 -0.3380
   9523SM  H12S12831   1.725   2.915   4.843 -3.2079 -0.6451 -1.1258
   9523SM  H12T12832   1.618   3.049   4.812  0.4955  1.0739  1.6376
   9523SM  C13S12833   1.806   3.100   4.939 -0.3859  0.1503 -0.5041
   9523SM  H13S12834   1.787   3.209   4.925 -0.5777  0.3267  0.9928
   9523SM  H13T12835   1.915   3.081   4.948 -0.5782 -0.8759 -0.2511
   9523SM  C14S12836   1.767   3.070   5.090 -0.0072  0.1787 -0.3663
   9523SM  H14S12837   1.799   2.967   5.115  0.6828  0.7029  1.0002
   9523SM  H14T12838   1.656   3.066   5.087 -0.1730  3.2154 -1.5362
   9523SM  C15S12839   1.841   3.166   5.184 -0.0752  0.1828  0.0940
   9523SM  H15S12840   1.826   3.269   5.145 -1.0113 -0.6545 -1.8969
   9523SM  H15T12841   1.950   3.149   5.174  0.0621  1.1217 -0.1073
   9523SM  C16S12842   1.797   3.161   5.330 -0.7057  0.0020 -0.2528
   9523SM  H16S12843   1.820   3.061   5.374 -1.3709 -0.4014 -0.8119
   9523SM  H16T12844   1.690   3.176   5.357 -0.8202 -0.1674 -0.5994
   9523SM  C17S12845   1.885   3.256   5.418 -0.3523 -0.3212 -0.0208
   9523SM  H17S12846   1.900   3.356   5.373  0.0144  0.4377  1.7117
   9523SM  H17T12847   1.984   3.207   5.436  0.2827  0.6323 -0.8280
   9523SM  C18S12848   1.828   3.286   5.555 -0.3691 -0.2398  0.1956
   9523SM  H18S12849   1.869   3.375   5.606 -0.1350  0.0289 -0.4557
   9523SM  H18T12850   1.830   3.197   5.622 -3.3322  1.6309  3.0230
   9523SM  H18U12851   1.726   3.321   5.529  0.4900  1.2363 -1.3748
   9523SM   C1F12852   2.110   3.123   4.103  0.6225  0.0186 -0.2209
   9523SM    OF12853   2.100   3.240   4.067  0.4454  0.2288 -0.5666
   9523SM   C2F12854   2.195   3.074   4.213 -0.3784 -0.0862  0.1176
   9523SM   H2F12855   2.280   3.011   4.177  0.2148 -0.2103  1.6635
   9523SM   H2G12856   2.138   3.012   4.286  2.1081  1.8489  4.0871
   9523SM   C3F12857   2.256   3.199   4.291  0.0762 -0.4879  0.2381
   9523SM   H3F12858   2.181   3.256   4.350  1.6742  1.7015  0.2730
   9523SM   H3G12859   2.307   3.256   4.211  0.7615 -1.4913 -0.0560
   9523SM   C4F12860   2.371   3.157   4.379 -0.8509  0.3978 -0.0471
   9523SM   H4F12861   2.440   3.244   4.388  1.2506 -1.0716 -1.0554
   9523SM   H4G12862   2.433   3.091   4.314 -1.4667 -1.2120  0.9308
   9523SM   C5F12863   2.337   3.089   4.510 -1.0363 -0.4282 -0.0739
   9523SM   H5F12864   2.427   3.039   4.552 -1.2688 -1.3380 -0.6260
   9523SM   H5G12865   2.258   3.017   4.481 -0.8592 -0.7099  0.1306
   9523SM   C6F12866   2.291   3.180   4.631  0.0418  0.5105  0.2065
   9523SM   H6F12867   2.197   3.221   4.589 -0.5943 -0.8729  0.2197
   9523SM   H6G12868   2.356   3.268   4.650 -0.3012  0.2959  2.6470
   9523SM   C7F12869   2.259   3.090   4.749  0.6191 -0.3855 -0.4394
   9523SM   H7F12870   2.248   2.982   4.729 -2.3365 -0.2156 -0.1098
   9523SM   H7G12871   2.169   3.126   4.803  0.5805 -1.6313  0.3725
   9523SM   C8F12872   2.366   3.104   4.848  0.3085 -0.0738 -0.0092
   9523SM   H8F12873   2.460   3.059   4.808  0.9256  0.4881  0.7637
   9523SM   H8G12874   2.330   3.035   4.927 -0.8090 -1.8293 -1.9623
   9523SM   C9F12875   2.390   3.244   4.917  0.2337  0.6310  0.5291
   9523SM   H9F12876   2.287   3.284   4.931 -0.0970  0.5395 -1.3412
   9523SM   H9G12877   2.441   3.302   4.837 -0.2726 -0.0668 -0.3158
   9523SM  C10F12878   2.475   3.242   5.049  0.2458  0.0558  0.4087
   9523SM  H10F12879   2.569   3.194   5.015 -0.8597 -3.0565  1.3945
   9523SM  H10G12880   2.429   3.181   5.129 -1.1374 -0.8235 -0.9832
   9523SM  C11F12881   2.511   3.382   5.111  0.5582  0.5595  0.5703
   9523SM  H11F12882   2.535   3.461   5.037 -0.7684 -1.4127 -2.1600
   9523SM  H11G12883   2.600   3.360   5.173  0.6658 -1.7195 -0.3102
   9523SM  C12F12884   2.403   3.444   5.201  0.1167 -0.1390 -0.3850
   9523SM  H12F12885   2.382   3.376   5.286  2.9098 -0.2889  0.2643
   9523SM  H12G12886   2.313   3.455   5.136  0.1436  2.6523 -0.0833
   9523SM  C13F12887   2.439   3.580   5.268  0.1778  0.2247  0.4317
   9523SM  H13F12888   2.488   3.648   5.195  1.8138 -1.2389  0.0969
   9523SM  H13G12889   2.511   3.561   5.350  0.2019  5.7144  2.0464
   9523SM  C14F12890   2.315   3.654   5.313 -0.7106 -0.3276 -0.2175
   9523SM  H14F12891   2.244   3.668   5.229  0.3643 -0.5533 -1.1955
   9523SM  H14G12892   2.356   3.755   5.332 -3.7654  0.9649 -0.0685
   9523SM  C15F12893   2.245   3.605   5.441 -0.6460 -0.8896  0.0670
   9523SM  H15F12894   2.320   3.580   5.519 -0.2737  0.6777  0.2463
   9523SM  H15G12895   2.202   3.507   5.409  0.6683 -0.8262 -2.0964
   9523SM  C16F12896   2.138   3.694   5.499 -0.1763  0.2485  0.4506
   9523SM  H16F12897   2.060   3.702   5.421 -0.4182 -1.4924  0.4882
   9523SM  H16G12898   2.178   3.797   5.515 -0.7805  0.5758 -0.1009
   9523SM  C17F12899   2.080   3.626   5.622 -1.0918 -0.0557  0.4343
   9523SM  H17F12900   2.139   3.652   5.712 -0.1043 -2.3503  0.5384
   9523SM  H17G12901   2.080   3.515   5.610 -0.8422  0.0873 -1.0832
   9523SM  C18F12902   1.929   3.658   5.647  0.1758  0.0487 -0.3342
   9523SM  H18F12903   1.894   3.580   5.718  1.6711  0.3350  0.7716
   9523SM  H18G12904   1.876   3.667   5.550 -0.7444  2.1563  0.3185
   9523SM  C19F12905   1.908   3.793   5.714 -0.3298 -0.3290  0.0044
   9523SM  H19F12906   1.807   3.822   5.677  0.2967 -0.1514 -1.6265
   9523SM  H19G12907   1.981   3.870   5.680 -0.8879  0.4411  0.5038
   9523SM  C20F12908   1.917   3.781   5.865  0.0869 -0.7288 -0.4644
   9523SM  H20F12909   2.016   3.745   5.899 -0.0430  0.2152  1.0184
   9523SM  H20G12910   1.834   3.715   5.898  0.1487  0.3175  1.9699
   9523SM  C21F12911   1.898   3.919   5.925 -0.1177  0.3793 -0.7125
   9523SM  H21F12912   1.819   3.980   5.875  0.6573  3.0476  1.1315
   9523SM  H21G12913   1.996   3.970   5.921  0.7739 -0.9918  1.5379
   9523SM  C22F12914   1.873   3.906   6.080  0.4111  0.2070 -0.7866
   9523SM  H22F12915   1.779   3.860   6.118  0.1291  1.3533 -0.0614
   9523SM  H22G12916   1.876   4.013   6.110  1.5221 -0.2078  0.6908
   9523SM  C23F12917   1.978   3.824   6.161 -0.0605  0.6823  0.2417
   9523SM  H23F12918   2.080   3.869   6.154  1.2084 -1.7444  1.8822
   9523SM  H23G12919   1.981   3.725   6.111  0.6660  1.6362 -1.7490
   9523SM  H23H12920   1.944   3.818   6.266 -2.2947 -1.8145 -0.5134
   9623SM     N12921   3.356   0.834   4.398  0.0871  0.0229  0.1605
   9623SM   C1512922   3.389   0.904   4.526  0.3942  0.1238  0.1085
   9623SM  H15A12923   3.420   1.007   4.516  2.5707 -0.2800  1.8967
   9623SM  H15B12924   3.476   0.858   4.570  1.6128  2.3464  0.1247
   9623SM  H15C12925   3.318   0.890   4.606  0.8135 -2.3774  0.1446
   9623SM   C1412926   3.301   0.701   4.434  0.4530 -0.1479 -0.2690
   9623SM  H14A12927   3.370   0.647   4.496  0.8589 -0.2469 -0.8012
   9623SM  H14B12928   3.277   0.643   4.346 -0.2494 -1.0268  0.4860
   9623SM  H14C12929   3.215   0.712   4.499  0.7791 -1.0227  0.3246
   9623SM   C1312930   3.242   0.920   4.338 -0.0136  0.5145  0.1100
   9623SM  H13A12931   3.171   0.945   4.416 -0.2520 -0.2787  0.1527
   9623SM  H13B12932   3.181   0.880   4.258  1.1182  0.3741 -0.7113
   9623SM  H13C12933   3.285   1.013   4.304  2.8307 -0.8716 -0.4251
   9623SM   C1212934   3.472   0.815   4.310 -0.0601  0.1844  0.0057
   9623SM  H12A12935   3.440   0.751   4.230  1.1096 -0.4035 -0.0078
   9623SM  H12B12936   3.554   0.769   4.363  0.9854  1.1086 -0.7430
   9623SM   C1112937   3.524   0.950   4.249 -0.2994 -0.5520  0.1790
   9623SM  H11A12938   3.612   0.923   4.186 -0.8933  0.4244 -1.1239
   9623SM  H11B12939   3.549   1.015   4.336  0.4684  0.2990 -0.6449
   9623SM     P12940   3.475   1.131   4.064  0.1925  0.0641 -0.3570
   9623SM   O1312941   3.547   1.069   3.947  0.0258 -0.0560  0.5083
   9623SM   O1412942   3.353   1.218   4.044 -0.0985 -0.4409  0.0880
   9623SM   O1112943   3.585   1.220   4.151 -0.2895  0.3610  0.1890
   9623SM   O1212944   3.433   1.014   4.159 -0.4545 -0.6095 -0.2498
   9623SM   C1S12945   3.530   1.296   4.258  0.3420 -0.5110 -0.0091
   9623SM   H1S12946   3.450   1.245   4.316  0.0236  1.1514  1.0715
   9623SM   H1T12947   3.487   1.390   4.218 -1.3801 -1.1531  0.2670
   9623SM    NF12948   3.574   1.378   4.480 -0.6715  0.3758 -0.0415
   9623SM   HNF12949   3.599   1.471   4.506  2.8623 -0.1377 -1.0070
   9623SM   C2S12950   3.642   1.335   4.357  0.3161  0.2505  0.2830
   9623SM   H2S12951   3.708   1.248   4.379  1.7090  1.2332  0.1399
   9623SM   C3S12952   3.744   1.427   4.294 -0.4467 -0.0476  0.1499
   9623SM   H3S12953   3.697   1.528   4.296  0.6109  0.4771 -0.9163
   9623SM    O312954   3.778   1.400   4.156  0.1564 -0.1635  1.1528
   9623SM   HO312955   3.726   1.323   4.130  0.8803 -0.9843  2.0651
   9623SM   C4S12956   3.866   1.442   4.385 -0.6088  0.5453 -0.1696
   9623SM   H4S12957   3.858   1.529   4.452 -0.1487 -0.1016  0.7478
   9623SM   C5S12958   3.978   1.360   4.383 -0.2892 -0.1397  0.1124
   9623SM   H5S12959   3.979   1.271   4.319 -1.5808 -0.3776  0.4028
   9623SM   C6S12960   4.097   1.368   4.476  0.3804  0.1579 -0.4083
   9623SM   H6S12961   4.088   1.457   4.542 -2.1256 -0.8433  0.7226
   9623SM   H6T12962   4.193   1.383   4.422  1.0060  1.9660  1.0813
   9623SM   C7S12963   4.101   1.236   4.558 -0.6679  0.3876  0.0496
   9623SM   H7S12964   4.166   1.173   4.494 -1.5969 -0.5153 -0.0279
   9623SM   H7T12965   4.005   1.180   4.557 -1.2823  1.3123 -2.9246
   9623SM   C8S12966   4.155   1.255   4.703 -0.4840 -0.1136  0.7571
   9623SM   H8S12967   4.179   1.155   4.744  0.2972 -0.4079 -0.3575
   9623SM   H8T12968   4.080   1.313   4.760 -0.9336 -0.0159  0.0785
   9623SM   C9S12969   4.287   1.332   4.698 -0.1868 -0.0044 -0.1552
   9623SM   H9S12970   4.276   1.429   4.646 -2.5815  0.6620  1.4359
   9623SM   H9T12971   4.364   1.279   4.637  0.9564  1.0252  0.3300
   9623SM  C10S12972   4.332   1.356   4.837  0.2582 -0.2534 -0.5243
   9623SM  H10S12973   4.249   1.406   4.891 -0.5423 -2.8241  0.7833
   9623SM  H10T12974   4.421   1.422   4.840 -1.0337  1.5285 -0.1854
   9623SM  C11S12975   4.358   1.221   4.914 -0.5792 -0.5918  0.4724
   9623SM  H11S12976   4.407   1.153   4.841 -1.3246  0.7523 -1.3728
   9623SM  H11T12977   4.272   1.159   4.948  0.3257 -2.6429 -0.8022
   9623SM  C12S12978   4.464   1.248   5.024  0.4617 -0.2830 -0.7926
   9623SM  H12S12979   4.499   1.353   5.020  0.1667 -0.0022  1.8501
   9623SM  H12T12980   4.545   1.173   5.013 -1.1603 -2.2739  0.0196
   9623SM  C13S12981   4.400   1.205   5.158  0.3004  0.2776 -0.4745
   9623SM  H13S12982   4.375   1.097   5.153  0.1535  0.3369 -1.1281
   9623SM  H13T12983   4.300   1.252   5.169  0.5939  1.0301 -0.8753
   9623SM  C14S12984   4.484   1.249   5.279 -0.9454 -0.0187  0.0506
   9623SM  H14S12985   4.495   1.360   5.274  0.9395 -0.2393 -2.9521
   9623SM  H14T12986   4.580   1.195   5.276 -1.3045 -0.6627  0.0463
   9623SM  C15S12987   4.425   1.191   5.404  0.0553 -0.3246  0.5523
   9623SM  H15S12988   4.418   1.080   5.405  0.6504 -0.3637  0.8570
   9623SM  H15T12989   4.325   1.238   5.401  0.6812  1.0250 -1.4353
   9623SM  C16S12990   4.490   1.238   5.533  0.0346 -0.5252 -0.2835
   9623SM  H16S12991   4.476   1.348   5.540  0.8488 -0.4913  1.1487
   9623SM  H16T12992   4.600   1.228   5.548 -0.0725 -0.6758  0.4377
   9623SM  C17S12993   4.444   1.184   5.665 -0.1451 -0.4082 -0.0223
   9623SM  H17S12994   4.335   1.195   5.683  0.0633 -1.0521  1.8352
   9623SM  H17T12995   4.496   1.232   5.750 -2.6058  1.6286  0.4685
   9623SM  C18S12996   4.470   1.031   5.674 -0.1954 -0.6933 -0.4220
   9623SM  H18S12997   4.578   1.020   5.697 -0.1016  0.0267 -0.5085
   9623SM  H18T12998   4.446   0.981   5.577  2.1007 -0.2189 -1.2946
   9623SM  H18U12999   4.415   0.978   5.755 -1.4542  0.8373 -0.2218
   9623SM   C1F13000   3.495   1.308   4.551 -0.0494  0.0562 -0.0522
   9623SM    OF13001   3.494   1.185   4.555  0.2172  0.1168  0.3173
   9623SM   C2F13002   3.418   1.387   4.656 -0.3914 -0.0978 -0.3973
   9623SM   H2F13003   3.315   1.344   4.660 -0.0508 -0.8450  1.0687
   9623SM   H2G13004   3.411   1.491   4.617 -2.1969  0.6328  1.6547
   9623SM   C3F13005   3.483   1.391   4.794  0.2262 -0.3426  0.6268
   9623SM   H3F13006   3.428   1.461   4.860  0.2225  1.2876 -1.0087
   9623SM   H3G13007   3.582   1.441   4.781 -0.1669  0.4946  0.7990
   9623SM   C4F13008   3.491   1.259   4.867 -0.4175  0.3730 -0.5194
   9623SM   H4F13009   3.556   1.201   4.799  1.2195  2.0475 -0.4815
   9623SM   H4G13010   3.392   1.215   4.890 -0.3332  0.9346  1.0571
   9623SM   C5F13011   3.565   1.277   5.003 -0.0788 -0.1343  0.8929
   9623SM   H5F13012   3.658   1.329   4.974 -1.1517  0.7843 -1.1887
   9623SM   H5G13013   3.581   1.170   5.028  1.7620 -0.6536 -2.0010
   9623SM   C6F13014   3.484   1.345   5.117  0.3386 -0.6802  0.4834
   9623SM   H6F13015   3.379   1.316   5.097 -0.1627  1.0064  0.5170
   9623SM   H6G13016   3.489   1.455   5.104 -1.7383 -0.4437  1.2853
   9623SM   C7F13017   3.515   1.291   5.262 -0.4454  0.2228 -0.6541
   9623SM   H7F13018   3.523   1.180   5.263  0.6945  0.2899 -0.7601
   9623SM   H7G13019   3.429   1.326   5.323 -0.0195  1.4383 -0.7281
   9623SM   C8F13020   3.649   1.352   5.319 -1.2513  0.2484  0.4206
   9623SM   H8F13021   3.737   1.344   5.252 -1.3190 -1.5893  0.5019
   9623SM   H8G13022   3.672   1.278   5.399  1.0306 -0.7788 -1.0809
   9623SM   C9F13023   3.640   1.495   5.385  0.3359  0.4500 -0.2499
   9623SM   H9F13024   3.633   1.573   5.306  1.4786 -0.0551 -0.8712
   9623SM   H9G13025   3.736   1.520   5.435  0.6834  1.1407 -1.2257
   9623SM  C10F13026   3.534   1.509   5.500 -0.3619 -0.2722 -0.3330
   9623SM  H10F13027   3.533   1.408   5.547  1.8679 -1.3085 -2.3060
   9623SM  H10G13028   3.437   1.537   5.453 -0.5866  3.7018  2.0389
   9623SM  C11F13029   3.575   1.614   5.601 -0.3594  0.2826 -0.6054
   9623SM  H11F13030   3.570   1.717   5.559 -0.5425  0.6083  0.1951
   9623SM  H11G13031   3.681   1.598   5.632 -0.7716 -0.6070  0.4056
   9623SM  C12F13032   3.492   1.611   5.727  0.1220  0.1834  0.7616
   9623SM  H12F13033   3.512   1.508   5.765  0.2809 -0.2249 -0.3788
   9623SM  H12G13034   3.384   1.605   5.698  0.5111  1.5159 -1.1761
   9623SM  C13F13035   3.525   1.713   5.832  1.0565  0.7760 -0.1647
   9623SM  H13F13036   3.505   1.811   5.785  0.0828  1.2350  1.1523
   9623SM  H13G13037   3.632   1.715   5.862  0.1485  2.4700  3.5417
   9623SM  C14F13038   3.427   1.707   5.957 -0.4123  0.1181  0.1744
   9623SM  H14F13039   3.420   1.608   6.008 -1.6286  1.2595  2.3580
   9623SM  H14G13040   3.322   1.726   5.925  0.0432  1.2623 -0.6970
   9623SM  C15F13041   3.463   1.819   6.059  0.5360  0.4414 -0.3277
   9623SM  H15F13042   3.572   1.842   6.065  0.3069  1.4035  0.4156
   9623SM  H15G13043   3.439   1.763   6.152 -0.4890 -3.1221 -2.5187
   9623SM  C16F13044   3.376   1.947   6.042  0.0962  0.0650 -0.6143
   9623SM  H16F13045   3.273   1.913   6.019 -0.0489  0.4087 -0.4735
   9623SM  H16G13046   3.416   2.019   5.968  1.0118 -0.5603 -0.7464
   9623SM  C17F13047   3.363   2.022   6.174 -0.0191  0.3680  0.3979
   9623SM  H17F13048   3.461   2.063   6.206  0.1141 -0.8518  1.6255
   9623SM  H17G13049   3.320   1.968   6.261  0.8879 -0.2609  0.4662
   9623SM  C18F13050   3.276   2.148   6.138  0.9426 -0.6925 -0.3588
   9623SM  H18F13051   3.167   2.127   6.139  0.2498  2.3206  2.5860
   9623SM  H18G13052   3.297   2.184   6.036  0.1006 -2.9782 -1.4125
   9623SM  C19F13053   3.291   2.262   6.237 -0.6317 -0.2288 -0.3243
   9623SM  H19F13054   3.236   2.352   6.200 -1.6785  0.0317  1.7258
   9623SM  H19G13055   3.401   2.278   6.243 -0.8494  1.7064 -0.7581
   9623SM  C20F13056   3.254   2.222   6.385 -0.3871  0.5750 -0.6811
   9623SM  H20F13057   3.336   2.166   6.435 -2.2836  1.1712  3.5242
   9623SM  H20G13058   3.165   2.156   6.396  0.0937 -0.1120 -0.8368
   9623SM  C21F13059   3.247   2.348   6.471 -0.1259  0.1828  0.1947
   9623SM  H21F13060   3.212   2.322   6.574  2.1819 -0.8663  0.7874
   9623SM  H21G13061   3.175   2.418   6.423  0.4246 -0.4760 -1.6531
   9623SM  C22F13062   3.389   2.416   6.492  0.0888  0.1911 -0.6092
   9623SM  H22F13063   3.425   2.437   6.389  0.1053  2.1895 -0.2397
   9623SM  H22G13064   3.458   2.345   6.541 -0.0686  1.1278  1.0432
   9623SM  C23F13065   3.392   2.545   6.575  0.3233  0.1877  0.7673
   9623SM  H23F13066   3.330   2.533   6.667  2.2720 -0.4180  2.0638
   9623SM  H23G13067   3.333   2.623   6.522 -0.7054 -0.2036  1.2930
   9623SM  H23H13068   3.495   2.576   6.601  0.9362 -1.1032 -0.0245
   9723SM     N13069   4.771   1.547   3.605  0.7913 -0.1509  0.0764
   9723SM   C1513070   4.896   1.597   3.675  0.6358  0.7204  0.1204
   9723SM  H15A13071   4.871   1.691   3.723  0.0573  0.7594 -0.2518
   9723SM  H15B13072   4.980   1.600   3.608  1.0448  0.9182  0.6320
   9723SM  H15C13073   4.918   1.531   3.758  0.6717  3.4069  2.4225
   9723SM   C1413074   4.817   1.428   3.524  0.6632 -0.2616  0.5798
   9723SM  H14A13075   4.880   1.458   3.442 -0.0103 -2.0734 -0.6516
   9723SM  H14B13076   4.738   1.372   3.476 -0.3551 -0.2571  2.1690
   9723SM  H14C13077   4.862   1.353   3.588 -0.1782 -0.9656  0.3590
   9723SM   C1313078   4.673   1.506   3.714  0.0542 -0.5091 -0.2635
   9723SM  H13A13079   4.624   1.594   3.754 -0.2523 -1.2662  1.0681
   9723SM  H13B13080   4.724   1.478   3.805 -1.4395  0.5220  0.9411
   9723SM  H13C13081   4.603   1.429   3.686 -3.4261  2.1708  0.3679
   9723SM   C1213082   4.705   1.649   3.514  0.2195 -0.7687 -0.4270
   9723SM  H12A13083   4.607   1.617   3.483  0.2772  0.5823 -2.1179
   9723SM  H12B13084   4.754   1.653   3.418 -1.0142 -3.1892 -1.2253
   9723SM   C1113085   4.706   1.797   3.574 -0.3949  0.0651  0.1837
   9723SM  H11A13086   4.633   1.860   3.518 -0.5927 -0.1085  0.2459
   9723SM  H11B13087   4.810   1.834   3.560 -1.0979  2.5962  1.0277
   9723SM     P13088   4.555   1.894   3.764  0.2890 -0.0828 -0.0855
   9723SM   O1313089   4.539   2.024   3.686 -0.4809 -0.2323 -0.3280
   9723SM   O1413090   4.440   1.808   3.782  0.4774 -0.2367  0.2449
   9723SM   O1113091   4.589   1.937   3.912  0.5390 -0.5334  0.2268
   9723SM   O1213092   4.677   1.803   3.716  0.5881 -0.0274  0.2474
   9723SM   C1S13093   4.608   1.836   4.007 -0.0193  0.2276  0.0881
   9723SM   H1S13094   4.706   1.785   3.992 -1.0120 -1.4975 -0.9132
   9723SM   H1T13095   4.539   1.750   3.993  1.0864 -0.6129 -0.3591
   9723SM    NF13096   4.648   1.797   4.256 -0.2504 -0.3929 -0.1378
   9723SM   HNF13097   4.571   1.748   4.295  0.3795  0.8298  2.9309
   9723SM   C2S13098   4.604   1.895   4.158  0.6927 -0.2551  0.3649
   9723SM   H2S13099   4.675   1.980   4.145 -0.3198  0.1845 -4.2109
   9723SM   C3S13100   4.462   1.948   4.184 -0.0212 -0.4250 -0.2554
   9723SM   H3S13101   4.384   1.869   4.187 -1.2804  0.8046  1.6483
   9723SM    O313102   4.410   2.041   4.083  0.1131  0.0438 -0.1824
   9723SM   HO313103   4.466   2.027   4.006  0.3015 -0.0403 -0.0299
   9723SM   C4S13104   4.461   2.012   4.318  0.0080 -0.3037 -0.9597
   9723SM   H4S13105   4.400   1.962   4.394  0.1668  0.2462 -0.4641
   9723SM   C5S13106   4.517   2.132   4.347 -0.0403 -0.1340  0.4727
   9723SM   H5S13107   4.581   2.182   4.272 -1.6973 -0.7667 -1.4591
   9723SM   C6S13108   4.510   2.180   4.493 -0.3529 -0.3925 -0.5461
   9723SM   H6S13109   4.579   2.265   4.513 -0.2464 -0.7405  0.6887
   9723SM   H6T13110   4.541   2.090   4.549  0.7764 -0.3853 -1.1461
   9723SM   C7S13111   4.373   2.219   4.545  0.9431 -0.1850  0.3059
   9723SM   H7S13112   4.311   2.132   4.514  0.0061  0.6759 -0.2857
   9723SM   H7T13113   4.350   2.319   4.501  1.2781 -0.4122 -0.4124
   9723SM   C8S13114   4.364   2.237   4.696 -0.0959  0.5227  0.5825
   9723SM   H8S13115   4.409   2.336   4.716 -0.5850  0.9256 -0.2330
   9723SM   H8T13116   4.402   2.150   4.753  0.1984  0.5616  0.4473
   9723SM   C9S13117   4.218   2.254   4.745  1.1340  0.4114 -0.0364
   9723SM   H9S13118   4.163   2.163   4.714  1.7532  0.1944 -0.5302
   9723SM   H9T13119   4.172   2.333   4.682  1.6015  0.5614 -0.1979
   9723SM  C10S13120   4.192   2.287   4.890 -0.1079  0.5407  0.1006
   9723SM  H10S13121   4.089   2.321   4.916 -0.2172  1.1052 -1.0208
   9723SM  H10T13122   4.256   2.369   4.929  0.9345  0.5159 -1.4607
   9723SM  C11S13123   4.218   2.159   4.976  0.7413 -0.4950  0.3308
   9723SM  H11S13124   4.317   2.116   4.952  0.3421 -1.5317  0.4633
   9723SM  H11T13125   4.141   2.086   4.940 -0.1695  0.7293 -0.2717
   9723SM  C12S13126   4.203   2.178   5.128  0.0852  0.1795 -0.7381
   9723SM  H12S13127   4.101   2.212   5.157  0.3001 -0.0831  0.3563
   9723SM  H12T13128   4.289   2.246   5.147 -1.0400  1.8417 -1.3723
   9723SM  C13S13129   4.251   2.057   5.205 -0.1879 -0.3483 -0.2194
   9723SM  H13S13130   4.359   2.036   5.189  0.3509  0.3213  2.1029
   9723SM  H13T13131   4.192   1.971   5.167  1.2011 -1.0481 -0.8706
   9723SM  C14S13132   4.228   2.080   5.355  0.5179 -0.4190 -0.5698
   9723SM  H14S13133   4.249   1.988   5.413 -0.1415  1.5165  3.0370
   9723SM  H14T13134   4.121   2.106   5.372  0.5689 -1.5105  1.9584
   9723SM  C15S13135   4.307   2.187   5.424 -0.0774  0.6229  0.1686
   9723SM  H15S13136   4.290   2.287   5.377  1.9158  1.3546  0.9078
   9723SM  H15T13137   4.415   2.174   5.403 -0.1052  0.7199 -0.0396
   9723SM  C16S13138   4.303   2.204   5.579  0.1146 -0.0434  1.0190
   9723SM  H16S13139   4.307   2.101   5.621  1.9159 -0.1422  0.6747
   9723SM  H16T13140   4.203   2.242   5.610 -0.8835 -2.8100  1.4173
   9723SM  C17S13141   4.420   2.298   5.619  0.5838 -1.4025  0.3651
   9723SM  H17S13142   4.401   2.382   5.550 -1.4823 -0.8547  1.5261
   9723SM  H17T13143   4.518   2.248   5.600  1.2976 -0.1462  0.5893
   9723SM  C18S13144   4.421   2.351   5.764  0.2204  0.4543  0.8891
   9723SM  H18S13145   4.326   2.405   5.786 -0.4405 -0.3456  0.0966
   9723SM  H18T13146   4.492   2.435   5.773 -0.2115  0.9300  0.0357
   9723SM  H18U13147   4.457   2.276   5.838  1.2938 -0.5027 -0.5363
   9723SM   C1F13148   4.774   1.761   4.269  0.4902  0.5926 -0.4984
   9723SM    OF13149   4.866   1.813   4.210 -0.3052 -0.4532  0.0973
   9723SM   C2F13150   4.788   1.641   4.365  0.0800 -1.0791 -0.1847
   9723SM   H2F13151   4.814   1.551   4.306 -0.3343 -0.2781 -1.6248
   9723SM   H2G13152   4.689   1.623   4.412 -0.4869  0.6456 -0.6267
   9723SM   C3F13153   4.906   1.675   4.463  0.6421  0.5127  0.0832
   9723SM   H3F13154   5.005   1.690   4.416  0.6045 -0.2492 -0.2651
   9723SM   H3G13155   4.908   1.586   4.530 -1.9391 -0.0603 -0.4534
   9723SM   C4F13156   4.868   1.788   4.553 -0.4737  0.1393  0.5489
   9723SM   H4F13157   4.772   1.761   4.602 -0.1524  0.9113  1.6591
   9723SM   H4G13158   4.841   1.879   4.495  1.9499  0.7925  0.3291
   9723SM   C5F13159   4.962   1.810   4.671  0.5199  0.3299  0.0300
   9723SM   H5F13160   5.004   1.912   4.655 -0.1283  0.4199 -1.2293
   9723SM   H5G13161   5.048   1.740   4.669  1.0940  1.0206 -0.1877
   9723SM   C6F13162   4.893   1.793   4.814 -0.2791 -0.1218  0.3600
   9723SM   H6F13163   4.850   1.691   4.828  0.5683 -0.5774 -0.2785
   9723SM   H6G13164   4.803   1.857   4.823 -0.8247 -0.8384  0.1552
   9723SM   C7F13165   4.990   1.818   4.927  0.2380 -0.2915  0.1538
   9723SM   H7F13166   5.038   1.918   4.912 -1.5937  0.8360  1.4364
   9723SM   H7G13167   5.068   1.739   4.923 -0.0203 -0.5884  0.8004
   9723SM   C8F13168   4.931   1.792   5.062  0.3605  0.3339  0.2016
   9723SM   H8F13169   4.862   1.705   5.072 -1.3080  1.6937  0.9733
   9723SM   H8G13170   4.868   1.879   5.089  1.1846  0.5615  1.4570
   9723SM   C9F13171   5.045   1.780   5.166  0.5624  0.0293 -0.0537
   9723SM   H9F13172   5.121   1.862   5.164  1.9749 -1.2305 -1.7882
   9723SM   H9G13173   5.096   1.683   5.146 -1.3907 -1.4101  1.5898
   9723SM  C10F13174   4.992   1.768   5.313  0.6231 -0.3405  0.8442
   9723SM  H10F13175   4.939   1.673   5.334  2.1411 -0.4305  5.1890
   9723SM  H10G13176   4.917   1.845   5.342  0.3940 -0.6106  0.9738
   9723SM  C11F13177   5.102   1.784   5.418  0.3207 -0.6681 -0.5530
   9723SM  H11F13178   5.121   1.891   5.440  2.3161 -0.2029 -3.8880
   9723SM  H11G13179   5.196   1.754   5.367  1.1389  0.8463 -0.0044
   9723SM  C12F13180   5.079   1.701   5.551 -0.4327 -0.4125  1.3120
   9723SM  H12F13181   5.113   1.595   5.545  1.2725  0.1919 -0.7302
   9723SM  H12G13182   4.972   1.710   5.580 -0.1614  0.5911  2.0534
   9723SM  C13F13183   5.162   1.780   5.658  0.2974  0.5489  0.6369
   9723SM  H13F13184   5.142   1.889   5.652  1.4236  0.7243 -0.3317
   9723SM  H13G13185   5.272   1.778   5.638  0.3871 -2.4472  0.9910
   9723SM  C14F13186   5.137   1.726   5.798  0.0914  0.1759 -0.3753
   9723SM  H14F13187   5.177   1.623   5.793 -1.8746 -0.6583 -0.0233
   9723SM  H14G13188   5.028   1.727   5.822  0.2246  0.5351  0.2420
   9723SM  C15F13189   5.215   1.798   5.901  0.2083 -0.2495 -0.4999
   9723SM  H15F13190   5.175   1.902   5.901  1.1687  0.1490 -1.4508
   9723SM  H15G13191   5.323   1.815   5.877 -0.2204  1.5595 -1.3663
   9723SM  C16F13192   5.208   1.733   6.043 -0.6631  0.2207 -0.4295
   9723SM  H16F13193   5.262   1.636   6.040  0.5022  0.7684  1.4836
   9723SM  H16G13194   5.099   1.720   6.063 -1.0325  1.2173 -1.6708
   9723SM  C17F13195   5.261   1.814   6.156 -0.4480 -0.3267  1.0199
   9723SM  H17F13196   5.359   1.859   6.129 -1.8362  1.8360 -0.7802
   9723SM  H17G13197   5.274   1.748   6.244  0.2834  0.5668  1.5979
   9723SM  C18F13198   5.179   1.936   6.199 -0.3604  0.7316 -0.4479
   9723SM  H18F13199   5.127   1.974   6.108 -0.4984  1.4388 -0.0804
   9723SM  H18G13200   5.243   2.017   6.239  0.2776  1.0900 -2.0890
   9723SM  C19F13201   5.062   1.891   6.300 -0.3749  0.1005 -0.1309
   9723SM  H19F13202   5.112   1.849   6.391  0.2077 -0.8312 -0.8647
   9723SM  H19G13203   5.004   1.803   6.266  0.9661 -1.7455  1.9809
   9723SM  C20F13204   4.965   2.001   6.339 -0.1217  0.2655  0.9725
   9723SM  H20F13205   4.928   2.048   6.245  1.8780 -0.0535 -0.0142
   9723SM  H20G13206   5.025   2.077   6.392  0.1736 -0.4199  1.6228
   9723SM  C21F13207   4.851   1.943   6.426 -0.1892 -0.2845  0.5872
   9723SM  H21F13208   4.815   2.037   6.473  0.7608  1.0094 -1.1566
   9723SM  H21G13209   4.890   1.881   6.510  0.8616 -2.4531 -1.4054
   9723SM  C22F13210   4.732   1.874   6.354 -0.6137  0.4462 -0.6376
   9723SM  H22F13211   4.782   1.787   6.306  2.4735  1.4634  0.5258
   9723SM  H22G13212   4.679   1.933   6.275 -1.3616 -0.7424 -1.0498
   9723SM  C23F13213   4.612   1.833   6.443 -0.3199  0.5313 -0.0502
   9723SM  H23F13214   4.571   1.925   6.490 -0.9962  0.1484  0.1182
   9723SM  H23G13215   4.644   1.763   6.523  2.1153  0.4927 -0.9689
   9723SM  H23H13216   4.529   1.785   6.386  0.5542 -1.3214  0.1646
   9823SM     N13217   0.760   0.861   3.497  0.1091  0.0407  0.5408
   9823SM   C1513218   0.790   1.009   3.484 -0.2731  0.1794 -0.8697
   9823SM  H15A13219   0.892   1.035   3.459 -0.0941  0.9302  0.5448
   9823SM  H15B13220   0.767   1.052   3.580  1.6356  0.4122 -0.4679
   9823SM  H15C13221   0.729   1.058   3.409 -1.0968  1.9916  0.8924
   9823SM   C1413222   0.792   0.812   3.358 -0.0517 -0.0788 -0.6143
   9823SM  H14A13223   0.713   0.851   3.296 -0.6688 -0.4653 -0.0923
   9823SM  H14B13224   0.773   0.705   3.355 -1.6673  0.1983 -1.5187
   9823SM  H14C13225   0.894   0.835   3.332 -0.2627  2.1717  0.3615
   9823SM   C1313226   0.850   0.790   3.592  0.5448 -0.6094  0.9001
   9823SM  H13A13227   0.831   0.812   3.696  0.7682  0.4969  0.7291
   9823SM  H13B13228   0.955   0.809   3.570  1.3002 -2.5789  2.5062
   9823SM  H13C13229   0.841   0.683   3.587 -2.2182 -0.4245  0.6484
   9823SM   C1213230   0.611   0.843   3.533 -0.8601 -0.2760  0.2853
   9823SM  H12A13231   0.557   0.895   3.456  0.7331  2.5703  0.9395
   9823SM  H12B13232   0.597   0.893   3.628  2.3208  0.3271  0.5640
   9823SM   C1113233   0.565   0.694   3.545 -0.1418  0.0375  0.4250
   9823SM  H11A13234   0.456   0.710   3.561  0.2810  2.3330  1.4781
   9823SM  H11B13235   0.609   0.655   3.639 -2.3929 -1.1487  1.0628
   9823SM     P13236   0.513   0.490   3.392 -0.0847  0.2247 -0.2076
   9823SM   O1313237   0.453   0.519   3.260  0.0451  0.3498 -0.5785
   9823SM   O1413238   0.595   0.369   3.403  0.0931 -0.7721 -0.3682
   9823SM   O1113239   0.395   0.473   3.497 -0.1133  0.1445 -0.1156
   9823SM   O1213240   0.598   0.612   3.428  0.3964 -0.0702  0.1816
   9823SM   C1S13241   0.396   0.382   3.611  0.3563  0.2234  0.4968
   9823SM   H1S13242   0.499   0.358   3.646 -0.1569 -1.3508  1.0245
   9823SM   H1T13243   0.349   0.284   3.587  3.5656 -1.2193 -0.6144
   9823SM    NF13244   0.373   0.381   3.859 -0.6536 -0.1263  0.8316
   9823SM   HNF13245   0.325   0.313   3.914  0.5183 -0.1911  1.8138
   9823SM   C2S13246   0.321   0.439   3.738 -0.0526  0.4596  0.3537
   9823SM   H2S13247   0.339   0.548   3.748  1.4101  0.5946 -2.7244
   9823SM   C3S13248   0.168   0.412   3.708 -0.3890 -0.8998  0.5504
   9823SM   H3S13249   0.153   0.303   3.715 -0.7083 -0.7941  1.6711
   9823SM    O313250   0.117   0.462   3.581 -0.7760  0.1372 -0.2951
   9823SM   HO313251   0.196   0.482   3.531 -0.3273  1.9748  1.0293
   9823SM   C4S13252   0.089   0.474   3.818 -0.7070 -0.0378  0.4285
   9823SM   H4S13253   0.072   0.407   3.903 -2.3653  1.2915  1.2112
   9823SM   C5S13254   0.038   0.593   3.831  0.9362 -0.2876 -0.2231
   9823SM   H5S13255   0.050   0.668   3.750  0.9026  0.1165  0.1409
   9823SM   C6S13256  -0.039   0.647   3.947  0.0524  0.3354 -0.3140
   9823SM   H6S13257  -0.145   0.618   3.927  0.4156 -2.1900  0.9052
   9823SM   H6T13258  -0.027   0.756   3.959 -2.1678  0.7905 -1.7702
   9823SM   C7S13259  -0.012   0.588   4.089 -0.2054  0.1306  0.9898
   9823SM   H7S13260   0.096   0.596   4.115  0.4043 -0.6262 -1.0891
   9823SM   H7T13261  -0.025   0.478   4.080 -1.0132  0.2113  1.0917
   9823SM   C8S13262  -0.086   0.660   4.196  0.9005 -0.6961  0.0911
   9823SM   H8S13263  -0.196   0.648   4.187  0.5157  0.1035  2.7358
   9823SM   H8T13264  -0.064   0.769   4.200  0.4556 -0.6024  0.0445
   9823SM   C9S13265  -0.060   0.591   4.332 -0.2302  0.2930 -0.4603
   9823SM   H9S13266   0.051   0.590   4.346 -0.0733  3.1236 -0.9235
   9823SM   H9T13267  -0.099   0.490   4.307 -2.0207  1.1119 -1.1094
   9823SM  C10S13268  -0.120   0.653   4.451  0.0848  0.1073 -0.1852
   9823SM  H10S13269  -0.230   0.665   4.444  0.2518  2.8927  0.8958
   9823SM  H10T13270  -0.080   0.756   4.461 -0.7177  0.4436 -0.3795
   9823SM  C11S13271  -0.090   0.563   4.570 -0.0352  0.0985 -0.5094
   9823SM  H11S13272   0.018   0.567   4.597 -0.4492 -1.9744  1.8308
   9823SM  H11T13273  -0.102   0.458   4.538  0.3493 -0.5867  1.4642
   9823SM  C12S13274  -0.184   0.584   4.684 -0.0269  0.0964  0.5012
   9823SM  H12S13275  -0.176   0.496   4.751  0.4854 -1.8277 -1.9635
   9823SM  H12T13276  -0.290   0.590   4.650  0.0260  0.4450  0.3973
   9823SM  C13S13277  -0.151   0.708   4.764 -0.2560 -0.0356  0.0232
   9823SM  H13S13278  -0.159   0.803   4.707 -1.5954  0.3298  0.7696
   9823SM  H13T13279  -0.048   0.695   4.802  0.0823  2.1148 -0.0564
   9823SM  C14S13280  -0.234   0.725   4.893 -0.1001  0.4353  0.5734
   9823SM  H14S13281  -0.225   0.625   4.940  1.5564 -0.3673 -1.3291
   9823SM  H14T13282  -0.342   0.743   4.872  0.3225  1.0758 -1.2596
   9823SM  C15S13283  -0.170   0.830   4.987  0.0811 -0.2552 -0.2845
   9823SM  H15S13284  -0.144   0.920   4.927 -1.7093 -0.5714 -1.6114
   9823SM  H15T13285  -0.073   0.797   5.032  0.4908  0.0120 -0.9530
   9823SM  C16S13286  -0.260   0.863   5.101  0.7174  0.3537 -0.4141
   9823SM  H16S13287  -0.256   0.758   5.139  0.8479 -0.5261 -2.7002
   9823SM  H16T13288  -0.363   0.894   5.074  0.1855 -0.8393  0.1681
   9823SM  C17S13289  -0.192   0.964   5.191 -0.1037 -0.0042 -0.3467
   9823SM  H17S13290  -0.201   1.065   5.146  1.3708 -0.9228 -2.8654
   9823SM  H17T13291  -0.084   0.937   5.187  0.1365  0.9708 -0.5765
   9823SM  C18S13292  -0.250   0.946   5.335  0.1928  0.2381  0.3251
   9823SM  H18S13293  -0.210   1.022   5.405 -0.5915  0.6516  0.3412
   9823SM  H18T13294  -0.213   0.846   5.366 -0.8192 -0.2352  0.0340
   9823SM  H18U13295  -0.360   0.951   5.321  0.1157  2.9363  1.1843
   9823SM   C1F13296   0.495   0.416   3.901 -0.2217  0.6850  0.4529
   9823SM    OF13297   0.546   0.523   3.875 -0.4359 -0.2325 -0.4690
   9823SM   C2F13298   0.558   0.319   3.997 -0.3120  0.5650  0.8444
   9823SM   H2F13299   0.650   0.286   3.943 -0.3507  1.1864  0.3855
   9823SM   H2G13300   0.488   0.237   4.024 -0.4997  0.7889  1.0391
   9823SM   C3F13301   0.595   0.385   4.130 -0.3214  0.0045  0.0354
   9823SM   H3F13302   0.656   0.473   4.098 -1.2449  0.7681  0.3333
   9823SM   H3G13303   0.657   0.308   4.181  0.0158 -1.0252 -1.8409
   9823SM   C4F13304   0.475   0.413   4.216 -0.7915 -0.7894 -0.2194
   9823SM   H4F13305   0.419   0.318   4.227  3.2612 -3.3114  0.7266
   9823SM   H4G13306   0.408   0.487   4.168  1.2906  1.1481 -0.3355
   9823SM   C5F13307   0.521   0.482   4.351 -0.1763 -0.3743 -0.7561
   9823SM   H5F13308   0.570   0.578   4.324 -2.2144  0.2955 -2.2927
   9823SM   H5G13309   0.590   0.418   4.411 -0.2181  0.2157 -0.0712
   9823SM   C6F13310   0.398   0.523   4.437  0.9858 -0.4826 -0.1139
   9823SM   H6F13311   0.337   0.434   4.462  0.3177 -0.5918 -1.9877
   9823SM   H6G13312   0.341   0.593   4.373 -0.7795 -3.3691 -1.9105
   9823SM   C7F13313   0.440   0.603   4.562  0.7145  0.0713  0.0869
   9823SM   H7F13314   0.483   0.703   4.543 -0.0811  0.3764 -0.1398
   9823SM   H7G13315   0.523   0.548   4.612  0.4234 -2.2432 -1.7839
   9823SM   C8F13316   0.325   0.618   4.658 -1.0378 -0.4191 -0.0270
   9823SM   H8F13317   0.263   0.527   4.646  0.8975 -1.8117  0.0179
   9823SM   H8G13318   0.277   0.712   4.625 -0.7872 -0.4798 -0.5757
   9823SM   C9F13319   0.361   0.630   4.806  0.2274 -0.9753 -0.3056
   9823SM   H9F13320   0.448   0.698   4.813 -0.6645  0.1718 -0.0523
   9823SM   H9G13321   0.396   0.533   4.847 -0.2058 -2.0748 -2.3728
   9823SM  C10F13322   0.251   0.694   4.899 -0.3406 -0.6453  0.0583
   9823SM  H10F13323   0.161   0.638   4.867  0.9855 -2.1221 -1.2353
   9823SM  H10G13324   0.236   0.799   4.866  0.3780  0.3466  2.6607
   9823SM  C11F13325   0.275   0.678   5.052 -0.6221 -0.0566 -0.2643
   9823SM  H11F13326   0.369   0.727   5.084  0.3065 -1.2859 -1.0293
   9823SM  H11G13327   0.293   0.569   5.066  1.3803  0.3285  0.3898
   9823SM  C12F13328   0.155   0.732   5.130  0.9567  0.2426  0.1007
   9823SM  H12F13329   0.067   0.676   5.093  0.9205 -0.0453  0.6276
   9823SM  H12G13330   0.125   0.837   5.105 -2.2508 -0.5071  0.3900
   9823SM  C13F13331   0.180   0.709   5.271 -0.2346 -0.0431  0.0841
   9823SM  H13F13332   0.278   0.751   5.301 -0.2723  0.0567  0.0674
   9823SM  H13G13333   0.197   0.600   5.285 -1.1594 -0.1568  0.3705
   9823SM  C14F13334   0.068   0.767   5.357  0.6052  0.4448  0.1795
   9823SM  H14F13335  -0.029   0.722   5.326  0.7958 -0.5299  0.9526
   9823SM  H14G13336   0.052   0.877   5.358  2.2695  0.7031  0.8396
   9823SM  C15F13337   0.071   0.715   5.505 -0.0617  0.5438  0.7875
   9823SM  H15F13338   0.148   0.772   5.562  2.1338 -1.1853 -0.2766
   9823SM  H15G13339   0.107   0.610   5.497  0.4131  0.7587  0.0510
   9823SM  C16F13340  -0.062   0.735   5.571  0.0027  0.6023  0.2241
   9823SM  H16F13341  -0.152   0.713   5.510 -0.6674  1.4796  0.8714
   9823SM  H16G13342  -0.065   0.844   5.594 -1.4386  0.2403  1.9498
   9823SM  C17F13343  -0.073   0.663   5.710 -0.9947  0.1083  0.1878
   9823SM  H17F13344  -0.006   0.716   5.782 -2.1507  0.3950  1.0826
   9823SM  H17G13345  -0.033   0.562   5.689  0.1902  0.6751 -0.3890
   9823SM  C18F13346  -0.219   0.655   5.756 -0.3202 -1.0671  0.5563
   9823SM  H18F13347  -0.283   0.611   5.675 -0.0980  0.0070 -0.2222
   9823SM  H18G13348  -0.268   0.753   5.774  0.0208 -0.8078  0.0951
   9823SM  C19F13349  -0.241   0.570   5.882 -0.0327 -0.0323 -0.2458
   9823SM  H19F13350  -0.199   0.637   5.961 -2.9518 -0.4081  1.7621
   9823SM  H19G13351  -0.183   0.475   5.880  0.7988  0.3868  1.5865
   9823SM  C20F13352  -0.389   0.525   5.911 -1.3384  0.3350  0.2583
   9823SM  H20F13353  -0.405   0.440   5.841  3.0831  1.7568 -2.9769
   9823SM  H20G13354  -0.455   0.613   5.899  1.3818  2.4558 -0.2297
   9823SM  C21F13355  -0.396   0.484   6.069  0.0145  0.1641 -0.0363
   9823SM  H21F13356  -0.351   0.568   6.126  1.1874  0.0134 -0.7147
   9823SM  H21G13357  -0.342   0.391   6.093 -1.3509  0.0838  3.2631
   9823SM  C22F13358  -0.537   0.462   6.121  0.0587  0.6313 -0.3883
   9823SM  H22F13359  -0.586   0.561   6.110  2.0162  1.7995  0.6848
   9823SM  H22G13360  -0.531   0.430   6.227  2.6252  0.3372 -0.5427
   9823SM  C23F13361  -0.625   0.355   6.042  0.3434  0.3508  0.2092
   9823SM  H23F13362  -0.583   0.252   6.047 -1.4200 -0.4030  0.3079
   9823SM  H23G13363  -0.626   0.378   5.933 -0.7885 -2.4499 -0.4735
   9823SM  H23H13364  -0.724   0.342   6.092 -0.7129 -0.2739 -1.9116
   9923SM     N13365   2.922   6.221   4.579  0.1768 -0.4210  0.0589
   9923SM   C1513366   2.926   6.259   4.438 -0.0946 -0.4190  0.4954
   9923SM  H15A13367   2.897   6.363   4.431  2.0821  0.1612 -1.1966
   9923SM  H15B13368   2.858   6.192   4.387 -0.5097 -0.0634  0.5723
   9923SM  H15C13369   3.022   6.244   4.389  0.3370 -0.1395  1.2438
   9923SM   C1413370   2.981   6.089   4.612  0.2967 -0.0325  0.0488
   9923SM  H14A13371   3.076   6.075   4.562  0.5443  0.1502  0.4711
   9923SM  H14B13372   2.920   6.005   4.583 -0.3665 -0.2142  1.8375
   9923SM  H14C13373   2.996   6.073   4.717 -1.5626  0.3861  0.4041
   9923SM   C1313374   3.012   6.317   4.651  0.3627  0.6451 -0.1612
   9923SM  H13A13375   3.110   6.318   4.605  0.5234  0.9182  0.1788
   9923SM  H13B13376   3.024   6.289   4.755  2.0312  1.4341 -0.0947
   9923SM  H13C13377   2.970   6.416   4.638  1.0388  0.9687  0.0109
   9923SM   C1213378   2.784   6.218   4.642  0.2771 -0.8356  0.5399
   9923SM  H12A13379   2.787   6.198   4.749 -0.2557  2.4366  1.2568
   9923SM  H12B13380   2.724   6.139   4.599 -0.2117 -0.1942  0.0289
   9923SM   C1113381   2.681   6.335   4.633 -0.7068 -0.7290  0.1025
   9923SM  H11A13382   2.736   6.421   4.676 -0.2652 -0.8770 -0.1615
   9923SM  H11B13383   2.592   6.317   4.697 -1.3365 -1.4502 -0.9493
   9923SM     P13384   2.515   6.254   4.452  0.0133  0.0506 -0.0041
   9923SM   O1313385   2.483   6.277   4.312  0.0092  0.2189  0.7914
   9923SM   O1413386   2.561   6.118   4.487 -0.8035 -0.0852  0.1545
   9923SM   O1113387   2.407   6.313   4.547  0.7594  0.5864 -0.3966
   9923SM   O1213388   2.631   6.349   4.498 -0.5990 -0.0186  0.7391
   9923SM   C1S13389   2.378   6.454   4.560  0.2382  0.0073  0.3290
   9923SM   H1S13390   2.345   6.502   4.466  0.6274 -0.2439  0.0624
   9923SM   H1T13391   2.470   6.503   4.598  0.4370 -0.9841  1.1632
   9923SM    NF13392   2.232   6.640   4.660 -0.0182  0.6220 -0.2624
   9923SM   HNF13393   2.292   6.710   4.697 -0.7023  1.0471  0.0484
   9923SM   C2S13394   2.271   6.495   4.674  1.2705  0.0739 -0.6781
   9923SM   H2S13395   2.179   6.436   4.656 -0.6011  2.0973  1.6242
   9923SM   C3S13396   2.325   6.453   4.811 -0.1665  0.1041 -0.7053
   9923SM   H3S13397   2.432   6.485   4.808 -0.5143  1.4376  0.6630
   9923SM    O313398   2.350   6.314   4.837 -0.3494 -0.3642  0.1981
   9923SM   HO313399   2.371   6.289   4.747  1.1416  1.3920  0.0118
   9923SM   C4S13400   2.255   6.517   4.927  0.4190  0.3054 -0.3742
   9923SM   H4S13401   2.147   6.531   4.913  0.4511 -1.5620 -3.1009
   9923SM   C5S13402   2.320   6.559   5.035  0.5839  0.4938 -0.4901
   9923SM   H5S13403   2.429   6.544   5.046  0.8074  1.0162 -1.8877
   9923SM   C6S13404   2.255   6.615   5.160 -0.4317  0.3974  0.0903
   9923SM   H6S13405   2.145   6.618   5.145 -0.2206  2.7515 -1.5238
   9923SM   H6T13406   2.292   6.716   5.185  1.2844 -0.4341  1.1438
   9923SM   C7S13407   2.305   6.545   5.292  1.0119  0.2893 -0.7617
   9923SM   H7S13408   2.408   6.584   5.306  1.5988 -1.0526 -1.1808
   9923SM   H7T13409   2.303   6.434   5.287  1.0433  0.1838  1.1513
   9923SM   C8S13410   2.234   6.595   5.421  0.2849  0.2205  0.2300
   9923SM   H8S13411   2.133   6.548   5.427  0.6831 -0.6658  0.1037
   9923SM   H8T13412   2.208   6.703   5.409 -1.0373 -0.1843 -0.7379
   9923SM   C9S13413   2.298   6.552   5.558 -0.3674 -0.5930 -0.3434
   9923SM   H9S13414   2.407   6.570   5.558 -0.7514  2.1821 -1.5286
   9923SM   H9T13415   2.288   6.442   5.575  2.3569 -1.0203 -1.0838
   9923SM  C10S13416   2.228   6.631   5.673 -0.5512 -0.3826 -0.3452
   9923SM  H10S13417   2.118   6.629   5.657 -0.6294 -1.2149  0.2306
   9923SM  H10T13418   2.249   6.739   5.661 -2.0691  0.2077  1.8234
   9923SM  C11S13419   2.262   6.574   5.810 -0.0156  0.6903  0.5162
   9923SM  H11S13420   2.272   6.463   5.800  0.0700  0.7891 -0.7791
   9923SM  H11T13421   2.178   6.588   5.880 -0.6653 -0.2756 -0.0377
   9923SM  C12S13422   2.401   6.633   5.862  0.5317 -0.0365 -0.2528
   9923SM  H12S13423   2.415   6.742   5.842  0.1425 -0.2361 -1.6941
   9923SM  H12T13424   2.482   6.583   5.805  0.6054  0.6310 -0.7525
   9923SM  C13S13425   2.410   6.594   6.009 -0.2969 -0.5357  0.3075
   9923SM  H13S13426   2.435   6.487   6.025  1.0790 -0.6205 -2.0181
   9923SM  H13T13427   2.314   6.615   6.061 -0.6307 -1.1486 -0.0516
   9923SM  C14S13428   2.522   6.670   6.071 -0.2740 -0.0327 -0.4562
   9923SM  H14S13429   2.493   6.777   6.074  0.1089  0.0544  1.7793
   9923SM  H14T13430   2.615   6.657   6.012  0.0061  1.2783 -0.3417
   9923SM  C15S13431   2.554   6.614   6.214  0.1068 -0.0527 -0.2514
   9923SM  H15S13432   2.612   6.519   6.209  0.3038 -0.1206  1.9532
   9923SM  H15T13433   2.455   6.597   6.261  0.1267  2.5830  0.9317
   9923SM  C16S13434   2.624   6.714   6.296 -0.0623  0.3719 -0.1556
   9923SM  H16S13435   2.565   6.808   6.308  0.6680  1.0571 -1.6656
   9923SM  H16T13436   2.711   6.743   6.232  0.0681 -2.2344 -1.2675
   9923SM  C17S13437   2.665   6.668   6.436  0.3029  0.9334  0.0066
   9923SM  H17S13438   2.729   6.579   6.418 -1.4139 -0.3847  0.1717
   9923SM  H17T13439   2.581   6.647   6.506  1.2260  1.7081  1.3971
   9923SM  C18S13440   2.754   6.774   6.498 -0.4565 -0.1211  0.1717
   9923SM  H18S13441   2.698   6.862   6.536  1.0846 -0.2064  2.8799
   9923SM  H18T13442   2.819   6.805   6.413 -1.8892  1.7540 -0.3139
   9923SM  H18U13443   2.814   6.733   6.582 -2.2608  0.1270  1.6518
   9923SM   C1F13444   2.133   6.676   4.583  0.5695 -0.3792  0.5716
   9923SM    OF13445   2.043   6.598   4.544  0.1644  0.0322  0.0589
   9923SM   C2F13446   2.141   6.817   4.532  0.2742 -0.5006  0.1195
   9923SM   H2F13447   2.180   6.817   4.428 -0.5622 -2.8415 -0.2545
   9923SM   H2G13448   2.214   6.873   4.595  0.7273  1.1282 -1.7263
   9923SM   C3F13449   2.005   6.884   4.542 -0.3958 -0.7652  0.3778
   9923SM   H3F13450   1.929   6.834   4.479 -1.0052 -0.0835  0.5536
   9923SM   H3G13451   2.010   6.987   4.501  0.7065 -1.3530 -1.0065
   9923SM   C4F13452   1.957   6.889   4.684 -0.9122 -0.3453 -0.2540
   9923SM   H4F13453   1.929   6.787   4.720 -1.9183  0.4186  1.2420
   9923SM   H4G13454   1.860   6.942   4.688 -0.3371  0.6697  1.5310
   9923SM   C5F13455   2.058   6.950   4.777 -0.7915  0.0626  0.1304
   9923SM   H5F13456   2.118   7.033   4.734  0.6336 -0.7417  0.5246
   9923SM   H5G13457   2.134   6.877   4.810  0.2766  2.1017  2.5326
   9923SM   C6F13458   1.993   7.001   4.909 -0.0246 -0.2185  0.6209
   9923SM   H6F13459   1.917   6.925   4.940  0.8381 -1.2670  0.2221
   9923SM   H6G13460   1.929   7.089   4.887 -0.0375 -0.2347  0.5943
   9923SM   C7F13461   2.095   7.012   5.015 -0.6336  1.0289 -0.3208
   9923SM   H7F13462   2.182   7.077   4.990 -0.5258 -0.0608 -3.1170
   9923SM   H7G13463   2.133   6.908   5.022 -2.1419  0.5346  0.8996
   9923SM   C8F13464   2.042   7.061   5.147  0.4805 -0.0862  0.2690
   9923SM   H8F13465   1.963   6.988   5.177  1.0027 -0.8599 -0.2183
   9923SM   H8G13466   1.997   7.162   5.133 -1.6607 -1.1452 -1.0927
   9923SM   C9F13467   2.154   7.060   5.251 -0.9198  0.0768 -0.3596
   9923SM   H9F13468   2.227   7.137   5.219  0.2856 -0.7648  0.2843
   9923SM   H9G13469   2.215   6.967   5.253 -1.1634 -0.0839 -0.2995
   9923SM  C10F13470   2.109   7.097   5.395 -0.3739 -0.2505 -0.4931
   9923SM  H10F13471   2.063   7.199   5.398 -0.5884 -0.3443  2.5385
   9923SM  H10G13472   2.196   7.114   5.462 -0.5433 -1.2810  0.0002
   9923SM  C11F13473   2.020   6.992   5.456  0.2974  0.2573 -0.1283
   9923SM  H11F13474   2.051   6.893   5.415  1.1931  0.4418  0.0891
   9923SM  H11G13475   1.914   7.000   5.424  0.2478  0.5559  0.1177
   9923SM  C12F13476   2.019   6.986   5.612  0.1366 -0.1784 -0.1665
   9923SM  H12F13477   1.972   7.079   5.648  0.5431  2.5614 -5.6425
   9923SM  H12G13478   2.122   6.978   5.653 -0.3577  1.3081  1.4462
   9923SM  C13F13479   1.934   6.878   5.668  0.9376 -0.7361 -0.1526
   9923SM  H13F13480   1.972   6.784   5.622  3.3288  1.6290 -3.4234
   9923SM  H13G13481   1.829   6.888   5.636  0.5128 -0.3609  1.2833
   9923SM  C14F13482   1.933   6.880   5.814  0.8517 -0.4484 -0.2770
   9923SM  H14F13483   1.905   6.981   5.851  1.6776 -0.0014 -0.8432
   9923SM  H14G13484   2.032   6.865   5.862  1.2836  3.2623  0.2838
   9923SM  C15F13485   1.841   6.775   5.874  0.1776  0.3792 -0.0259
   9923SM  H15F13486   1.861   6.675   5.830  1.0626  0.3341  0.4528
   9923SM  H15G13487   1.733   6.795   5.854  0.5261  1.1285 -1.2635
   9923SM  C16F13488   1.870   6.762   6.027 -0.3898 -0.5870 -0.1116
   9923SM  H16F13489   1.861   6.863   6.071  0.1099  0.9545 -3.2596
   9923SM  H16G13490   1.977   6.735   6.041 -0.2870  0.2477  0.8133
   9923SM  C17F13491   1.778   6.669   6.090  0.3717  0.2755  0.0570
   9923SM  H17F13492   1.759   6.577   6.032  0.7178  0.1893  0.0734
   9923SM  H17G13493   1.679   6.718   6.102  0.3705  0.1951  0.3908
   9923SM  C18F13494   1.802   6.622   6.237  0.0222 -0.1853 -0.3430
   9923SM  H18F13495   1.792   6.707   6.307 -1.6772 -0.4630 -0.2023
   9923SM  H18G13496   1.898   6.572   6.263 -0.5396 -0.7009  0.8353
   9923SM  C19F13497   1.694   6.517   6.281  0.0027 -0.1250 -0.4257
   9923SM  H19F13498   1.688   6.435   6.207 -0.4121  0.3733 -0.9535
   9923SM  H19G13499   1.600   6.576   6.287  1.0831  1.6385 -0.0221
   9923SM  C20F13500   1.714   6.461   6.419  0.3614 -1.1299 -0.1142
   9923SM  H20F13501   1.717   6.542   6.494 -1.1446 -1.3712  0.2396
   9923SM  H20G13502   1.810   6.404   6.421  0.2899 -1.2277  0.8718
   9923SM  C21F13503   1.596   6.362   6.453 -1.3323 -0.4296  0.2375
   9923SM  H21F13504   1.605   6.280   6.379  2.9481 -1.2569  1.3958
   9923SM  H21G13505   1.492   6.402   6.447 -1.9817 -2.1165 -0.2120
   9923SM  C22F13506   1.619   6.274   6.577  0.5712  0.0339 -0.8927
   9923SM  H22F13507   1.720   6.229   6.567  0.5045 -0.1704 -0.6415
   9923SM  H22G13508   1.543   6.193   6.577  1.1445 -0.5095 -0.6539
   9923SM  C23F13509   1.622   6.353   6.708  0.2428  0.2377 -0.2181
   9923SM  H23F13510   1.524   6.402   6.722  0.7492  1.2433 -0.1526
   9923SM  H23G13511   1.693   6.437   6.717 -0.4323  0.9030 -0.9397
   9923SM  H23H13512   1.645   6.281   6.789  2.0596 -0.4105 -1.2547
  10023SM     N13513   1.486   2.014   2.927  0.2847 -0.0418 -0.4762
  10023SM   C1513514   1.539   1.874   2.956 -0.0098 -0.4942 -0.4653
  10023SM  H15A13515   1.554   1.822   2.862  0.7516  0.4327 -0.8801
  10023SM  H15B13516   1.470   1.808   3.006 -0.9443  0.5066 -0.3823
  10023SM  H15C13517   1.637   1.887   2.999 -0.0580  2.6122 -0.9981
  10023SM   C1413518   1.582   2.086   2.833 -0.0331  0.4753 -0.5153
  10023SM  H14A13519   1.673   2.108   2.886  0.6694 -0.5158 -1.2736
  10023SM  H14B13520   1.541   2.177   2.793  0.2162  1.0548  0.5124
  10023SM  H14C13521   1.606   2.019   2.751 -0.5049  1.3625 -1.4092
  10023SM   C1313522   1.362   1.986   2.845  0.0107  0.2765 -0.4665
  10023SM  H13A13523   1.373   1.904   2.776  0.5905 -1.8123  1.9713
  10023SM  H13B13524   1.348   2.073   2.781  0.9245 -0.7482 -2.1323
  10023SM  H13C13525   1.279   1.973   2.913  0.2604  2.9195  0.4630
  10023SM   C1213526   1.446   2.094   3.050 -0.4478 -0.0076 -0.6273
  10023SM  H12A13527   1.398   2.190   3.041 -0.8521  0.1834  2.4977
  10023SM  H12B13528   1.531   2.115   3.113 -1.0136 -2.4113  1.0681
  10023SM   C1113529   1.366   2.023   3.162 -0.1452  0.2995 -0.2683
  10023SM  H11A13530   1.370   2.093   3.248 -3.2085 -0.0953  0.3168
  10023SM  H11B13531   1.417   1.930   3.196 -0.2360  0.2449 -0.2791
  10023SM     P13532   1.161   1.871   3.142  0.4529 -0.0182 -0.4186
  10023SM   O1313533   1.014   1.887   3.152  0.9615 -0.1617 -0.2696
  10023SM   O1413534   1.212   1.778   3.045 -0.4506 -0.3165 -0.1699
  10023SM   O1113535   1.220   1.834   3.286 -0.0012  1.0908 -0.0293
  10023SM   O1213536   1.231   2.015   3.120  0.9576 -0.7008 -0.2025
  10023SM   C1S13537   1.169   1.904   3.399 -0.1517  0.3659  0.2561
  10023SM   H1S13538   1.061   1.879   3.409  0.0161 -1.4949 -1.8181
  10023SM   H1T13539   1.184   2.013   3.382 -1.8970  0.4790 -0.7868
  10023SM    NF13540   1.206   1.963   3.641 -0.1894 -0.3734 -0.1576
  10023SM   HNF13541   1.268   2.036   3.671  0.2487 -0.9636  0.4085
  10023SM   C2S13542   1.259   1.887   3.531  0.8639 -1.1952  0.4089
  10023SM   H2S13543   1.256   1.781   3.564  3.1479 -2.0168 -1.7248
  10023SM   C3S13544   1.417   1.905   3.509  1.1733  0.0212 -0.6726
  10023SM   H3S13545   1.436   2.011   3.483 -0.1477  0.6757  0.8902
  10023SM    O313546   1.474   1.815   3.414 -0.2938 -0.8924  0.5869
  10023SM   HO313547   1.399   1.770   3.373 -1.9513  1.1923  1.1366
  10023SM   C4S13548   1.497   1.879   3.632 -0.0592 -0.4106 -0.4603
  10023SM   H4S13549   1.471   1.789   3.691  0.0848  0.8356  1.5919
  10023SM   C5S13550   1.596   1.954   3.680  0.1111 -0.0901 -0.1195
  10023SM   H5S13551   1.613   2.053   3.634  0.4121 -0.3556 -0.5846
  10023SM   C6S13552   1.664   1.940   3.818 -0.2805  0.1419  1.0469
  10023SM   H6S13553   1.756   2.001   3.828 -1.1574  1.8802 -0.8065
  10023SM   H6T13554   1.700   1.837   3.838 -0.7527 -0.1970  0.2102
  10023SM   C7S13555   1.578   1.984   3.938  0.4031  0.0624  0.6667
  10023SM   H7S13556   1.485   1.925   3.934  2.1815 -2.8806 -0.7413
  10023SM   H7T13557   1.560   2.094   3.939 -1.0077 -0.1619  0.9292
  10023SM   C8S13558   1.639   1.942   4.071 -0.7040 -0.0209  0.1087
  10023SM   H8S13559   1.748   1.966   4.069 -1.1462  2.1929 -0.2061
  10023SM   H8T13560   1.623   1.833   4.087 -1.0158 -0.1234 -0.8475
  10023SM   C9S13561   1.583   2.017   4.184  0.7146  0.1678 -0.3190
  10023SM   H9S13562   1.474   2.002   4.195  0.9592 -0.0172  2.3621
  10023SM   H9T13563   1.602   2.127   4.185  4.5318 -0.3275 -1.2427
  10023SM  C10S13564   1.636   1.972   4.320 -0.0062 -0.2192  0.0433
  10023SM  H10S13565   1.746   1.988   4.314 -0.2697  1.3895 -1.3866
  10023SM  H10T13566   1.615   1.863   4.315 -0.6057 -0.0448 -1.9938
  10023SM  C11S13567   1.565   2.029   4.443 -0.6509  0.2852  0.3219
  10023SM  H11S13568   1.455   2.009   4.446 -1.1779  2.7585  3.2774
  10023SM  H11T13569   1.574   2.139   4.432 -2.0983  0.8463  3.4998
  10023SM  C12S13570   1.627   1.996   4.578 -0.0927 -0.0486 -0.4570
  10023SM  H12S13571   1.735   2.019   4.580  0.1301 -0.9410 -1.2505
  10023SM  H12T13572   1.620   1.887   4.600 -2.3946  0.2359  0.5262
  10023SM  C13S13573   1.553   2.062   4.692 -0.3804 -0.7053 -0.1631
  10023SM  H13S13574   1.603   2.018   4.780 -0.5941 -1.1547 -0.2645
  10023SM  H13T13575   1.447   2.028   4.695  0.2032 -2.6575 -0.2945
  10023SM  C14S13576   1.555   2.220   4.684 -0.1720 -0.0560 -0.0791
  10023SM  H14S13577   1.508   2.262   4.592  0.0961  1.6826  0.5490
  10023SM  H14T13578   1.663   2.245   4.678  0.1558 -1.6796 -2.8032
  10023SM  C15S13579   1.493   2.290   4.805  0.2853 -0.0202 -0.4635
  10023SM  H15S13580   1.388   2.263   4.825 -0.1317  1.0175 -1.1848
  10023SM  H15T13581   1.499   2.400   4.788  1.2471  0.0022 -0.0751
  10023SM  C16S13582   1.577   2.240   4.925  0.2442 -0.0046 -0.7821
  10023SM  H16S13583   1.682   2.230   4.891  0.5126  2.3948 -0.8192
  10023SM  H16T13584   1.537   2.142   4.962  1.4206 -0.4043 -0.5295
  10023SM  C17S13585   1.592   2.351   5.031  0.0815  1.2730  0.4959
  10023SM  H17S13586   1.573   2.452   4.991 -3.2408  0.5714  0.0360
  10023SM  H17T13587   1.692   2.347   5.080 -0.8839 -1.6934  2.5241
  10023SM  C18S13588   1.487   2.328   5.138 -0.1377  0.0196  0.6684
  10023SM  H18S13589   1.387   2.309   5.094  0.2834  1.1168 -0.8743
  10023SM  H18T13590   1.482   2.414   5.207 -0.7570  1.3490 -0.9561
  10023SM  H18U13591   1.515   2.231   5.185 -0.2582 -0.9919 -1.2327
  10023SM   C1F13592   1.085   1.938   3.692 -0.6451 -0.1156 -0.3928
  10023SM    OF13593   1.028   1.836   3.665  0.1175  0.7530 -0.0990
  10023SM   C2F13594   1.029   2.048   3.779  0.5306 -0.7407  0.5265
  10023SM   H2F13595   0.967   2.117   3.717 -0.4788 -0.7449  1.4924
  10023SM   H2G13596   1.107   2.110   3.827 -1.2324  1.8205  0.3104
  10023SM   C3F13597   0.933   1.986   3.888  0.1738  0.1082  0.6103
  10023SM   H3F13598   0.880   1.900   3.840  0.8990 -0.2063  0.3604
  10023SM   H3G13599   0.850   2.057   3.903  0.6045  0.4048  1.6574
  10023SM   C4F13600   1.004   1.948   4.019 -0.3777  0.6193  0.0162
  10023SM   H4F13601   1.079   2.027   4.040  0.3403 -0.7731  3.3882
  10023SM   H4G13602   1.060   1.852   4.007 -0.1562  1.0643 -3.3771
  10023SM   C5F13603   0.910   1.942   4.136  0.2237 -0.0032 -0.2028
  10023SM   H5F13604   0.834   1.864   4.118 -0.0621 -0.7019  3.3206
  10023SM   H5G13605   0.858   2.040   4.148  2.0868  0.9328  0.7036
  10023SM   C6F13606   0.980   1.919   4.272  0.2414 -0.2042  0.2787
  10023SM   H6F13607   1.057   1.998   4.283 -0.4008  0.7025 -1.4245
  10023SM   H6G13608   1.027   1.824   4.240 -1.7956 -1.5119  0.9617
  10023SM   C7F13609   0.883   1.916   4.391  1.1497  0.0526 -0.6682
  10023SM   H7F13610   0.783   1.877   4.364  1.2537 -0.3472 -0.4809
  10023SM   H7G13611   0.865   2.017   4.435  1.1557 -1.3262  2.8652
  10023SM   C8F13612   0.924   1.815   4.501 -0.1644 -0.3336  0.0766
  10023SM   H8F13613   1.027   1.834   4.538 -0.4684  1.2603  0.1681
  10023SM   H8G13614   0.923   1.715   4.452  1.1690 -0.8376  1.0136
  10023SM   C9F13615   0.827   1.809   4.620 -0.7709 -0.2770 -0.3589
  10023SM   H9F13616   0.723   1.774   4.602 -1.2342  0.8784 -0.0383
  10023SM   H9G13617   0.813   1.910   4.664 -1.8357  0.7269 -2.8080
  10023SM  C10F13618   0.878   1.717   4.732  0.3575 -0.4556  0.2013
  10023SM  H10F13619   0.989   1.717   4.725  0.4517  0.5387  1.2157
  10023SM  H10G13620   0.841   1.613   4.726  0.2748 -0.4861  1.0655
  10023SM  C11F13621   0.829   1.776   4.867  1.0023  0.1665 -0.4183
  10023SM  H11F13622   0.719   1.787   4.857  0.5299 -0.4002  2.9021
  10023SM  H11G13623   0.886   1.871   4.863 -0.4506  1.0519 -1.1419
  10023SM  C12F13624   0.861   1.690   4.993 -0.3740 -0.0108  0.1765
  10023SM  H12F13625   0.968   1.662   4.992 -0.5407 -0.7077  0.8654
  10023SM  H12G13626   0.816   1.588   4.993 -1.8683  0.5990  2.1152
  10023SM  C13F13627   0.840   1.756   5.132 -0.0290  0.1463  0.0153
  10023SM  H13F13628   0.732   1.779   5.127 -0.6108 -2.5208 -3.5057
  10023SM  H13G13629   0.903   1.847   5.145 -0.5587  0.5988 -0.5182
  10023SM  C14F13630   0.879   1.658   5.250  0.9472 -0.5484 -0.2753
  10023SM  H14F13631   0.984   1.623   5.247  0.9880 -0.3645 -1.2206
  10023SM  H14G13632   0.812   1.571   5.230  0.5134  0.3884 -3.4361
  10023SM  C15F13633   0.846   1.714   5.387  0.0751 -0.2864  0.1362
  10023SM  H15F13634   0.738   1.741   5.382  0.1360 -0.2277 -1.4350
  10023SM  H15G13635   0.908   1.805   5.397  1.0340 -0.3110 -4.0457
  10023SM  C16F13636   0.871   1.612   5.494 -1.7516 -0.4806 -1.6485
  10023SM  H16F13637   0.973   1.572   5.477 -0.6656  2.0478 -1.6216
  10023SM  H16G13638   0.803   1.526   5.477 -1.7830 -0.5786 -1.0462
  10023SM  C17F13639   0.860   1.673   5.631 -0.4482 -0.3202  0.0673
  10023SM  H17F13640   0.764   1.728   5.639 -0.3218 -0.0429 -0.2827
  10023SM  H17G13641   0.943   1.747   5.639 -0.6186 -0.2436  1.4205
  10023SM  C18F13642   0.885   1.574   5.751  0.4907 -0.4616 -0.8502
  10023SM  H18F13643   0.979   1.520   5.728  0.1610 -0.9205 -1.1360
  10023SM  H18G13644   0.803   1.501   5.735 -1.7833  2.2886 -3.0876
  10023SM  C19F13645   0.889   1.650   5.886 -0.3337  0.4549 -0.1379
  10023SM  H19F13646   0.975   1.719   5.900 -0.0358 -0.4349  3.2780
  10023SM  H19G13647   0.889   1.570   5.963  0.4046  0.7686  0.2002
  10023SM  C20F13648   0.757   1.728   5.916  0.1170 -0.1550  0.3763
  10023SM  H20F13649   0.665   1.669   5.898 -0.3629  0.3634  1.0693
  10023SM  H20G13650   0.748   1.810   5.841  2.7581  0.1222  0.2695
  10023SM  C21F13651   0.768   1.785   6.061 -0.4959  0.3114  0.2054
  10023SM  H21F13652   0.849   1.860   6.072  1.2630 -1.2463 -1.2093
  10023SM  H21G13653   0.803   1.697   6.120 -0.3464 -0.3021 -0.7682
  10023SM  C22F13654   0.645   1.847   6.122 -0.0560  0.2507  0.2253
  10023SM  H22F13655   0.556   1.839   6.056 -1.6383  0.0046  2.2992
  10023SM  H22G13656   0.666   1.955   6.135 -1.1376  1.1684 -4.1092
  10023SM  C23F13657   0.596   1.789   6.254  0.7233  0.4969 -0.8213
  10023SM  H23F13658   0.676   1.783   6.330 -0.7353 -0.2928  0.7176
  10023SM  H23G13659   0.574   1.682   6.233 -0.8236  0.8087 -0.9472
  10023SM  H23H13660   0.513   1.849   6.297  0.9081  0.4679 -0.4265
  101CHL1    C313661   3.253   6.066   8.450  0.4887  0.3713 -0.3752
  101CHL1    H313662   3.245   6.176   8.435 -1.7236  0.4956  1.2014
  101CHL1    O313663   3.287   6.047   8.581  0.0133 -0.0349 -0.3753
  101CHL1   H3'13664   3.299   5.953   8.596  1.1882  0.3710  1.6241
  101CHL1    C413665   3.115   6.006   8.428 -0.3322  0.1183 -0.1071
  101CHL1   H4A13666   3.108   5.906   8.477 -2.1497  0.1147 -0.2807
  101CHL1   H4B13667   3.047   6.075   8.482  0.7890  1.6889 -0.6266
  101CHL1    C513668   3.090   6.001   8.274  0.3704  0.0393 -0.0378
  101CHL1    C613669   2.975   6.065   8.233 -0.2250  0.3570  0.5622
  101CHL1    H613670   2.923   6.124   8.310 -1.1520 -0.5882  0.6768
  101CHL1    C713671   2.924   6.070   8.093 -0.3561  0.0741 -0.6545
  101CHL1   H7A13672   2.814   6.063   8.081 -0.2893  0.5367 -1.6474
  101CHL1   H7B13673   2.955   6.171   8.060 -0.9790 -0.0177 -1.5529
  101CHL1    C813674   2.996   5.965   8.004 -0.6156  0.8323 -0.1479
  101CHL1    H813675   2.954   5.864   8.024  0.1163  0.2768 -1.3481
  101CHL1   C1413676   2.970   5.999   7.856 -0.3913 -0.4455 -1.0666
  101CHL1   H1413677   3.003   6.103   7.838 -4.4189  0.6474 -3.4519
  101CHL1   C1513678   2.820   6.020   7.812 -0.6169  0.3926 -1.4942
  101CHL1  H15A13679   2.758   5.946   7.867 -0.7560  2.1551  0.8808
  101CHL1  H15B13680   2.783   6.117   7.851 -0.5750 -0.8919  2.1101
  101CHL1   C1613681   2.825   6.020   7.655 -1.0602 -0.5195  0.4233
  101CHL1  H16A13682   2.747   5.957   7.608 -1.0466  0.3614 -0.8370
  101CHL1  H16B13683   2.804   6.126   7.631  1.7872  0.3022  1.1188
  101CHL1   C1713684   2.968   5.971   7.619  0.1456 -0.3089 -0.1542
  101CHL1   H1713685   3.026   6.063   7.599 -3.4507  2.0731 -0.4794
  101CHL1   C1313686   3.031   5.907   7.753  0.9006 -0.9572  0.5882
  101CHL1   C1813687   2.978   5.762   7.769 -0.3933  0.0433 -0.0275
  101CHL1  H18A13688   2.868   5.761   7.750 -0.4081  2.0404 -0.2739
  101CHL1  H18B13689   3.028   5.692   7.699  3.0469 -0.0958  2.3391
  101CHL1  H18C13690   3.011   5.706   7.859 -2.2409  0.2105  0.7972
  101CHL1   C1213691   3.184   5.910   7.777  0.0637  0.4662  0.3561
  101CHL1  H12A13692   3.241   5.843   7.710  0.3047 -0.7447  1.7347
  101CHL1  H12B13693   3.213   6.017   7.768 -0.6345  0.6541  0.3024
  101CHL1   C1113694   3.220   5.880   7.925  0.0725  0.4879 -0.5914
  101CHL1  H11A13695   3.195   5.776   7.955 -0.7619  0.1454 -2.3616
  101CHL1  H11B13696   3.330   5.893   7.936 -0.1340  1.2534  0.9427
  101CHL1    C913697   3.150   5.971   8.034  0.1779 -0.1712  0.8959
  101CHL1    H913698   3.185   6.075   8.017 -0.6086 -0.0143  0.1009
  101CHL1   C1013699   3.188   5.939   8.177  0.7353 -0.3267 -0.3389
  101CHL1   C1913700   3.178   5.788   8.211 -0.0562  0.1958 -0.4639
  101CHL1  H19A13701   3.173   5.758   8.318 -0.2888 -0.6892 -0.7119
  101CHL1  H19B13702   3.086   5.746   8.165  1.4363 -1.5195 -1.9988
  101CHL1  H19C13703   3.264   5.737   8.163 -0.0635 -0.0065 -0.2628
  101CHL1    C113704   3.324   6.000   8.217  0.0161  0.3682  0.0899
  101CHL1   H1A13705   3.403   5.949   8.158 -1.5990 -2.3679  0.1535
  101CHL1   H1B13706   3.325   6.107   8.186  1.0130  0.2962 -0.1813
  101CHL1    C213707   3.362   5.995   8.365  0.0996  0.4177 -0.1023
  101CHL1   H2A13708   3.463   6.041   8.374  0.8874 -0.8312 -1.9280
  101CHL1   H2B13709   3.378   5.890   8.397 -0.6777  0.3544  0.1151
  101CHL1   C2013710   2.978   5.888   7.491 -0.0894  0.4275 -0.2738
  101CHL1   H2013711   2.933   5.790   7.517  0.8528  0.3576  1.1724
  101CHL1   C2113712   3.124   5.858   7.449  0.0379 -0.3094 -0.2654
  101CHL1  H21A13713   3.114   5.804   7.352  2.2076  0.1738 -0.7983
  101CHL1  H21B13714   3.178   5.796   7.523  0.0831 -0.0421 -0.0732
  101CHL1  H21C13715   3.171   5.956   7.428 -1.9069  1.0952  1.5170
  101CHL1   C2213716   2.896   5.953   7.370  0.4218  0.0032 -0.1665
  101CHL1  H22A13717   2.907   5.890   7.279  2.7141 -1.0269  0.7572
  101CHL1  H22B13718   2.786   5.950   7.385  0.4939  0.6202  0.5258
  101CHL1   C2313719   2.929   6.093   7.314 -0.3081 -0.0050 -0.4035
  101CHL1  H23A13720   2.945   6.159   7.402 -0.3254 -1.1660  0.4930
  101CHL1  H23B13721   3.017   6.075   7.248 -0.0364  0.0188 -0.0481
  101CHL1   C2413722   2.820   6.158   7.225  0.3965  1.0121 -0.2995
  101CHL1  H24A13723   2.755   6.077   7.185  0.4249  1.3541 -1.0598
  101CHL1  H24B13724   2.746   6.202   7.296  0.5320 -0.0476  0.5217
  101CHL1   C2513725   2.865   6.251   7.113  0.7652  0.0920  0.5556
  101CHL1   H2513726   2.939   6.194   7.052 -1.1355  0.9223 -2.8233
  101CHL1   C2613727   2.754   6.274   7.007 -0.0987  0.1205  0.3807
  101CHL1  H26A13728   2.707   6.176   6.983  0.2764  0.0265  0.0154
  101CHL1  H26B13729   2.679   6.348   7.041 -2.2014 -2.3887  1.5345
  101CHL1  H26C13730   2.806   6.296   6.911 -0.4122 -1.9307 -0.3088
  101CHL1   C2713731   2.929   6.374   7.180 -0.0480  0.0641 -0.0602
  101CHL1  H27A13732   2.964   6.461   7.120 -0.9208  1.1303  0.9165
  101CHL1  H27B13733   2.862   6.427   7.251 -1.4059 -0.9803 -0.5271
  101CHL1  H27C13734   3.012   6.332   7.241 -0.3771 -3.1866 -1.6403
  102CHL1    C313735   4.621   6.386   8.548 -0.1122 -0.2985 -0.0750
  102CHL1    H313736   4.519   6.347   8.567  0.2059  0.1792  3.1792
  102CHL1    O313737   4.683   6.401   8.677  0.4335 -0.2835 -0.2323
  102CHL1   H3'13738   4.760   6.458   8.668  0.1411  0.0348 -0.6846
  102CHL1    C413739   4.714   6.295   8.464  0.2657  0.5279  0.0113
  102CHL1   H4A13740   4.816   6.338   8.455  1.0029 -0.7064  1.8701
  102CHL1   H4B13741   4.738   6.198   8.513 -0.2275  0.1663 -0.4370
  102CHL1    C513742   4.639   6.265   8.328 -0.4722 -0.1137 -1.1724
  102CHL1    C613743   4.612   6.137   8.289  0.0024 -0.4549  0.4340
  102CHL1    H613744   4.645   6.051   8.350  1.7247 -2.0332 -2.5035
  102CHL1    C713745   4.554   6.096   8.159 -0.1623  0.3725 -0.2048
  102CHL1   H7A13746   4.604   6.010   8.109 -2.4227 -0.1278 -1.7444
  102CHL1   H7B13747   4.447   6.070   8.175  0.0431 -0.5685 -0.2966
  102CHL1    C813748   4.564   6.219   8.064 -0.0645 -0.5103  0.2714
  102CHL1    H813749   4.668   6.219   8.026 -0.4093 -3.0838 -0.8869
  102CHL1   C1413750   4.480   6.196   7.931  0.2878  0.3378  0.2817
  102CHL1   H1413751   4.376   6.206   7.969  0.6503  0.2254  1.3372
  102CHL1   C1513752   4.483   6.057   7.865  0.3313  0.1265  0.2600
  102CHL1  H15A13753   4.587   6.025   7.843  0.2421  1.0789 -1.7800
  102CHL1  H15B13754   4.423   5.986   7.927  0.0842  0.8318  0.8442
  102CHL1   C1613755   4.415   6.078   7.728  0.1675  0.3882  0.4704
  102CHL1  H16A13756   4.465   6.034   7.640 -0.2491  2.6946 -1.0077
  102CHL1  H16B13757   4.311   6.039   7.727  0.3938 -0.4701 -3.3163
  102CHL1   C1713758   4.402   6.238   7.709  0.3733  0.8613  0.0305
  102CHL1   H1713759   4.304   6.263   7.756  0.0181 -0.7922  0.2357
  102CHL1   C1313760   4.500   6.296   7.814 -0.3074  0.1951 -0.2880
  102CHL1   C1813761   4.642   6.279   7.751 -0.3860  0.9782 -0.1296
  102CHL1  H18A13762   4.665   6.176   7.715 -0.3398  0.9313  0.0334
  102CHL1  H18B13763   4.655   6.354   7.670  1.0129  0.3939 -0.4813
  102CHL1  H18C13764   4.717   6.301   7.829 -0.8544  0.2239  0.5538
  102CHL1   C1213765   4.473   6.437   7.875  0.0307 -0.1721 -0.0654
  102CHL1  H12A13766   4.502   6.525   7.814  3.4102 -0.1363  1.3631
  102CHL1  H12B13767   4.367   6.426   7.907  0.0087 -1.0819 -0.4008
  102CHL1   C1113768   4.538   6.471   8.011  0.2846  0.8473  0.1456
  102CHL1  H11A13769   4.645   6.487   7.986  1.0233 -1.7886  1.2416
  102CHL1  H11B13770   4.498   6.562   8.060 -0.0676  0.5609  0.4036
  102CHL1    C913771   4.532   6.355   8.122  0.1077 -0.5374 -0.3353
  102CHL1    H913772   4.425   6.346   8.152 -1.1300  0.9636 -3.7921
  102CHL1   C1013773   4.612   6.394   8.252 -0.0948 -0.5295  0.1114
  102CHL1   C1913774   4.747   6.458   8.213  0.2223  0.2036 -0.6180
  102CHL1  H19A13775   4.793   6.387   8.142  1.2896  2.0735 -1.8901
  102CHL1  H19B13776   4.739   6.561   8.171 -1.7525 -0.6557 -2.5308
  102CHL1  H19C13777   4.816   6.478   8.298 -0.8568  0.5022  0.2190
  102CHL1    C113778   4.536   6.498   8.343  0.3650 -0.0089 -0.6119
  102CHL1   H1A13779   4.527   6.600   8.298  5.4975  0.6620 -0.7475
  102CHL1   H1B13780   4.437   6.456   8.371 -0.1089  2.2852  1.5077
  102CHL1    C213781   4.603   6.521   8.483  0.0902 -0.0870  0.2680
  102CHL1   H2A13782   4.531   6.585   8.537 -0.3523 -0.0010 -0.4050
  102CHL1   H2B13783   4.694   6.581   8.462 -0.2181 -0.3773 -2.3219
  102CHL1   C2013784   4.391   6.288   7.573 -0.4524  0.4795  0.2414
  102CHL1   H2013785   4.493   6.309   7.533 -0.3566 -0.1955  0.1218
  102CHL1   C2113786   4.304   6.418   7.578  0.0775 -0.7191  0.3204
  102CHL1  H21A13787   4.311   6.476   7.483  0.6011  3.4410  2.6900
  102CHL1  H21B13788   4.348   6.487   7.653 -2.3816  1.6425 -0.2559
  102CHL1  H21C13789   4.200   6.406   7.615  0.9070  1.9395  4.1445
  102CHL1   C2213790   4.337   6.182   7.474 -0.3893  0.2199  0.4034
  102CHL1  H22A13791   4.406   6.096   7.458  2.2302  2.5730 -1.8795
  102CHL1  H22B13792   4.250   6.149   7.536  0.0009  0.2830  0.9941
  102CHL1   C2313793   4.305   6.246   7.338 -0.7443 -0.4829  0.3239
  102CHL1  H23A13794   4.219   6.316   7.348  0.7758  1.8893 -1.9173
  102CHL1  H23B13795   4.386   6.310   7.297 -2.8232  1.9389 -0.2419
  102CHL1   C2413796   4.270   6.135   7.234 -0.1667  0.4576  0.6699
  102CHL1  H24A13797   4.341   6.050   7.232 -0.8400 -0.1007  0.0256
  102CHL1  H24B13798   4.169   6.100   7.264 -0.0201  0.2365  0.9123
  102CHL1   C2513799   4.261   6.183   7.089  0.3600 -0.2855  0.4668
  102CHL1   H2513800   4.363   6.184   7.046  0.5767  3.4375  0.7548
  102CHL1   C2613801   4.186   6.086   7.001 -0.2515 -0.3207 -0.4809
  102CHL1  H26A13802   4.084   6.062   7.040 -0.8063  0.5475 -1.3405
  102CHL1  H26B13803   4.170   6.131   6.901 -0.7441 -1.5548 -0.9800
  102CHL1  H26C13804   4.250   5.997   6.988 -0.7895 -1.0574  1.5257
  102CHL1   C2713805   4.208   6.324   7.072  0.3844 -0.0047 -0.0444
  102CHL1  H27A13806   4.217   6.356   6.966  3.7418  0.7395  0.3501
  102CHL1  H27B13807   4.103   6.341   7.103  0.7173  0.1459  1.0530
  102CHL1  H27C13808   4.284   6.389   7.121  1.3592  0.2070 -1.7218
  103CHL1    C313809   6.112   5.768   7.819 -0.2759 -0.2836 -0.5866
  103CHL1    H313810   6.018   5.816   7.785 -1.3094 -1.0037  1.1263
  103CHL1    O313811   6.102   5.743   7.956  0.2881 -0.1673 -0.4463
  103CHL1   H3'13812   6.157   5.803   8.006 -1.8770 -0.7461  2.9725
  103CHL1    C413813   6.131   5.638   7.737 -0.2239  0.4307  0.4480
  103CHL1   H4A13814   6.222   5.590   7.779 -0.6871  0.5071  1.5736
  103CHL1   H4B13815   6.053   5.563   7.760 -0.7231 -0.4805 -3.4373
  103CHL1    C513816   6.148   5.653   7.583  0.5129 -0.2201  0.0406
  103CHL1    C613817   6.071   5.594   7.498  0.3477  0.1005  0.6501
  103CHL1    H613818   5.984   5.530   7.517 -0.3726  0.2794 -1.6825
  103CHL1    C713819   6.087   5.609   7.345  0.2866 -0.4687 -0.4654
  103CHL1   H7A13820   6.092   5.514   7.288  1.3370  0.0778 -1.3458
  103CHL1   H7B13821   6.008   5.671   7.298  1.0433  0.9309  0.0327
  103CHL1    C813822   6.219   5.678   7.310  0.6326 -0.2033  0.1000
  103CHL1    H813823   6.303   5.607   7.319 -0.0497 -1.0835 -0.2799
  103CHL1   C1413824   6.219   5.716   7.163  0.1159 -0.0733 -0.1422
  103CHL1   H1413825   6.132   5.783   7.150 -0.2073 -0.4327  0.1652
  103CHL1   C1513826   6.199   5.600   7.058  0.1226  0.7616 -0.0369
  103CHL1  H15A13827   6.265   5.516   7.089 -0.2298  0.8289  0.9116
  103CHL1  H15B13828   6.091   5.576   7.066  0.5759 -1.9163 -0.9647
  103CHL1   C1613829   6.243   5.661   6.931 -0.2983 -0.5290  0.1588
  103CHL1  H16A13830   6.317   5.595   6.880 -0.7184 -1.5552  0.8283
  103CHL1  H16B13831   6.167   5.680   6.852  0.7898 -0.1466 -0.8092
  103CHL1   C1713832   6.303   5.810   6.960  0.0549  0.5173 -0.8399
  103CHL1   H1713833   6.218   5.880   6.956 -0.5307 -0.1548 -0.2950
  103CHL1   C1313834   6.338   5.797   7.114 -0.3177  0.1184  0.8474
  103CHL1   C1813835   6.467   5.713   7.129 -0.0123  0.0518 -0.8143
  103CHL1  H18A13836   6.478   5.660   7.226  2.5798 -1.1213 -1.6581
  103CHL1  H18B13837   6.485   5.632   7.055 -2.3115 -3.8622  2.4693
  103CHL1  H18C13838   6.558   5.776   7.118 -0.2580  0.1953 -2.3209
  103CHL1   C1213839   6.346   5.928   7.190  0.0587  0.1271  0.3914
  103CHL1  H12A13840   6.426   5.999   7.161 -0.1840  0.5593  0.7738
  103CHL1  H12B13841   6.251   5.980   7.169  0.1529  0.1758  0.0879
  103CHL1   C1113842   6.353   5.901   7.343  0.1604 -0.0770 -0.4147
  103CHL1  H11A13843   6.447   5.846   7.363  0.1319 -0.9328 -2.4079
  103CHL1  H11B13844   6.347   5.997   7.399 -2.2043 -0.7639  0.6345
  103CHL1    C913845   6.239   5.803   7.404 -0.1234 -0.6496  0.0269
  103CHL1    H913846   6.155   5.876   7.400  1.7061  1.5425 -1.0719
  103CHL1   C1013847   6.251   5.759   7.552 -0.3562 -0.2226 -0.2186
  103CHL1   C1913848   6.389   5.698   7.585  0.3399 -0.3462  0.0527
  103CHL1  H19A13849   6.412   5.603   7.533  1.1295 -2.0597  3.3075
  103CHL1  H19B13850   6.473   5.764   7.554  2.1918 -2.7417 -0.3378
  103CHL1  H19C13851   6.409   5.666   7.689  0.6026  0.0370  0.1239
  103CHL1    C113852   6.232   5.893   7.631  0.7932  1.1185  0.7018
  103CHL1   H1A13853   6.316   5.962   7.608 -0.1689  2.1801  0.2976
  103CHL1   H1B13854   6.144   5.952   7.596 -1.4100 -2.4495 -0.3263
  103CHL1    C213855   6.222   5.872   7.783 -0.2574  0.0109 -0.3307
  103CHL1   H2A13856   6.204   5.975   7.820  0.7258  0.5948 -1.4030
  103CHL1   H2B13857   6.319   5.830   7.816 -0.6534 -0.3727  0.3632
  103CHL1   C2013858   6.419   5.845   6.862 -0.4130  0.4972  0.5926
  103CHL1   H2013859   6.499   5.767   6.866 -0.3099  0.5684 -0.0169
  103CHL1   C2113860   6.480   5.977   6.890 -0.3931  0.0749  0.1713
  103CHL1  H21A13861   6.396   6.049   6.882  0.0025  0.3271 -3.0715
  103CHL1  H21B13862   6.555   6.005   6.813 -1.1238 -1.2175 -1.0624
  103CHL1  H21C13863   6.525   5.977   6.992 -1.2831 -0.2916  0.5772
  103CHL1   C2213864   6.382   5.838   6.712  0.2340  0.5202  0.6850
  103CHL1  H22A13865   6.471   5.869   6.654  1.1625  1.2832  2.4588
  103CHL1  H22B13866   6.366   5.728   6.700 -1.3319  0.5901  1.7604
  103CHL1   C2313867   6.256   5.906   6.666 -0.0089 -0.3202  0.2587
  103CHL1  H23A13868   6.167   5.857   6.713 -1.3410  2.7214  1.1652
  103CHL1  H23B13869   6.250   6.009   6.706 -3.1795  0.0434 -0.8498
  103CHL1   C2413870   6.247   5.904   6.517  0.0030 -0.2368  0.6244
  103CHL1  H24A13871   6.322   5.976   6.476 -0.3554 -0.5836 -0.6990
  103CHL1  H24B13872   6.270   5.799   6.487  1.8791  0.9907 -2.9406
  103CHL1   C2513873   6.112   5.934   6.455 -0.9433 -0.6311  0.3449
  103CHL1   H2513874   6.084   6.024   6.513 -1.7624 -0.1378 -0.7756
  103CHL1   C2613875   6.130   5.968   6.303 -0.4140  0.5607 -0.3385
  103CHL1  H26A13876   6.111   6.077   6.301  0.6125  0.8109  1.2414
  103CHL1  H26B13877   6.231   5.954   6.258 -1.0620 -0.0327 -1.6596
  103CHL1  H26C13878   6.065   5.906   6.238  0.4113  0.3757 -1.0065
  103CHL1   C2713879   6.003   5.827   6.484 -0.3258 -0.9725  0.0134
  103CHL1  H27A13880   5.916   5.864   6.426  0.8924 -0.4297 -1.5291
  103CHL1  H27B13881   6.042   5.731   6.445  1.3103 -0.3011 -0.0778
  103CHL1  H27C13882   5.965   5.824   6.589 -0.6156 -1.1796 -0.0951
  104CHL1    C313883   0.287   4.560   7.871  0.0940 -0.2602 -0.2346
  104CHL1    H313884   0.197   4.518   7.820  0.6714 -0.8521 -0.7894
  104CHL1    O313885   0.277   4.532   8.011 -0.3620 -0.4927 -0.1536
  104CHL1   H3'13886   0.254   4.440   8.024  3.1492 -1.2951  1.5935
  104CHL1    C413887   0.424   4.497   7.821  0.5239 -0.2105 -0.4099
  104CHL1   H4A13888   0.509   4.512   7.890  0.2717 -1.1054  0.1097
  104CHL1   H4B13889   0.399   4.389   7.826 -0.5278  0.0588  3.6893
  104CHL1    C513890   0.454   4.533   7.677 -0.0133 -0.4154  0.3636
  104CHL1    C613891   0.478   4.440   7.587  0.0742 -0.4142 -0.1262
  104CHL1    H613892   0.475   4.333   7.612  2.8575 -0.2418  1.3281
  104CHL1    C713893   0.514   4.479   7.447 -0.2491 -0.1313 -0.0384
  104CHL1   H7A13894   0.603   4.422   7.414 -0.7228 -0.7135 -0.3418
  104CHL1   H7B13895   0.430   4.448   7.380 -0.5020  0.3104  0.0701
  104CHL1    C813896   0.538   4.626   7.422 -0.3836 -0.2620 -0.3973
  104CHL1    H813897   0.638   4.642   7.469  0.5521 -2.2437 -1.5826
  104CHL1   C1413898   0.537   4.660   7.273 -0.3552  0.2901 -0.6831
  104CHL1   H1413899   0.438   4.648   7.223  0.1002  2.8465 -2.4146
  104CHL1   C1513900   0.626   4.570   7.185 -0.4631 -0.3642  0.7072
  104CHL1  H15A13901   0.727   4.560   7.231  0.0076 -0.6933 -0.3467
  104CHL1  H15B13902   0.590   4.466   7.171  0.8868 -0.5737 -1.9088
  104CHL1   C1613903   0.623   4.646   7.057 -0.3491 -0.2061  0.0942
  104CHL1  H16A13904   0.726   4.649   7.017 -0.0859  0.4219  0.8119
  104CHL1  H16B13905   0.566   4.594   6.977  0.4243 -0.8503 -0.0472
  104CHL1   C1713906   0.567   4.795   7.079 -0.0664  0.5054  0.0428
  104CHL1   H1713907   0.461   4.776   7.052 -0.1124 -0.8699  1.0651
  104CHL1   C1313908   0.574   4.808   7.232 -0.5564 -0.2558 -0.0469
  104CHL1   C1813909   0.719   4.842   7.276 -0.5943 -0.3318  0.0773
  104CHL1  H18A13910   0.736   4.949   7.255  0.5783 -0.6310 -0.5899
  104CHL1  H18B13911   0.745   4.823   7.382  0.4859 -0.6858 -0.2353
  104CHL1  H18C13912   0.794   4.787   7.216  1.6776  0.9323  1.6097
  104CHL1   C1213913   0.468   4.900   7.307  0.0531  0.2995  0.8075
  104CHL1  H12A13914   0.494   5.008   7.304  3.2421 -0.3658 -0.3761
  104CHL1  H12B13915   0.366   4.881   7.268  0.5534 -1.5433  0.2763
  104CHL1   C1113916   0.471   4.864   7.461 -0.2216  0.0031 -0.2606
  104CHL1  H11A13917   0.569   4.902   7.494 -0.4320  1.9805 -1.7496
  104CHL1  H11B13918   0.400   4.934   7.510  0.2392  0.4962 -0.2932
  104CHL1    C913919   0.443   4.714   7.493  1.1117 -0.4176 -0.7240
  104CHL1    H913920   0.342   4.697   7.449  0.3225  1.3717  0.3100
  104CHL1   C1013921   0.447   4.686   7.648  0.3842 -0.2421  0.3775
  104CHL1   C1913922   0.561   4.744   7.728 -0.1648 -0.2048 -0.2059
  104CHL1  H19A13923   0.576   4.723   7.836 -1.1613  0.2026  0.0179
  104CHL1  H19B13924   0.662   4.739   7.682 -0.3339  0.0133 -0.6110
  104CHL1  H19C13925   0.540   4.853   7.725 -1.3487 -0.3929  0.6301
  104CHL1    C113926   0.311   4.747   7.705 -1.0075  0.5844 -0.3049
  104CHL1   H1A13927   0.309   4.858   7.702  0.4544  0.7267  2.0744
  104CHL1   H1B13928   0.219   4.705   7.658  0.3817 -1.2256 -1.5506
  104CHL1    C213929   0.296   4.707   7.851 -0.6329 -0.9581  0.1907
  104CHL1   H2A13930   0.200   4.741   7.895  0.6248  2.3568  0.6641
  104CHL1   H2B13931   0.379   4.751   7.911 -0.5029 -0.3087 -0.4598
  104CHL1   C2013932   0.619   4.901   6.991 -0.4545  0.1472  0.1715
  104CHL1   H2013933   0.714   4.939   7.036 -0.4900 -0.2493  0.5882
  104CHL1   C2113934   0.512   5.009   6.985  0.3012 -0.0332  0.3400
  104CHL1  H21A13935   0.546   5.079   6.906  2.4120  0.1868  1.3677
  104CHL1  H21B13936   0.501   5.066   7.080 -1.6497  0.8436 -0.3663
  104CHL1  H21C13937   0.415   4.964   6.957 -0.3626  1.4492  0.1635
  104CHL1   C2213938   0.660   4.864   6.848  0.6025  0.0425  0.0947
  104CHL1  H22A13939   0.706   4.947   6.791  0.9940 -0.7215 -0.7343
  104CHL1  H22B13940   0.742   4.789   6.848  1.2464  0.6528 -2.3930
  104CHL1   C2313941   0.551   4.810   6.748 -0.4821  0.1831  0.1613
  104CHL1  H23A13942   0.508   4.719   6.794  0.7623 -1.0481 -0.9789
  104CHL1  H23B13943   0.473   4.889   6.735 -0.2769  0.0596 -2.4336
  104CHL1   C2413944   0.617   4.767   6.615  0.5644 -0.0619 -0.4769
  104CHL1  H24A13945   0.662   4.860   6.574  1.1025 -0.7204 -1.4169
  104CHL1  H24B13946   0.698   4.694   6.637 -0.5199 -2.1497 -2.9632
  104CHL1   C2513947   0.531   4.700   6.509  0.0681 -0.5148  0.5819
  104CHL1   H2513948   0.441   4.764   6.490  1.5004  0.6742 -3.0312
  104CHL1   C2613949   0.607   4.704   6.369  1.0119 -0.2137  0.2603
  104CHL1  H26A13950   0.606   4.811   6.336 -1.9067  0.3627  1.8548
  104CHL1  H26B13951   0.712   4.670   6.375  0.8071 -1.3968 -1.8454
  104CHL1  H26C13952   0.562   4.636   6.294  0.2724 -0.8865  1.2820
  104CHL1   C2713953   0.491   4.556   6.544 -0.1414 -0.1342 -0.4429
  104CHL1  H27A13954   0.416   4.517   6.473  1.0030 -1.1641 -1.1151
  104CHL1  H27B13955   0.579   4.489   6.549 -1.5307 -2.0456 -0.7019
  104CHL1  H27C13956   0.444   4.548   6.644 -2.3523  3.2737 -1.0502
  105CHL1    C313957   5.655   6.690   7.839 -0.2364 -0.7945 -0.4642
  105CHL1    H313958   5.557   6.743   7.841  0.8169  1.2316 -0.3790
  105CHL1    O313959   5.710   6.709   7.969  0.7780  0.0592 -0.4164
  105CHL1   H3'13960   5.768   6.634   7.982  0.7985  0.1520  0.0595
  105CHL1    C413961   5.640   6.535   7.808  0.3713 -0.0978  0.9636
  105CHL1   H4A13962   5.735   6.489   7.844  0.8733 -0.0000 -0.2076
  105CHL1   H4B13963   5.554   6.495   7.867 -1.0507 -0.8769 -1.4842
  105CHL1    C513964   5.623   6.517   7.654  0.6666  0.8059  0.0112
  105CHL1    C613965   5.520   6.458   7.598  0.2487  0.0308 -0.0551
  105CHL1    H613966   5.440   6.405   7.652  0.1123 -0.2198 -0.5002
  105CHL1    C713967   5.509   6.424   7.448 -0.6874 -0.0985  0.5980
  105CHL1   H7A13968   5.496   6.314   7.440  0.5693 -0.2378  0.3499
  105CHL1   H7B13969   5.409   6.464   7.419 -0.7018 -0.1816  0.5338
  105CHL1    C813970   5.629   6.465   7.361  0.2278  0.0352 -0.2157
  105CHL1    H813971   5.706   6.387   7.378  0.0561 -0.0992 -0.0552
  105CHL1   C1413972   5.580   6.478   7.221 -0.1433 -0.4636 -0.7286
  105CHL1   H1413973   5.500   6.555   7.227 -0.7492 -1.1818  1.0708
  105CHL1   C1513974   5.513   6.353   7.151  0.1814 -0.0778 -0.1903
  105CHL1  H15A13975   5.559   6.256   7.178 -1.8090 -1.6983 -2.2257
  105CHL1  H15B13976   5.409   6.357   7.192  1.2457  0.6630  2.7066
  105CHL1   C1613977   5.534   6.383   7.005 -0.4707  0.1352  0.3315
  105CHL1  H16A13978   5.588   6.296   6.963  0.8030  1.0467  0.0308
  105CHL1  H16B13979   5.438   6.374   6.949 -0.2027  0.8644 -0.2538
  105CHL1   C1713980   5.607   6.525   6.988 -0.4036  0.7111  0.3108
  105CHL1   H1713981   5.535   6.608   7.001 -1.2140 -0.4278  4.5274
  105CHL1   C1313982   5.689   6.525   7.120  0.7169 -0.6728 -0.8762
  105CHL1   C1813983   5.805   6.425   7.121 -0.1592  0.0902  0.6446
  105CHL1  H18A13984   5.814   6.375   7.220  0.4067 -3.0914 -0.9117
  105CHL1  H18B13985   5.788   6.343   7.048 -2.1127 -0.4228  1.6061
  105CHL1  H18C13986   5.899   6.474   7.088 -1.0210  1.4306  0.0951
  105CHL1   C1213987   5.733   6.668   7.170  0.1614  0.2109 -0.8333
  105CHL1  H12A13988   5.815   6.711   7.109  0.1448  1.1638 -0.1929
  105CHL1  H12B13989   5.644   6.735   7.164 -0.9568 -1.1828 -0.5707
  105CHL1   C1113990   5.783   6.666   7.322 -0.2107 -0.5085 -0.0969
  105CHL1  H11A13991   5.883   6.621   7.336 -0.1540 -0.0121  1.1986
  105CHL1  H11B13992   5.785   6.774   7.350 -1.0007 -0.3646 -0.5494
  105CHL1    C913993   5.679   6.598   7.416 -0.0416 -1.2962  0.5913
  105CHL1    H913994   5.590   6.665   7.406  1.0911  0.1642 -0.0132
  105CHL1   C1013995   5.720   6.592   7.564  0.0206  0.1330 -0.4694
  105CHL1   C1913996   5.862   6.526   7.581 -0.1374  0.1055  0.2279
  105CHL1  H19A13997   5.868   6.421   7.548  2.5549  1.0526 -2.8453
  105CHL1  H19B13998   5.938   6.576   7.517 -0.4210  0.6269  0.2874
  105CHL1  H19C13999   5.894   6.534   7.687  3.3633 -1.4649 -0.5653
  105CHL1    C114000   5.722   6.740   7.600 -0.4124 -0.7687 -0.0641
  105CHL1   H1A14001   5.801   6.799   7.549  0.7608 -2.4658 -0.2778
  105CHL1   H1B14002   5.628   6.791   7.571 -1.3760 -2.5245 -0.1609
  105CHL1    C214003   5.747   6.773   7.745 -0.0483  0.6318 -0.4146
  105CHL1   H2A14004   5.728   6.881   7.766  0.6002  0.4693  1.1432
  105CHL1   H2B14005   5.852   6.759   7.780 -0.3316 -1.0993 -0.1773
  105CHL1   C2014006   5.680   6.539   6.846  0.0655  0.1853 -0.2564
  105CHL1   H2014007   5.746   6.450   6.832 -2.8106 -2.3021  0.8830
  105CHL1   C2114008   5.759   6.669   6.850 -0.6528  0.3777  0.8104
  105CHL1  H21A14009   5.796   6.699   6.750 -0.7749 -1.2544  0.2518
  105CHL1  H21B14010   5.847   6.661   6.918  0.3176  1.0569 -0.3434
  105CHL1  H21C14011   5.683   6.738   6.893 -0.3821 -1.2841  4.3743
  105CHL1   C2214012   5.572   6.524   6.735  0.5018 -0.2909 -0.7051
  105CHL1  H22A14013   5.525   6.423   6.734  2.4345 -1.2745 -3.8132
  105CHL1  H22B14014   5.493   6.596   6.766  0.9507  0.4877 -1.3413
  105CHL1   C2314015   5.603   6.550   6.585 -0.2955 -0.6484  0.2275
  105CHL1  H23A14016   5.505   6.547   6.532 -0.1296  0.2436 -0.1454
  105CHL1  H23B14017   5.640   6.654   6.573 -0.7192 -0.6323 -1.1468
  105CHL1   C2414018   5.695   6.444   6.513 -0.0917  0.3558  0.4085
  105CHL1  H24A14019   5.793   6.455   6.565 -0.1339  0.5991  0.4339
  105CHL1  H24B14020   5.642   6.347   6.525  1.6316 -0.6111  0.6293
  105CHL1   C2514021   5.712   6.457   6.357  1.2586 -0.4027 -0.6157
  105CHL1   H2514022   5.764   6.554   6.345 -2.3258  2.0526  1.9971
  105CHL1   C2614023   5.803   6.340   6.308  0.3940 -0.5854 -0.4012
  105CHL1  H26A14024   5.758   6.244   6.342 -1.1809 -0.2419 -1.4454
  105CHL1  H26B14025   5.822   6.337   6.199  1.7548  2.4976 -0.3539
  105CHL1  H26C14026   5.904   6.341   6.354  0.8051 -1.5455 -1.2526
  105CHL1   C2714027   5.574   6.454   6.284 -0.5944 -0.4246  0.5054
  105CHL1  H27A14028   5.590   6.454   6.174 -0.4116 -2.9019  0.4783
  105CHL1  H27B14029   5.517   6.362   6.307 -0.5601 -0.0540  2.1782
  105CHL1  H27C14030   5.508   6.538   6.315  1.5604  1.0989  1.2808
  106CHL1    C314031   1.306   3.417   7.757  1.3049  0.1014  0.1167
  106CHL1    H314032   1.301   3.528   7.752  0.9780  0.0834  0.0110
  106CHL1    O314033   1.281   3.375   7.890  0.7949  0.0074  0.8530
  106CHL1   H3'14034   1.353   3.409   7.945  1.4887 -0.4728  0.2482
  106CHL1    C414035   1.197   3.354   7.669 -0.6042  0.8437 -0.3776
  106CHL1   H4A14036   1.205   3.249   7.705 -0.7944  1.1004  0.4148
  106CHL1   H4B14037   1.101   3.397   7.703  0.9834  2.8530  1.8956
  106CHL1    C514038   1.229   3.362   7.522 -0.2780  0.1341 -0.3585
  106CHL1    C614039   1.144   3.405   7.434 -0.5226  0.5703 -0.6255
  106CHL1    H614040   1.046   3.440   7.471 -0.7512  1.4302 -1.9810
  106CHL1    C714041   1.166   3.414   7.284  0.7443 -0.7016 -0.0478
  106CHL1   H7A14042   1.081   3.368   7.230 -1.2898  1.9490  0.6844
  106CHL1   H7B14043   1.174   3.519   7.250 -1.4008 -0.2199  0.7641
  106CHL1    C814044   1.283   3.332   7.239 -0.3063 -1.0990  1.0712
  106CHL1    H814045   1.262   3.223   7.233 -3.0468 -0.5941  0.4445
  106CHL1   C1414046   1.334   3.374   7.098  0.3291  0.3267 -0.5874
  106CHL1   H1414047   1.368   3.479   7.103  0.5941  0.2252 -0.1648
  106CHL1   C1514048   1.239   3.374   6.985  0.2895 -0.4676  0.6356
  106CHL1  H15A14049   1.187   3.276   6.971 -1.6300  0.7050 -0.8519
  106CHL1  H15B14050   1.159   3.450   6.994 -1.5555 -2.1443 -0.6901
  106CHL1   C1614051   1.322   3.393   6.856  0.4327  0.2773  0.1025
  106CHL1  H16A14052   1.280   3.321   6.782  0.2595 -2.2920  2.5098
  106CHL1  H16B14053   1.309   3.497   6.821 -2.8005  0.2393  0.8569
  106CHL1   C1714054   1.468   3.361   6.899  0.1909  0.3863 -0.1961
  106CHL1   H1714055   1.524   3.456   6.909  1.6487 -0.4550 -0.2116
  106CHL1   C1314056   1.453   3.292   7.042  0.1714 -1.0286  0.5744
  106CHL1   C1814057   1.425   3.143   7.034  0.1292  0.9873 -1.0253
  106CHL1  H18A14058   1.406   3.103   7.135  1.1832 -0.1323 -1.2459
  106CHL1  H18B14059   1.356   3.106   6.955  1.4305  0.1688 -1.8195
  106CHL1  H18C14060   1.523   3.096   7.009 -0.1689 -2.0471  2.7208
  106CHL1   C1214061   1.566   3.321   7.136 -0.5128 -0.4785 -0.1448
  106CHL1  H12A14062   1.650   3.256   7.105 -0.8367 -1.0687  0.1890
  106CHL1  H12B14063   1.604   3.424   7.120  0.3649 -0.8257 -0.3693
  106CHL1   C1114064   1.533   3.286   7.280  0.9998  0.5570 -0.7560
  106CHL1  H11A14065   1.527   3.176   7.296  0.2027  0.7413  0.2244
  106CHL1  H11B14066   1.615   3.322   7.347  0.1720  2.5628 -0.7507
  106CHL1    C914067   1.404   3.351   7.333 -0.0241  0.0320  0.2236
  106CHL1    H914068   1.425   3.459   7.325 -0.2451  0.0240 -0.5419
  106CHL1   C1014069   1.371   3.314   7.483  0.1292 -0.1024 -0.4329
  106CHL1   C1914070   1.383   3.161   7.509  0.0324  0.4355 -0.3287
  106CHL1  H19A14071   1.349   3.130   7.610 -2.8876 -0.7951 -1.5690
  106CHL1  H19B14072   1.316   3.098   7.446  2.0888 -0.7905 -1.4014
  106CHL1  H19C14073   1.487   3.126   7.496  0.1294  1.0169 -1.1873
  106CHL1    C114074   1.468   3.390   7.572  0.7822  0.2454  0.3102
  106CHL1   H1A14075   1.571   3.350   7.560  0.4909 -0.7825  1.1276
  106CHL1   H1B14076   1.451   3.496   7.542 -1.2917  0.1042  0.8141
  106CHL1    C214077   1.445   3.371   7.722 -0.2126 -0.0739  0.2280
  106CHL1   H2A14078   1.523   3.430   7.775  1.3457 -1.9057  0.0728
  106CHL1   H2B14079   1.450   3.267   7.761 -2.4924 -0.9107 -1.4623
  106CHL1   C2014080   1.538   3.292   6.785  0.5635  0.1254 -0.3968
  106CHL1   H2014081   1.484   3.202   6.749  0.5361  0.2306 -0.6205
  106CHL1   C2114082   1.672   3.238   6.826  0.1694 -0.6373 -0.1487
  106CHL1  H21A14083   1.735   3.327   6.848 -0.2999 -0.2710 -0.2638
  106CHL1  H21B14084   1.712   3.200   6.729  1.0307  0.6097 -0.2999
  106CHL1  H21C14085   1.674   3.159   6.904 -2.4872 -2.6562 -1.9357
  106CHL1   C2214086   1.538   3.375   6.646  0.5232 -0.1835 -0.1465
  106CHL1  H22A14087   1.581   3.302   6.574  1.1243  0.6277 -0.6212
  106CHL1  H22B14088   1.431   3.391   6.618  0.7430  1.0808 -0.3057
  106CHL1   C2314089   1.610   3.511   6.643  0.2500 -0.0797 -0.1680
  106CHL1  H23A14090   1.593   3.581   6.728  1.9058  1.4472 -1.0296
  106CHL1  H23B14091   1.719   3.491   6.638  0.6594  1.8528  0.3569
  106CHL1   C2414092   1.577   3.578   6.516  0.2624 -0.2560  0.8979
  106CHL1  H24A14093   1.591   3.505   6.433  1.8133 -1.0421  1.8114
  106CHL1  H24B14094   1.469   3.605   6.520  0.3937  1.0485 -1.8556
  106CHL1   C2514095   1.657   3.709   6.477  0.6312  0.2049 -0.3717
  106CHL1   H2514096   1.627   3.777   6.559 -0.2375 -0.6876  0.0769
  106CHL1   C2614097   1.805   3.677   6.471 -0.1073  0.2570  0.3267
  106CHL1  H26A14098   1.837   3.635   6.373 -2.4648 -0.7528 -0.0641
  106CHL1  H26B14099   1.860   3.773   6.484 -0.4853  0.2755  2.0479
  106CHL1  H26C14100   1.847   3.616   6.555  1.7423  1.9356  0.7075
  106CHL1   C2714101   1.613   3.758   6.343  0.0260 -0.4043 -0.0162
  106CHL1  H27A14102   1.664   3.853   6.316  1.4972 -1.4643 -1.1770
  106CHL1  H27B14103   1.637   3.692   6.256  0.0613 -0.0878 -0.2480
  106CHL1  H27C14104   1.505   3.784   6.349 -0.0143 -0.8870  2.5781
  107CHL1    C314105   5.026   1.138   7.945  0.1281  0.2367 -0.1672
  107CHL1    H314106   5.136   1.154   7.943  0.0584  0.7396 -0.1400
  107CHL1    O314107   4.984   1.161   8.078  0.3521 -0.3943  0.5031
  107CHL1   H3'14108   4.893   1.131   8.071  0.3949 -0.2616 -1.0310
  107CHL1    C414109   4.947   1.235   7.860  0.0978  0.2976 -0.5278
  107CHL1   H4A14110   4.842   1.204   7.881 -0.0658 -0.8220 -2.7291
  107CHL1   H4B14111   4.978   1.331   7.907  2.5202 -0.9846  0.6940
  107CHL1    C514112   4.968   1.218   7.715 -0.9599 -0.5869 -0.1998
  107CHL1    C614113   5.007   1.328   7.642  0.8389  0.0311  0.0115
  107CHL1    H614114   5.034   1.417   7.701 -0.1841 -0.3367  1.0858
  107CHL1    C714115   5.048   1.339   7.497  0.3014  0.5754  0.1334
  107CHL1   H7A14116   5.004   1.424   7.440 -1.2525 -0.2240  0.1085
  107CHL1   H7B14117   5.159   1.349   7.499  0.3867 -0.3762  0.4952
  107CHL1    C814118   5.006   1.208   7.416  0.3762 -0.0406  0.1527
  107CHL1    H814119   4.896   1.221   7.406  0.1577 -1.3004  0.7102
  107CHL1   C1414120   5.079   1.198   7.284 -0.2698  0.1353 -0.9510
  107CHL1   H1414121   5.188   1.178   7.298  0.0289  0.7688 -2.1968
  107CHL1   C1514122   5.081   1.312   7.175  0.1056  0.1047  0.3865
  107CHL1  H15A14123   4.980   1.356   7.163  0.3912  0.7815  0.4110
  107CHL1  H15B14124   5.144   1.397   7.209  0.6439  0.3244 -1.1153
  107CHL1   C1614125   5.119   1.249   7.042  0.0156 -0.8321 -0.3488
  107CHL1  H16A14126   5.042   1.284   6.970  0.4665  0.5628 -0.1939
  107CHL1  H16B14127   5.218   1.277   7.000  0.2000 -0.4700  0.2945
  107CHL1   C1714128   5.104   1.096   7.064 -0.2233 -0.3792 -0.9933
  107CHL1   H1714129   5.205   1.053   7.080 -0.0040  0.2732 -0.5960
  107CHL1   C1314130   5.036   1.074   7.205  0.7028 -0.1774 -0.0417
  107CHL1   C1814131   4.875   1.079   7.180 -0.0787  0.3418  0.0165
  107CHL1  H18A14132   4.839   1.169   7.126 -2.5471 -1.3381 -1.3304
  107CHL1  H18B14133   4.841   0.992   7.120  1.2084  0.0855 -0.3749
  107CHL1  H18C14134   4.816   1.077   7.274 -0.3992 -2.5715 -0.1601
  107CHL1   C1214135   5.065   0.950   7.296 -0.7686  0.0792 -0.5271
  107CHL1  H12A14136   5.022   0.870   7.232  0.2963 -0.4433 -0.5991
  107CHL1  H12B14137   5.173   0.928   7.300 -1.4495 -3.8396  1.3954
  107CHL1   C1114138   4.999   0.948   7.432 -0.2569  0.1513  0.0612
  107CHL1  H11A14139   4.890   0.940   7.413 -0.1998  0.6165 -0.5061
  107CHL1  H11B14140   5.035   0.859   7.488  0.4252  0.1619 -0.3403
  107CHL1    C914141   5.024   1.078   7.510 -0.0122 -0.3850  0.9436
  107CHL1    H914142   5.134   1.070   7.523  0.4820  1.3013 -1.4854
  107CHL1   C1014143   4.961   1.081   7.652  0.0326 -0.1887  0.4017
  107CHL1   C1914144   4.805   1.042   7.636  0.6765  0.1372 -0.0459
  107CHL1  H19A14145   4.757   1.120   7.573 -1.6069 -0.8492  0.3582
  107CHL1  H19B14146   4.785   0.942   7.590  1.2583 -0.4911  1.0443
  107CHL1  H19C14147   4.755   1.043   7.735  0.4166 -2.2406 -0.0890
  107CHL1    C114148   5.037   0.977   7.738  0.1317  0.5833  0.7324
  107CHL1   H1A14149   5.006   0.874   7.710  0.5871  0.9165 -1.1606
  107CHL1   H1B14150   5.145   0.988   7.713 -0.6175  0.0665 -3.5840
  107CHL1    C214151   4.999   0.997   7.887 -0.3838  0.0511  0.3316
  107CHL1   H2A14152   5.056   0.926   7.951  2.3756  0.2852 -1.6937
  107CHL1   H2B14153   4.894   0.959   7.885 -0.5477  0.3636  1.8197
  107CHL1   C2014154   5.052   1.024   6.945 -0.0939 -0.3980  0.4198
  107CHL1   H2014155   4.945   1.043   6.922  0.4997  1.7924 -0.7531
  107CHL1   C2114156   5.066   0.870   6.977  0.3241  0.7610  0.2696
  107CHL1  H21A14157   5.053   0.821   6.878  0.1077  4.1731 -1.5502
  107CHL1  H21B14158   4.983   0.831   7.039  1.8575  1.2610  2.7711
  107CHL1  H21C14159   5.164   0.838   7.017  0.6294  1.2673 -0.0552
  107CHL1   C2214160   5.134   1.041   6.810  0.7704  0.7962  0.2882
  107CHL1  H22A14161   5.073   0.990   6.733  0.8298  2.3257 -0.8187
  107CHL1  H22B14162   5.148   1.146   6.775  0.2072  0.5748 -0.6118
  107CHL1   C2314163   5.267   0.973   6.816 -0.4126  0.7133 -0.4539
  107CHL1  H23A14164   5.316   0.985   6.915 -0.0322 -2.8438 -0.0658
  107CHL1  H23B14165   5.245   0.865   6.798 -1.5360  0.8737 -0.1003
  107CHL1   C2414166   5.368   0.996   6.707  0.1793 -0.2813  0.0039
  107CHL1  H24A14167   5.323   1.013   6.607  0.9552  1.2044 -0.1195
  107CHL1  H24B14168   5.423   1.092   6.721 -2.2000  1.9064 -3.6742
  107CHL1   C2514169   5.477   0.879   6.694  0.7245 -0.1058  0.2275
  107CHL1   H2514170   5.504   0.842   6.796  0.4937 -1.5173 -0.2009
  107CHL1   C2614171   5.422   0.767   6.607  0.1365 -1.5689  0.4544
  107CHL1  H26A14172   5.375   0.814   6.518  0.3777 -1.5260  0.3503
  107CHL1  H26B14173   5.506   0.703   6.574  1.9310  0.2055  1.3223
  107CHL1  H26C14174   5.339   0.709   6.653 -1.5650  0.8272  0.6596
  107CHL1   C2714175   5.599   0.936   6.623  0.0058  1.1925  0.3670
  107CHL1  H27A14176   5.653   1.014   6.681 -0.3725  4.6203 -3.4715
  107CHL1  H27B14177   5.670   0.852   6.607 -0.9970  0.5470 -0.8654
  107CHL1  H27C14178   5.573   0.977   6.524  0.3381 -0.5074 -0.4546
  108CHL1    C314179   6.204   4.691   7.325 -0.5188  0.0621 -0.5038
  108CHL1    H314180   6.277   4.607   7.327  0.6560  1.0536  0.2255
  108CHL1    O314181   6.153   4.710   7.460 -0.2291 -0.2880 -0.2754
  108CHL1   H3'14182   6.217   4.766   7.504 -0.3797 -0.8888  0.7215
  108CHL1    C414183   6.282   4.816   7.275  0.5549 -0.3174 -0.1381
  108CHL1   H4A14184   6.209   4.900   7.282 -2.5030 -2.4603 -3.1821
  108CHL1   H4B14185   6.365   4.836   7.346 -0.6107 -0.1046  1.2017
  108CHL1    C514186   6.327   4.811   7.130  0.2320 -0.0679 -0.4213
  108CHL1    C614187   6.454   4.834   7.089 -0.6303  0.3451  0.0902
  108CHL1    H614188   6.532   4.855   7.164 -0.2078 -1.7858  0.3162
  108CHL1    C714189   6.496   4.839   6.947  0.0092  0.9562  0.7990
  108CHL1   H7A14190   6.548   4.937   6.943  0.4830  0.7201  1.1032
  108CHL1   H7B14191   6.567   4.756   6.925 -0.0368  1.4747 -1.5763
  108CHL1    C814192   6.377   4.827   6.843  0.0260 -0.7798 -0.2781
  108CHL1    H814193   6.325   4.926   6.838 -0.9200 -1.2135  0.6305
  108CHL1   C1414194   6.422   4.795   6.702 -0.1844  0.1009  0.6013
  108CHL1   H1414195   6.471   4.695   6.697 -2.4910 -1.0243 -1.0778
  108CHL1   C1514196   6.531   4.898   6.643  0.4482 -0.0069 -0.8956
  108CHL1  H15A14197   6.500   5.002   6.666  3.3429  0.6551  0.4913
  108CHL1  H15B14198   6.634   4.882   6.681 -0.1063 -1.8777 -0.1175
  108CHL1   C1614199   6.515   4.868   6.498 -0.7413 -0.5082 -0.4214
  108CHL1  H16A14200   6.501   4.963   6.443  0.8328 -0.9194 -1.6213
  108CHL1  H16B14201   6.604   4.815   6.456 -1.7520 -2.3904 -0.3081
  108CHL1   C1714202   6.402   4.763   6.475  0.2669  0.1177  0.0951
  108CHL1   H1714203   6.446   4.662   6.490  1.5010  0.4831 -0.9016
  108CHL1   C1314204   6.312   4.778   6.597 -0.0231 -0.6848 -0.0836
  108CHL1   C1814205   6.227   4.915   6.580  0.3954 -0.0263  0.0426
  108CHL1  H18A14206   6.153   4.884   6.503 -1.2497  1.9361  0.7559
  108CHL1  H18B14207   6.170   4.944   6.670  0.2654  0.1432 -0.0949
  108CHL1  H18C14208   6.282   5.004   6.543  0.1633  0.0626 -0.0876
  108CHL1   C1214209   6.226   4.661   6.649  0.6117  0.4939 -0.0101
  108CHL1  H12A14210   6.138   4.655   6.581 -0.6771 -0.5178  1.6886
  108CHL1  H12B14211   6.294   4.573   6.654  1.1227  0.7503 -1.6171
  108CHL1   C1114212   6.171   4.693   6.789 -0.2977  0.1834 -0.0754
  108CHL1  H11A14213   6.103   4.781   6.779  0.1136  0.4504 -0.5542
  108CHL1  H11B14214   6.110   4.608   6.827 -1.4110  0.7675 -0.4977
  108CHL1    C914215   6.275   4.728   6.902 -0.2642 -0.2444  0.3255
  108CHL1    H914216   6.332   4.633   6.917  1.7812  0.7866 -0.5553
  108CHL1   C1014217   6.214   4.773   7.035 -0.1154  0.5924  0.3164
  108CHL1   C1914218   6.121   4.896   7.010 -0.1171  0.4763  0.2912
  108CHL1  H19A14219   6.182   4.976   6.962 -1.9214  1.2901 -0.7290
  108CHL1  H19B14220   6.021   4.877   6.965  0.8423 -1.4950 -1.1564
  108CHL1  H19C14221   6.094   4.930   7.112  1.8854 -3.0174  2.1515
  108CHL1    C114222   6.131   4.655   7.084  0.3961  0.4948 -0.5812
  108CHL1   H1A14223   6.040   4.651   7.020 -0.6572  2.9368  0.6139
  108CHL1   H1B14224   6.196   4.565   7.077  1.8280  1.4880 -0.4724
  108CHL1    C214225   6.089   4.660   7.231 -0.2401 -0.5536  0.7645
  108CHL1   H2A14226   6.039   4.563   7.253 -2.0021  0.0178 -0.5087
  108CHL1   H2B14227   6.022   4.748   7.242  2.3668  1.8262 -0.9401
  108CHL1   C2014228   6.345   4.772   6.335  0.0785 -0.5954  0.0956
  108CHL1   H2014229   6.312   4.877   6.320 -0.1055 -0.1233  3.1408
  108CHL1   C2114230   6.226   4.678   6.308 -0.1765 -0.2389  0.0978
  108CHL1  H21A14231   6.212   4.656   6.200  1.3623  1.1731 -0.4301
  108CHL1  H21B14232   6.133   4.735   6.330 -0.7039 -1.4011  1.0088
  108CHL1  H21C14233   6.242   4.581   6.361 -1.3074 -1.4160 -1.6032
  108CHL1   C2214234   6.461   4.749   6.228  0.6641 -0.0397 -0.6897
  108CHL1  H22A14235   6.409   4.749   6.129  1.5054 -1.8634 -1.1656
  108CHL1  H22B14236   6.529   4.837   6.225  0.2411  0.3315  0.2651
  108CHL1   C2314237   6.546   4.620   6.237  0.3174  0.6606 -0.1460
  108CHL1  H23A14238   6.622   4.625   6.318  1.2231 -0.0899 -0.9310
  108CHL1  H23B14239   6.476   4.540   6.269  1.5061 -0.5611 -0.4919
  108CHL1   C2414240   6.616   4.586   6.102 -0.5521 -0.1631 -0.2415
  108CHL1  H24A14241   6.540   4.556   6.026 -2.0156 -0.1529  1.1423
  108CHL1  H24B14242   6.674   4.673   6.064  0.1423  0.0806  1.3169
  108CHL1   C2514243   6.721   4.468   6.113 -0.1028  0.1777  0.2103
  108CHL1   H2514244   6.773   4.492   6.208 -1.7807 -0.3771  1.3173
  108CHL1   C2614245   6.646   4.333   6.126 -0.7478  0.2857 -0.2830
  108CHL1  H26A14246   6.571   4.335   6.208 -1.9492  2.1065 -1.3606
  108CHL1  H26B14247   6.582   4.316   6.036 -0.3941  0.6246 -0.6029
  108CHL1  H26C14248   6.713   4.244   6.134  0.2758  1.0522 -0.1138
  108CHL1   C2714249   6.822   4.467   6.000  0.3805  0.1562 -0.1587
  108CHL1  H27A14250   6.783   4.424   5.905  0.5543  1.9926 -1.1007
  108CHL1  H27B14251   6.864   4.568   5.983 -0.9897  0.8164  0.2411
  108CHL1  H27C14252   6.896   4.388   6.026 -0.4359 -0.3409  0.7585
  109CHL1    C314253   3.231   1.121   7.943 -0.5929  0.7261 -0.1794
  109CHL1    H314254   3.295   1.203   7.983 -1.1941  0.2573  1.8938
  109CHL1    O314255   3.197   1.037   8.049  0.7863  0.4423 -0.6119
  109CHL1   H3'14256   3.106   1.061   8.068  0.5956  0.0980 -1.0845
  109CHL1    C414257   3.106   1.176   7.874  0.9588  0.7616 -0.1726
  109CHL1   H4A14258   3.038   1.089   7.865  0.6522  0.9458  0.3203
  109CHL1   H4B14259   3.064   1.250   7.946  1.9647  1.3933 -0.2119
  109CHL1    C514260   3.132   1.245   7.741 -0.1193 -0.6565 -0.0047
  109CHL1    C614261   3.087   1.370   7.716 -0.6825  0.3134  0.2158
  109CHL1    H614262   3.028   1.419   7.795 -0.7572 -0.5875  0.7252
  109CHL1    C714263   3.114   1.443   7.590  0.2313  0.2542 -0.0853
  109CHL1   H7A14264   3.021   1.496   7.560  0.0728 -0.7988 -1.5462
  109CHL1   H7B14265   3.186   1.527   7.603  0.5663  0.1561 -1.1562
  109CHL1    C814266   3.167   1.356   7.477 -0.2124 -0.3052  0.2228
  109CHL1    H814267   3.089   1.290   7.434 -1.3750  0.5668  0.9248
  109CHL1   C1414268   3.229   1.443   7.367  0.3481  0.7522  0.1569
  109CHL1   H1414269   3.319   1.494   7.408  0.6806 -0.3485  0.8243
  109CHL1   C1514270   3.134   1.549   7.315  0.2375  0.7008  0.5737
  109CHL1  H15A14271   3.032   1.511   7.292  1.5701 -2.2044 -1.0348
  109CHL1  H15B14272   3.128   1.640   7.379 -0.8746  1.3496 -0.4231
  109CHL1   C1614273   3.200   1.585   7.177  0.1231  0.2380  0.1826
  109CHL1  H16A14274   3.121   1.561   7.103 -0.4578 -3.4080  1.7598
  109CHL1  H16B14275   3.228   1.692   7.168  1.6532 -0.1423  0.1330
  109CHL1   C1714276   3.325   1.495   7.163 -0.3535  0.6179 -0.8334
  109CHL1   H1714277   3.404   1.546   7.222 -0.4074  1.1594 -1.2259
  109CHL1   C1314278   3.292   1.363   7.246 -0.0274 -0.2882  0.1499
  109CHL1   C1814279   3.193   1.270   7.173  0.1722  0.2583 -0.1563
  109CHL1  H18A14280   3.178   1.179   7.234 -1.2450 -0.2494 -1.2175
  109CHL1  H18B14281   3.100   1.330   7.161  0.8263  1.5643  0.9398
  109CHL1  H18C14282   3.222   1.235   7.072 -0.2646  0.2900 -0.2933
  109CHL1   C1214283   3.411   1.291   7.308  0.1043  0.1084  0.0982
  109CHL1  H12A14284   3.460   1.230   7.229 -0.7552 -0.2058 -0.2008
  109CHL1  H12B14285   3.488   1.362   7.346 -0.6161  1.4688 -0.8720
  109CHL1   C1114286   3.357   1.191   7.413  0.6728  0.3148  0.0457
  109CHL1  H11A14287   3.296   1.114   7.360  1.5054  0.0892 -0.6175
  109CHL1  H11B14288   3.443   1.132   7.451  1.0097  0.3428 -0.6516
  109CHL1    C914289   3.280   1.264   7.533 -0.3711 -0.0617  0.4789
  109CHL1    H914290   3.357   1.332   7.577 -0.6127 -0.9945  2.4461
  109CHL1   C1014291   3.226   1.179   7.639 -0.2006  0.0955 -0.8532
  109CHL1   C1914292   3.158   1.049   7.578 -0.5061  0.1942 -0.1642
  109CHL1  H19A14293   3.237   0.982   7.538  0.6331 -0.0692  2.3343
  109CHL1  H19B14294   3.102   0.998   7.660  0.8690 -2.1643 -0.5822
  109CHL1  H19C14295   3.077   1.082   7.509 -1.1535  2.0896  1.4208
  109CHL1    C114296   3.347   1.136   7.720 -0.5496 -0.1189 -0.4528
  109CHL1   H1A14297   3.418   1.078   7.658 -1.3709 -1.3383 -0.3042
  109CHL1   H1B14298   3.394   1.232   7.748  0.5284 -0.3289 -1.4830
  109CHL1    C214299   3.312   1.046   7.835  0.2392 -0.1463  0.4130
  109CHL1   H2A14300   3.402   1.001   7.883  1.2355 -1.8295 -2.7845
  109CHL1   H2B14301   3.258   0.956   7.800  1.6868 -0.9676  0.2512
  109CHL1   C2014302   3.370   1.478   7.012  0.0087 -0.5373  0.3482
  109CHL1   H2014303   3.304   1.403   6.962 -2.2414  0.9682  0.9134
  109CHL1   C2114304   3.513   1.412   7.010 -0.1122 -0.1793 -0.2537
  109CHL1  H21A14305   3.496   1.303   7.022  0.9509 -0.0684  3.9191
  109CHL1  H21B14306   3.571   1.443   7.099  0.7337  1.3594 -1.2835
  109CHL1  H21C14307   3.566   1.431   6.913  1.0545  0.4147  0.4693
  109CHL1   C2214308   3.373   1.612   6.931 -0.0229 -0.3868  0.3571
  109CHL1  H22A14309   3.278   1.671   6.930  1.2627  1.7982  0.6276
  109CHL1  H22B14310   3.452   1.681   6.969  1.0832 -2.1439  1.3564
  109CHL1   C2314311   3.393   1.602   6.776 -0.0509  0.4704 -0.0498
  109CHL1  H23A14312   3.494   1.558   6.763 -0.9912 -1.7414 -0.3471
  109CHL1  H23B14313   3.323   1.524   6.739  0.2804  0.1850 -0.0876
  109CHL1   C2414314   3.396   1.739   6.709  0.1450 -0.3405 -1.0890
  109CHL1  H24A14315   3.296   1.786   6.717  0.7766  1.0105 -0.8404
  109CHL1  H24B14316   3.457   1.810   6.769 -0.8372  0.4591 -1.0246
  109CHL1   C2514317   3.453   1.740   6.569 -0.3688  0.4020  0.2883
  109CHL1   H2514318   3.551   1.688   6.562 -1.1962 -1.0153 -2.2745
  109CHL1   C2614319   3.358   1.683   6.468  0.2297  0.4788 -0.1011
  109CHL1  H26A14320   3.258   1.731   6.473 -0.9612 -1.8186 -0.6427
  109CHL1  H26B14321   3.396   1.698   6.365  2.6567 -0.5405  0.5643
  109CHL1  H26C14322   3.343   1.574   6.479  2.7083  0.0388 -0.5633
  109CHL1   C2714323   3.499   1.881   6.520  0.7543 -0.6128  0.7092
  109CHL1  H27A14324   3.586   1.927   6.572  1.3249 -0.4033 -0.3817
  109CHL1  H27B14325   3.522   1.882   6.411 -2.2279  0.8118 -0.0072
  109CHL1  H27C14326   3.420   1.959   6.523  1.1118 -0.1761 -0.3625
  110CHL1    C314327   3.015   0.720   8.303 -0.1967 -0.0066 -0.1490
  110CHL1    H314328   2.980   0.627   8.352 -1.4588  0.1974 -0.6439
  110CHL1    O314329   3.054   0.830   8.386  0.2055  0.2744  0.0287
  110CHL1   H3'14330   3.077   0.906   8.332  0.8442  0.2908  0.3189
  110CHL1    C414331   3.138   0.686   8.205  0.3148 -0.7456  0.6345
  110CHL1   H4A14332   3.176   0.783   8.168 -1.5271  0.3561  1.4763
  110CHL1   H4B14333   3.224   0.645   8.261  0.9618  1.0352  0.9902
  110CHL1    C514334   3.100   0.595   8.090 -0.1464 -0.4330 -0.1660
  110CHL1    C614335   3.171   0.487   8.064  0.8602 -0.0308 -0.0334
  110CHL1    H614336   3.262   0.466   8.121  1.7064 -0.3778 -1.4469
  110CHL1    C714337   3.140   0.384   7.956 -0.1296  0.0217  0.1737
  110CHL1   H7A14338   3.230   0.358   7.895  0.2120 -2.0762  1.4845
  110CHL1   H7B14339   3.107   0.288   8.000  4.1554 -1.1514  1.2890
  110CHL1    C814340   3.032   0.433   7.857  0.6176 -0.1246 -0.1250
  110CHL1    H814341   3.073   0.502   7.780 -0.8586  0.9614  0.0127
  110CHL1   C1414342   2.965   0.320   7.784 -0.1041 -0.3051  0.7109
  110CHL1   H1414343   2.914   0.250   7.854  1.1885 -1.3784  0.5952
  110CHL1   C1514344   3.069   0.230   7.714  0.9379  1.0146  0.0315
  110CHL1  H15A14345   3.141   0.288   7.654  0.3884  2.5671  0.8109
  110CHL1  H15B14346   3.112   0.153   7.782  0.2097  1.6659  1.2646
  110CHL1   C1614347   2.976   0.159   7.613 -0.1380  0.0920  0.7705
  110CHL1  H16A14348   3.010   0.171   7.507  0.9263 -0.5844  1.0221
  110CHL1  H16B14349   2.972   0.048   7.626  1.3289 -0.0554  0.1764
  110CHL1   C1714350   2.829   0.211   7.626  0.7405 -0.0149  0.4838
  110CHL1   H1714351   2.787   0.148   7.707 -1.0211  1.1346  0.5133
  110CHL1   C1314352   2.856   0.350   7.682  0.0857 -0.3478 -0.0382
  110CHL1   C1814353   2.909   0.449   7.573 -0.2587 -0.7775 -0.1855
  110CHL1  H18A14354   2.951   0.545   7.611  2.5416 -0.9642 -2.5295
  110CHL1  H18B14355   2.990   0.401   7.516  0.8927 -2.4213  2.6212
  110CHL1  H18C14356   2.832   0.473   7.496 -1.3364  0.5435  1.2341
  110CHL1   C1214357   2.740   0.428   7.758  0.0137 -0.3917 -0.2296
  110CHL1  H12A14358   2.660   0.462   7.689 -1.8726 -1.0273  1.5594
  110CHL1  H12B14359   2.679   0.367   7.827 -0.5162  2.3246  1.8495
  110CHL1   C1114360   2.790   0.543   7.850 -0.5542  0.5931 -0.0509
  110CHL1  H11A14361   2.814   0.637   7.796 -2.2369  0.9900 -0.1508
  110CHL1  H11B14362   2.707   0.569   7.920 -1.2621  1.6446 -1.2450
  110CHL1    C914363   2.921   0.506   7.936  0.0558  0.0758 -0.0892
  110CHL1    H914364   2.895   0.431   8.014 -1.0344  3.2901  2.8844
  110CHL1   C1014365   2.968   0.625   8.020 -0.1146 -0.2386 -0.2597
  110CHL1   C1914366   3.011   0.747   7.931 -1.2416  0.2041  0.2127
  110CHL1  H19A14367   2.928   0.792   7.872 -0.2914 -1.3369 -2.4827
  110CHL1  H19B14368   3.075   0.821   7.985 -0.3386 -1.1758  1.0824
  110CHL1  H19C14369   3.082   0.713   7.852 -0.6653  1.1232  0.3208
  110CHL1    C114370   2.854   0.662   8.116 -0.2429  0.4926 -0.0924
  110CHL1   H1A14371   2.765   0.701   8.062 -1.3972 -1.2836  0.4434
  110CHL1   H1B14372   2.826   0.576   8.180 -0.0373 -0.2435 -0.9751
  110CHL1    C214373   2.893   0.772   8.222 -0.3631  0.7156  0.3655
  110CHL1   H2A14374   2.814   0.800   8.295 -0.5459  0.9101  0.0975
  110CHL1   H2B14375   2.923   0.866   8.171  0.6002 -0.2224 -0.8271
  110CHL1   C2014376   2.742   0.199   7.508  0.5565 -0.3812  0.4069
  110CHL1   H2014377   2.736   0.284   7.436  0.6976  0.3560  1.2523
  110CHL1   C2114378   2.594   0.195   7.562 -0.5662  0.2233  0.0618
  110CHL1  H21A14379   2.570   0.111   7.630  1.2778  0.5837  1.2413
  110CHL1  H21B14380   2.514   0.198   7.486 -1.6059 -2.9972  0.8787
  110CHL1  H21C14381   2.579   0.283   7.628  0.5840  0.2080  0.3706
  110CHL1   C2214382   2.777   0.090   7.404 -0.1612 -0.4680  0.4581
  110CHL1  H22A14383   2.873   0.110   7.350  0.3294 -0.1825  1.4202
  110CHL1  H22B14384   2.782  -0.012   7.447 -0.9249 -0.4940  0.4944
  110CHL1   C2314385   2.679   0.082   7.292  1.0187  0.0779 -0.8170
  110CHL1  H23A14386   2.571   0.070   7.318  0.7384 -2.3211 -2.6674
  110CHL1  H23B14387   2.673   0.183   7.246 -5.2707  1.0506  1.1481
  110CHL1   C2414388   2.706  -0.039   7.196 -0.2261 -0.6519 -0.6938
  110CHL1  H24A14389   2.809  -0.021   7.158 -0.5181  2.3085 -0.3256
  110CHL1  H24B14390   2.689  -0.138   7.243 -0.5049 -0.1121  0.3666
  110CHL1   C2514391   2.632  -0.034   7.063 -0.2990  0.3734 -0.1188
  110CHL1   H2514392   2.523  -0.023   7.081 -0.7330 -2.9094 -0.0879
  110CHL1   C2614393   2.672   0.083   6.963  0.3651 -0.1142  0.8062
  110CHL1  H26A14394   2.617   0.077   6.867 -0.4044  0.6989  1.1746
  110CHL1  H26B14395   2.645   0.179   7.013 -1.9406 -0.1638 -0.2055
  110CHL1  H26C14396   2.783   0.082   6.953  0.3305  1.5662 -0.1477
  110CHL1   C2714397   2.638  -0.176   7.005  0.1846 -0.1227 -0.4852
  110CHL1  H27A14398   2.744  -0.189   6.975  0.2414  0.6983 -0.6795
  110CHL1  H27B14399   2.623  -0.257   7.079  0.8113 -1.7761 -2.0839
  110CHL1  H27C14400   2.574  -0.183   6.914 -0.5013 -0.1687 -0.0068
  111CHL1    C314401   4.009   0.839   7.955 -0.3457  0.0380 -0.0698
  111CHL1    H314402   4.100   0.903   7.944 -0.7698  0.6349 -0.1206
  111CHL1    O314403   4.005   0.790   8.087  0.1527 -0.1740  0.0349
  111CHL1   H3'14404   3.922   0.742   8.095  0.0110 -0.0094 -0.4105
  111CHL1    C414405   3.877   0.915   7.919 -0.3318 -0.8994  0.5364
  111CHL1   H4A14406   3.789   0.858   7.955  0.4787 -0.9638  2.5590
  111CHL1   H4B14407   3.870   1.000   7.990  1.1392 -1.1063  0.9598
  111CHL1    C514408   3.870   0.953   7.779  0.1905 -0.2595 -0.1760
  111CHL1    C614409   3.849   1.084   7.740  0.8918  0.1641  0.4237
  111CHL1    H614410   3.842   1.163   7.817 -0.2944  1.3495 -0.8612
  111CHL1    C714411   3.813   1.127   7.596 -0.2727  0.3916  0.1802
  111CHL1   H7A14412   3.722   1.189   7.600  0.0242  1.0883 -2.3441
  111CHL1   H7B14413   3.891   1.196   7.557 -0.2702 -0.7009 -1.8881
  111CHL1    C814414   3.811   1.005   7.495 -0.1956  0.0506 -0.7344
  111CHL1    H814415   3.707   0.971   7.508 -0.2644  0.8668  1.0328
  111CHL1   C1414416   3.838   1.065   7.357 -0.3929 -1.0241 -0.3481
  111CHL1   H1414417   3.947   1.088   7.362 -0.0373 -2.6611 -0.0848
  111CHL1   C1514418   3.768   1.194   7.325  0.1217  0.4932 -0.4797
  111CHL1  H15A14419   3.665   1.191   7.366  0.7372  1.5236  1.2151
  111CHL1  H15B14420   3.816   1.284   7.371  1.8378 -0.5357 -0.1537
  111CHL1   C1614421   3.764   1.198   7.169 -0.2011 -0.3476 -0.3058
  111CHL1  H16A14422   3.659   1.173   7.143 -0.7352  0.5200  0.9419
  111CHL1  H16B14423   3.787   1.295   7.119  0.3744 -0.1929  0.2478
  111CHL1   C1714424   3.847   1.071   7.132 -0.2222 -0.3075 -0.2622
  111CHL1   H1714425   3.954   1.101   7.140 -0.5166  0.7080 -0.0735
  111CHL1   C1314426   3.825   0.965   7.242 -0.2892 -0.0332  0.3227
  111CHL1   C1814427   3.677   0.909   7.233 -0.3006 -0.7229  0.2251
  111CHL1  H18A14428   3.670   0.845   7.143  0.7475 -3.3659  1.9210
  111CHL1  H18B14429   3.655   0.832   7.310 -0.3412  0.6614  1.6758
  111CHL1  H18C14430   3.600   0.989   7.243 -1.3515 -1.8079  1.0106
  111CHL1   C1214431   3.930   0.854   7.268 -0.1874 -0.3280 -0.2528
  111CHL1  H12A14432   3.918   0.770   7.197  0.1711  0.4840 -1.2908
  111CHL1  H12B14433   4.033   0.894   7.259  0.4631 -2.0075 -0.5492
  111CHL1   C1114434   3.904   0.792   7.412 -0.1466  0.1510 -0.7741
  111CHL1  H11A14435   3.802   0.748   7.405 -0.7121  1.4631 -1.0912
  111CHL1  H11B14436   3.984   0.717   7.429 -1.7869 -1.1643  1.6933
  111CHL1    C914437   3.910   0.898   7.533  0.3662 -0.5763 -0.0986
  111CHL1    H914438   4.010   0.947   7.530  0.1251 -0.0682  0.0388
  111CHL1   C1014439   3.887   0.843   7.675 -0.2420 -0.1616 -0.0260
  111CHL1   C1914440   3.760   0.755   7.685  0.7364  0.1957 -0.0834
  111CHL1  H19A14441   3.762   0.704   7.784  1.7521 -0.4191 -0.4102
  111CHL1  H19B14442   3.669   0.818   7.676 -0.2091 -0.8082  1.7875
  111CHL1  H19C14443   3.761   0.669   7.614 -0.0896 -1.8544  2.2352
  111CHL1    C114444   4.010   0.760   7.709 -0.2806  0.5158  0.8698
  111CHL1   H1A14445   4.002   0.665   7.652 -0.8871  1.4088 -0.5871
  111CHL1   H1B14446   4.095   0.813   7.663  0.4484 -0.7626  0.7112
  111CHL1    C214447   4.023   0.721   7.860  0.2238  0.3903 -0.0789
  111CHL1   H2A14448   4.120   0.667   7.865  0.0544 -0.0958 -1.5137
  111CHL1   H2B14449   3.937   0.654   7.878  0.2953 -0.5590 -2.7782
  111CHL1   C2014450   3.818   1.035   6.988 -0.2914  0.3163 -0.2084
  111CHL1   H2014451   3.707   1.026   6.987 -0.3588  0.5740  1.5998
  111CHL1   C2114452   3.893   0.905   6.949 -0.4295  0.2416  0.9443
  111CHL1  H21A14453   3.845   0.826   7.011 -1.6646 -0.6740 -1.0705
  111CHL1  H21B14454   4.004   0.902   6.961  0.1396 -0.0620 -3.0971
  111CHL1  H21C14455   3.884   0.883   6.841  2.6918  2.3324  0.1193
  111CHL1   C2214456   3.857   1.148   6.886  0.4827  0.1747  0.2252
  111CHL1  H22A14457   3.850   1.251   6.926 -1.0540  0.5196 -0.8614
  111CHL1  H22B14458   3.965   1.134   6.860 -0.0041 -1.1283 -1.2710
  111CHL1   C2314459   3.776   1.135   6.758  0.2413 -0.0194 -0.3637
  111CHL1  H23A14460   3.785   1.034   6.713 -0.5471 -0.6312  0.8233
  111CHL1  H23B14461   3.669   1.155   6.777  0.0513  1.6326 -2.7187
  111CHL1   C2414462   3.813   1.241   6.662 -0.5112 -0.9651  0.2657
  111CHL1  H24A14463   3.804   1.345   6.699 -0.2774 -0.5909 -0.6813
  111CHL1  H24B14464   3.922   1.229   6.646 -0.1497  1.9866  0.0207
  111CHL1   C2514465   3.732   1.240   6.527  0.3018 -0.3807  0.1847
  111CHL1   H2514466   3.630   1.201   6.548  0.1056 -0.2863 -0.5524
  111CHL1   C2614467   3.724   1.383   6.468 -0.1493  0.0447 -0.1769
  111CHL1  H26A14468   3.679   1.447   6.547 -0.6015 -1.0130  0.4410
  111CHL1  H26B14469   3.822   1.414   6.426  0.3005 -1.7912 -0.5705
  111CHL1  H26C14470   3.659   1.387   6.378 -1.3411  3.4104  0.7124
  111CHL1   C2714471   3.783   1.143   6.419 -0.2977 -0.7875  0.0143
  111CHL1  H27A14472   3.707   1.134   6.337  0.5771 -0.4994 -0.8463
  111CHL1  H27B14473   3.869   1.190   6.367 -0.4818 -0.1941  0.2431
  111CHL1  H27C14474   3.811   1.047   6.466  0.6412 -0.6865 -0.3179
  112CHL1    C314475   5.300   2.657   8.062 -0.2278  0.5731  0.1988
  112CHL1    H314476   5.209   2.600   8.034  0.5963 -0.2994 -0.7506
  112CHL1    O314477   5.312   2.647   8.203 -0.1715 -0.2302 -0.6441
  112CHL1   H3'14478   5.402   2.677   8.219 -1.0473  2.1452  0.3315
  112CHL1    C414479   5.424   2.588   7.998 -0.2662 -0.5610  0.2501
  112CHL1   H4A14480   5.512   2.623   8.057 -0.6046 -1.2350  1.1610
  112CHL1   H4B14481   5.414   2.481   8.024 -1.5040 -0.5768 -0.2486
  112CHL1    C514482   5.434   2.611   7.848 -0.2250  0.2730 -0.0516
  112CHL1    C614483   5.428   2.516   7.761 -0.1589 -0.0068 -0.0774
  112CHL1    H614484   5.415   2.413   7.797  0.8899  0.0154  0.3911
  112CHL1    C714485   5.428   2.525   7.611  0.2993  0.6676 -0.6737
  112CHL1   H7A14486   5.497   2.446   7.575 -0.5167  0.3236 -1.5211
  112CHL1   H7B14487   5.329   2.503   7.567  1.4960 -1.2674 -2.5673
  112CHL1    C814488   5.463   2.669   7.565  0.3887  0.1770 -0.9679
  112CHL1    H814489   5.572   2.687   7.571  0.4120 -0.2427  0.0807
  112CHL1   C1414490   5.422   2.683   7.414  0.0239 -0.0068  0.1976
  112CHL1   H1414491   5.313   2.662   7.405 -0.2125  1.3509 -0.3484
  112CHL1   C1514492   5.483   2.585   7.306 -0.1471 -0.5075  0.2079
  112CHL1  H15A14493   5.591   2.570   7.327 -0.2568 -0.7515  0.5969
  112CHL1  H15B14494   5.423   2.492   7.313 -1.2022  0.1804  0.5406
  112CHL1   C1614495   5.464   2.664   7.175 -0.3172  0.1888 -0.2280
  112CHL1  H16A14496   5.562   2.668   7.123  0.1109 -0.4596  0.5033
  112CHL1  H16B14497   5.393   2.609   7.110  2.1184 -2.6732 -0.6718
  112CHL1   C1714498   5.404   2.806   7.206 -0.4684 -0.2956 -0.0032
  112CHL1   H1714499   5.294   2.790   7.202 -0.9448  0.8808  3.6239
  112CHL1   C1314500   5.426   2.830   7.361 -0.6964  0.6896  0.2478
  112CHL1   C1814501   5.571   2.886   7.372  0.0742  0.4438  0.5359
  112CHL1  H18A14502   5.575   2.997   7.358  2.6386  0.1994 -1.3316
  112CHL1  H18B14503   5.622   2.871   7.469  0.4467  1.2149  0.4740
  112CHL1  H18C14504   5.630   2.834   7.293 -1.4938 -1.7627  0.7223
  112CHL1   C1214505   5.332   2.910   7.442 -0.2384 -0.4493  0.0062
  112CHL1  H12A14506   5.346   3.016   7.411 -2.8002  0.3062  1.1569
  112CHL1  H12B14507   5.229   2.880   7.411 -0.8274  0.8516  0.6026
  112CHL1   C1114508   5.361   2.912   7.592 -0.1874 -0.0223 -0.7184
  112CHL1  H11A14509   5.454   2.970   7.608 -1.2773  1.6057 -0.0300
  112CHL1  H11B14510   5.280   2.969   7.643 -0.5221 -0.1967 -1.0447
  112CHL1    C914511   5.380   2.768   7.648  0.4501 -0.2729 -0.0109
  112CHL1    H914512   5.280   2.720   7.644  0.7700 -0.8961 -0.9569
  112CHL1   C1014513   5.421   2.758   7.801  0.8415 -0.1589  0.1661
  112CHL1   C1914514   5.552   2.837   7.817  0.0327 -0.4442 -0.3673
  112CHL1  H19A14515   5.594   2.808   7.915  2.1673 -0.4602 -1.2505
  112CHL1  H19B14516   5.622   2.808   7.737  1.6710  1.4448  0.3185
  112CHL1  H19C14517   5.530   2.946   7.816  0.9051 -0.1327  2.8373
  112CHL1    C114518   5.302   2.827   7.876 -0.3480 -0.3198  0.3325
  112CHL1   H1A14519   5.305   2.938   7.864 -0.3995 -0.2063  1.2692
  112CHL1   H1B14520   5.205   2.789   7.838  0.1077  0.5168 -1.8194
  112CHL1    C214521   5.306   2.806   8.026  0.4640 -0.5054 -1.2558
  112CHL1   H2A14522   5.224   2.857   8.080  2.8661  0.8819  1.3647
  112CHL1   H2B14523   5.392   2.867   8.063 -0.4154 -0.3234  0.5867
  112CHL1   C2014524   5.441   2.918   7.108 -0.2287 -0.0286 -0.5610
  112CHL1   H2014525   5.549   2.942   7.119  0.1493 -1.4180 -1.0159
  112CHL1   C2114526   5.359   3.048   7.134 -0.1387  0.5068 -0.0509
  112CHL1  H21A14527   5.409   3.102   7.217  0.1517  0.0457  0.0829
  112CHL1  H21B14528   5.253   3.028   7.160  0.3835 -0.7486  1.2586
  112CHL1  H21C14529   5.366   3.110   7.042  3.3647 -1.7301 -1.5507
  112CHL1   C2214530   5.426   2.877   6.962  0.5186 -0.0344 -0.0123
  112CHL1  H22A14531   5.470   2.958   6.900  1.4594 -0.9777 -0.6169
  112CHL1  H22B14532   5.491   2.794   6.928 -0.7957  0.0915 -3.1634
  112CHL1   C2314533   5.282   2.846   6.917 -0.5668 -0.6271  0.2339
  112CHL1  H23A14534   5.253   2.746   6.955  1.4157 -0.3297  2.8340
  112CHL1  H23B14535   5.210   2.916   6.966  0.4161  0.7570 -0.2195
  112CHL1   C2414536   5.265   2.856   6.765 -0.1398  0.0852  0.2566
  112CHL1  H24A14537   5.294   2.756   6.725  1.6432  1.7525 -3.0436
  112CHL1  H24B14538   5.155   2.867   6.765 -0.1586 -0.0964  0.3544
  112CHL1   C2514539   5.346   2.963   6.680 -0.2761  0.1591  0.0131
  112CHL1   H2514540   5.455   2.944   6.673 -0.2219  0.6210 -0.4899
  112CHL1   C2614541   5.298   2.956   6.539 -0.4256 -0.1353 -0.3269
  112CHL1  H26A14542   5.357   3.031   6.481 -2.0862  2.9354  1.6391
  112CHL1  H26B14543   5.326   2.863   6.486 -0.3029  1.0544 -2.4739
  112CHL1  H26C14544   5.190   2.983   6.538  0.0814  3.0457  3.5519
  112CHL1   C2714545   5.326   3.110   6.718  0.4635  0.0232 -0.1327
  112CHL1  H27A14546   5.350   3.180   6.635 -2.0551  1.7152  0.4389
  112CHL1  H27B14547   5.215   3.118   6.728  0.6477  1.1771  1.1783
  112CHL1  H27C14548   5.383   3.132   6.810  1.5214 -1.9221 -0.2661
  113CHL1    C314549   2.072   4.021   7.738 -0.3748  0.3268  0.5064
  113CHL1    H314550   2.182   4.011   7.722 -0.1711 -0.3078  2.1731
  113CHL1    O314551   2.033   4.012   7.875  0.6097  0.0485  0.0292
  113CHL1   H3'14552   1.942   4.042   7.873  0.2541 -0.9989 -0.2173
  113CHL1    C414553   2.025   4.157   7.671  0.5238  0.2551 -0.3878
  113CHL1   H4A14554   1.922   4.172   7.711  0.8235 -0.6158  0.7630
  113CHL1   H4B14555   2.082   4.239   7.719 -2.9751  1.5273  1.9729
  113CHL1    C514556   2.038   4.169   7.520  0.3012  0.8861 -0.0467
  113CHL1    C614557   2.114   4.263   7.457 -0.4557  0.3199  0.4465
  113CHL1    H614558   2.172   4.337   7.514  1.4321 -0.8585  0.1396
  113CHL1    C714559   2.111   4.280   7.304 -0.1112  0.0758  0.2627
  113CHL1   H7A14560   2.110   4.384   7.266  1.9080 -0.6479 -2.0299
  113CHL1   H7B14561   2.192   4.223   7.254 -0.6446 -2.5110  2.0958
  113CHL1    C814562   1.983   4.210   7.248 -0.5650 -0.3873  0.0056
  113CHL1    H814563   1.890   4.261   7.281  0.5150  1.0931  0.8841
  113CHL1   C1414564   1.995   4.204   7.095 -0.2868  0.1172 -0.2293
  113CHL1   H1414565   2.082   4.140   7.070 -1.4447 -0.8112 -2.0689
  113CHL1   C1514566   2.014   4.338   7.025  0.4975  0.3491 -0.2681
  113CHL1  H15A14567   1.953   4.424   7.062  2.1483  1.4619 -0.0185
  113CHL1  H15B14568   2.118   4.370   7.048  0.6896 -1.6000  1.9764
  113CHL1   C1614569   1.983   4.302   6.872  0.1086  0.5678 -0.2522
  113CHL1  H16A14570   1.910   4.380   6.842 -1.5791 -0.0074  2.0319
  113CHL1  H16B14571   2.075   4.306   6.810  0.6515 -0.1806  0.4811
  113CHL1   C1714572   1.926   4.159   6.871  0.2865 -0.2952  0.7951
  113CHL1   H1714573   2.015   4.102   6.838 -0.2506  0.2209 -1.6898
  113CHL1   C1314574   1.889   4.129   7.019  0.2544  0.3649  0.6077
  113CHL1   C1814575   1.750   4.195   7.039 -0.2562  0.0043  0.5088
  113CHL1  H18A14576   1.676   4.139   6.978 -0.8252  1.2819 -0.0117
  113CHL1  H18B14577   1.718   4.207   7.145 -2.0641  2.6596 -0.2215
  113CHL1  H18C14578   1.757   4.299   7.000  1.8498  1.1605  3.5222
  113CHL1   C1214579   1.900   3.982   7.068 -0.8919  0.8373 -0.0071
  113CHL1  H12A14580   1.829   3.919   7.010 -0.7937 -1.8487  2.5891
  113CHL1  H12B14581   2.005   3.951   7.051 -1.6599 -1.8795 -0.2919
  113CHL1   C1114582   1.874   3.975   7.218 -0.5779 -0.4505 -0.4241
  113CHL1  H11A14583   1.773   4.014   7.244  0.5996  1.8577  1.0973
  113CHL1  H11B14584   1.877   3.872   7.260 -0.4481 -0.8141 -1.3144
  113CHL1    C914585   1.978   4.066   7.300  0.5522  0.3111  0.0160
  113CHL1    H914586   2.076   4.019   7.281  0.2690 -0.8354  1.2613
  113CHL1   C1014587   1.951   4.057   7.450  0.4292 -0.4687 -0.3940
  113CHL1   C1914588   1.803   4.094   7.484  0.1742  0.5913  0.0798
  113CHL1  H19A14589   1.771   4.194   7.445 -1.0213  1.1044  2.2447
  113CHL1  H19B14590   1.739   4.018   7.435  1.5860  0.1450 -1.1675
  113CHL1  H19C14591   1.783   4.086   7.593  0.7582 -0.1422  0.1408
  113CHL1    C114592   1.996   3.917   7.514  0.3782 -0.2463  0.6634
  113CHL1   H1A14593   1.919   3.845   7.476  0.8928 -0.0825 -0.7352
  113CHL1   H1B14594   2.091   3.881   7.469  0.1562 -2.3325  1.7390
  113CHL1    C214595   1.997   3.907   7.663  0.5683  1.1112 -0.3607
  113CHL1   H2A14596   2.031   3.807   7.696 -0.9489 -0.1112 -2.2740
  113CHL1   H2B14597   1.893   3.903   7.701  0.9728 -0.9296  0.6796
  113CHL1   C2014598   1.829   4.127   6.753  0.0905 -0.1778 -0.1805
  113CHL1   H2014599   1.736   4.188   6.756  0.1476 -0.1167  1.5475
  113CHL1   C2114600   1.778   3.982   6.756  0.1675 -0.7889  0.2156
  113CHL1  H21A14601   1.705   3.961   6.837 -0.2583 -2.0344 -0.4548
  113CHL1  H21B14602   1.867   3.917   6.766  1.0080  0.4511  1.1428
  113CHL1  H21C14603   1.713   3.964   6.667 -1.0435  3.3062  0.0388
  113CHL1   C2214604   1.895   4.164   6.618  0.6632  0.7421 -0.0570
  113CHL1  H22A14605   1.940   4.266   6.617  0.6206  0.9104 -4.3856
  113CHL1  H22B14606   1.980   4.094   6.602 -0.3473 -0.5559  0.1816
  113CHL1   C2314607   1.792   4.163   6.502 -0.7227  0.0833 -0.8330
  113CHL1  H23A14608   1.740   4.065   6.497 -2.4177  0.9277 -0.5513
  113CHL1  H23B14609   1.718   4.243   6.524 -0.4194 -0.2781  1.9460
  113CHL1   C2414610   1.858   4.196   6.365  0.7094 -0.2849 -0.2640
  113CHL1  H24A14611   1.941   4.270   6.372  1.1386 -0.6085 -1.6519
  113CHL1  H24B14612   1.906   4.100   6.336  1.1857 -0.4441  0.9726
  113CHL1   C2514613   1.762   4.252   6.260 -0.2347 -0.0838  0.5451
  113CHL1   H2514614   1.811   4.253   6.160 -0.1181 -3.1878  0.4614
  113CHL1   C2614615   1.647   4.157   6.235 -0.2396  0.1753  0.4397
  113CHL1  H26A14616   1.683   4.053   6.218 -2.3000 -0.5156  0.0572
  113CHL1  H26B14617   1.577   4.151   6.321  0.2041  1.8672  0.9571
  113CHL1  H26C14618   1.596   4.181   6.139 -0.1636 -0.1358  0.3190
  113CHL1   C2714619   1.701   4.389   6.288 -0.7909  0.1913  0.5728
  113CHL1  H27A14620   1.625   4.381   6.368 -2.1728  1.2170 -0.5881
  113CHL1  H27B14621   1.772   4.469   6.320 -0.5816 -0.9158  3.0591
  113CHL1  H27C14622   1.658   4.416   6.189  0.7672 -0.1225 -0.2276
  114CHL1    C314623   4.949   1.880   8.160 -0.0746  0.2882  0.9215
  114CHL1    H314624   4.901   1.979   8.161  1.7057  1.2903 -1.5378
  114CHL1    O314625   4.972   1.852   8.297  0.1352 -0.1449 -0.2840
  114CHL1   H3'14626   5.031   1.924   8.322  3.1787 -1.6740 -2.5198
  114CHL1    C414627   4.853   1.785   8.088 -0.0988  0.1914 -0.2482
  114CHL1   H4A14628   4.888   1.682   8.106  1.2032  0.4857 -0.9799
  114CHL1   H4B14629   4.758   1.797   8.145 -0.5058 -2.9920 -0.0996
  114CHL1    C514630   4.839   1.820   7.943  0.0853 -0.3044 -0.1865
  114CHL1    C614631   4.713   1.840   7.898 -0.1032 -0.2067  0.1783
  114CHL1    H614632   4.628   1.822   7.964 -0.2112 -0.0968  0.0686
  114CHL1    C714633   4.673   1.858   7.755  0.1030  0.6189  0.1502
  114CHL1   H7A14634   4.597   1.783   7.727 -0.4249  0.8055  1.0529
  114CHL1   H7B14635   4.617   1.953   7.742  0.5632  0.7156 -1.3065
  114CHL1    C814636   4.795   1.825   7.664  0.3973  0.0864  0.1798
  114CHL1    H814637   4.802   1.714   7.661  0.6545  0.1132 -0.2390
  114CHL1   C1414638   4.770   1.888   7.529 -0.2717  0.6608  0.1549
  114CHL1   H1414639   4.766   1.998   7.543 -0.3188  0.6539  0.1932
  114CHL1   C1514640   4.637   1.851   7.462  0.6690  0.1735  0.5371
  114CHL1  H15A14641   4.622   1.742   7.476 -1.1727  0.3160 -0.1268
  114CHL1  H15B14642   4.554   1.910   7.505 -0.3278  1.2093 -2.5748
  114CHL1   C1614643   4.651   1.892   7.319  0.2669  0.5448 -0.0708
  114CHL1  H16A14644   4.618   1.800   7.265  1.8828  0.4925 -1.0034
  114CHL1  H16B14645   4.587   1.977   7.287  2.5222  2.5327  0.5032
  114CHL1   C1714646   4.805   1.924   7.296  0.1125 -0.0987 -0.4064
  114CHL1   H1714647   4.819   2.034   7.307  2.3453 -0.3256 -0.5894
  114CHL1   C1314648   4.879   1.858   7.420  0.5280  0.3313  0.1450
  114CHL1   C1814649   4.890   1.704   7.400 -0.2799 -0.6614  0.4226
  114CHL1  H18A14650   4.815   1.674   7.324 -2.7248  2.8038  1.2338
  114CHL1  H18B14651   4.990   1.682   7.357 -0.5583 -2.2050  0.4918
  114CHL1  H18C14652   4.893   1.640   7.491 -1.9931  0.3905  1.2771
  114CHL1   C1214653   5.015   1.918   7.472  0.0068 -0.4865  0.1184
  114CHL1  H12A14654   5.092   1.898   7.395  0.7191  2.4389 -0.0298
  114CHL1  H12B14655   5.003   2.028   7.477  1.5017  0.0148 -4.0989
  114CHL1   C1114656   5.046   1.859   7.618  0.0659  0.4125  0.2196
  114CHL1  H11A14657   5.072   1.755   7.588 -0.9145  0.0029  0.7620
  114CHL1  H11B14658   5.145   1.902   7.643  1.2980 -1.6482 -0.8317
  114CHL1    C914659   4.931   1.877   7.717  0.0504 -0.2289  0.0944
  114CHL1    H914660   4.910   1.986   7.722  0.5763 -0.1435  0.5578
  114CHL1   C1014661   4.962   1.828   7.857 -0.3691  0.1088  0.2455
  114CHL1   C1914662   5.019   1.683   7.853 -0.3221 -0.0596  0.0864
  114CHL1  H19A14663   5.118   1.671   7.804 -0.4137 -0.2219 -0.0600
  114CHL1  H19B14664   5.036   1.641   7.954  1.9507 -0.9637 -0.6194
  114CHL1  H19C14665   4.939   1.617   7.811  0.4145 -1.0872  0.2625
  114CHL1    C114666   5.055   1.922   7.936 -0.0011 -0.6374  0.0012
  114CHL1   H1A14667   5.157   1.922   7.891  0.3992  2.7979  0.6278
  114CHL1   H1B14668   5.020   2.027   7.930 -0.9189 -1.0393 -2.8310
  114CHL1    C214669   5.082   1.886   8.089 -0.0684  1.1042  0.1110
  114CHL1   H2A14670   5.140   1.969   8.136 -0.4310  0.8720  0.9776
  114CHL1   H2B14671   5.145   1.794   8.097 -1.5977  0.0487  0.3885
  114CHL1   C2014672   4.853   1.894   7.158 -0.4800  0.0007  0.0277
  114CHL1   H2014673   4.870   1.786   7.139  1.1502  0.1760  0.3866
  114CHL1   C2114674   4.989   1.963   7.142 -0.1264  0.0575 -0.4191
  114CHL1  H21A14675   5.075   1.931   7.205  0.0267  1.4771  0.1385
  114CHL1  H21B14676   4.972   2.073   7.152 -1.1991 -0.0062 -1.3976
  114CHL1  H21C14677   5.025   1.945   7.039  0.1101  1.3162 -0.5834
  114CHL1   C2214678   4.752   1.946   7.059 -0.1003 -0.2321 -0.4266
  114CHL1  H22A14679   4.648   1.909   7.066 -0.3084  0.1529 -1.3563
  114CHL1  H22B14680   4.755   2.052   7.093  1.7626 -0.9230  1.8186
  114CHL1   C2314681   4.805   1.938   6.909 -0.7294 -0.3227 -0.4172
  114CHL1  H23A14682   4.883   2.017   6.900  0.2380 -1.1064  0.7634
  114CHL1  H23B14683   4.858   1.843   6.884 -0.6874  0.1875 -2.4698
  114CHL1   C2414684   4.697   1.955   6.801 -0.0495  0.1353  0.5776
  114CHL1  H24A14685   4.750   1.967   6.704  1.4567  1.2126  1.4816
  114CHL1  H24B14686   4.628   1.868   6.800  0.2577 -0.1311 -1.2938
  114CHL1   C2514687   4.616   2.083   6.817  0.1772  0.1949  0.5536
  114CHL1   H2514688   4.576   2.079   6.921  0.6912 -1.1866  0.7290
  114CHL1   C2614689   4.701   2.206   6.797  0.1665 -0.4605 -0.1324
  114CHL1  H26A14690   4.788   2.196   6.866  1.4140 -1.3277 -1.7680
  114CHL1  H26B14691   4.736   2.209   6.692 -1.1372  1.0283 -0.5518
  114CHL1  H26C14692   4.645   2.300   6.816  2.1744  0.8886 -0.5934
  114CHL1   C2714693   4.499   2.099   6.720 -0.3658  0.3914 -0.0132
  114CHL1  H27A14694   4.423   2.019   6.736  0.9036 -0.5952  1.2610
  114CHL1  H27B14695   4.448   2.198   6.726 -2.7653 -0.3981 -3.9274
  114CHL1  H27C14696   4.539   2.089   6.617 -0.8329  0.5375 -0.2091
  115CHL1    C314697   4.589   3.188   8.044 -0.3277  0.0302  0.2231
  115CHL1    H314698   4.609   3.099   7.981  0.9520  2.2397 -2.6990
  115CHL1    O314699   4.666   3.190   8.169  0.6870  0.2913  0.3352
  115CHL1   H3'14700   4.742   3.246   8.153 -0.0830  1.7647  1.5036
  115CHL1    C414701   4.633   3.310   7.960  0.0336 -0.2099 -0.2969
  115CHL1   H4A14702   4.619   3.396   8.029  1.4498 -0.1862 -0.0094
  115CHL1   H4B14703   4.742   3.325   7.944 -0.4450  3.1191 -1.3274
  115CHL1    C514704   4.553   3.321   7.835  0.4085  0.1125  0.6609
  115CHL1    C614705   4.611   3.307   7.715 -0.5743 -0.3732  0.1435
  115CHL1    H614706   4.716   3.277   7.703 -0.9983 -1.5052 -0.9840
  115CHL1    C714707   4.538   3.321   7.591  0.4931 -0.0910  0.0831
  115CHL1   H7A14708   4.588   3.388   7.517 -1.7618 -0.6598 -2.0945
  115CHL1   H7B14709   4.517   3.226   7.537 -0.4945 -0.6600  1.4282
  115CHL1    C814710   4.395   3.395   7.602 -0.1461  0.3665 -0.5964
  115CHL1    H814711   4.415   3.499   7.633  1.0830  0.5572 -1.9129
  115CHL1   C1414712   4.312   3.378   7.478  0.9639  0.2682  0.0061
  115CHL1   H1414713   4.285   3.270   7.473 -0.7902  0.5690  1.6456
  115CHL1   C1514714   4.367   3.410   7.337 -0.3718 -0.4405 -0.2848
  115CHL1  H15A14715   4.429   3.502   7.349 -1.5132  0.1880  1.1566
  115CHL1  H15B14716   4.432   3.322   7.318  1.3634  0.2051  2.2101
  115CHL1   C1614717   4.239   3.422   7.250  0.9227 -0.4437 -0.2775
  115CHL1  H16A14718   4.247   3.521   7.200  1.1726 -0.3861 -0.1286
  115CHL1  H16B14719   4.227   3.336   7.181  0.0733  0.1056 -0.8216
  115CHL1   C1714720   4.118   3.417   7.344 -0.1076  0.6922 -0.1067
  115CHL1   H1714721   4.090   3.310   7.334 -0.0122  0.7473 -1.0560
  115CHL1   C1314722   4.170   3.440   7.486 -0.5736 -0.5933  0.9386
  115CHL1   C1814723   4.179   3.597   7.499 -0.8723 -0.2209 -0.6916
  115CHL1  H18A14724   4.250   3.634   7.575 -0.3243 -0.7027 -0.9557
  115CHL1  H18B14725   4.219   3.637   7.403 -0.4744  0.5638 -0.2119
  115CHL1  H18C14726   4.079   3.641   7.512 -1.2184 -0.9040 -0.9677
  115CHL1   C1214727   4.094   3.375   7.604 -0.1084 -0.3289  0.0900
  115CHL1  H12A14728   4.007   3.443   7.616  1.9133  2.2426  1.0788
  115CHL1  H12B14729   4.061   3.275   7.571  0.2185 -0.7155  0.9017
  115CHL1   C1114730   4.179   3.376   7.738 -0.1725  0.1017  0.9373
  115CHL1  H11A14731   4.183   3.482   7.772  1.2828  1.0209 -1.7846
  115CHL1  H11B14732   4.120   3.318   7.812 -1.6024  0.1879 -0.0886
  115CHL1    C914733   4.323   3.326   7.724 -1.0557 -0.1052  0.6211
  115CHL1    H914734   4.322   3.217   7.704  0.8897 -0.1436  0.5356
  115CHL1   C1014735   4.403   3.338   7.857 -0.2146 -0.0991 -0.6058
  115CHL1   C1914736   4.373   3.469   7.933 -0.2422 -0.3580  0.2741
  115CHL1  H19A14737   4.398   3.552   7.863 -0.9612  0.6978  1.2396
  115CHL1  H19B14738   4.267   3.472   7.965  0.0494  1.8864  1.2096
  115CHL1  H19C14739   4.437   3.490   8.021 -0.4297  0.8021  0.1531
  115CHL1    C114740   4.353   3.219   7.943 -0.8065 -1.1719 -0.4093
  115CHL1   H1A14741   4.253   3.245   7.983  0.4481  0.5910  1.8421
  115CHL1   H1B14742   4.343   3.128   7.881 -3.6883 -0.7827 -0.6742
  115CHL1    C214743   4.435   3.191   8.072  0.1848  0.0222  1.2304
  115CHL1   H2A14744   4.397   3.103   8.128  1.2276 -0.8553  0.5937
  115CHL1   H2B14745   4.432   3.280   8.138 -0.4221  1.0334 -0.1179
  115CHL1   C2014746   4.004   3.501   7.280  0.7447 -0.4938  0.6148
  115CHL1   H2014747   4.039   3.605   7.267  1.4339 -0.9361 -1.4009
  115CHL1   C2114748   3.879   3.513   7.363  0.7529  0.6875  0.1948
  115CHL1  H21A14749   3.827   3.415   7.359 -1.2906  1.6975  0.7754
  115CHL1  H21B14750   3.806   3.581   7.314  1.5472  1.0915 -0.4473
  115CHL1  H21C14751   3.892   3.548   7.468  3.3790 -0.4001  0.3188
  115CHL1   C2214752   3.969   3.447   7.137  0.1620 -0.9489  0.7920
  115CHL1  H22A14753   4.060   3.462   7.075  0.4530 -2.4973  0.8078
  115CHL1  H22B14754   3.952   3.337   7.143 -0.4951 -1.0103 -1.4468
  115CHL1   C2314755   3.847   3.507   7.060 -0.8577 -0.7190 -1.1039
  115CHL1  H23A14756   3.756   3.493   7.123  0.3895  1.2302  1.3286
  115CHL1  H23B14757   3.859   3.616   7.041 -1.6734 -0.7465 -1.8262
  115CHL1   C2414758   3.831   3.438   6.927  0.2758  0.3479 -0.0507
  115CHL1  H24A14759   3.919   3.472   6.869  1.6169  0.0790  1.7167
  115CHL1  H24B14760   3.844   3.329   6.946  2.1749  0.8537  2.0020
  115CHL1   C2514761   3.705   3.457   6.841 -0.3776  0.1766 -0.2356
  115CHL1   H2514762   3.613   3.427   6.895  0.2728  1.7426  1.8714
  115CHL1   C2614763   3.700   3.598   6.799  0.8742  0.3598 -0.6433
  115CHL1  H26A14764   3.784   3.627   6.731  1.4058  0.1810 -0.0721
  115CHL1  H26B14765   3.596   3.613   6.764 -0.4482 -0.0391  2.7815
  115CHL1  H26C14766   3.699   3.666   6.887 -3.4682  2.7420 -2.2058
  115CHL1   C2714767   3.727   3.366   6.726 -0.3066  0.2910 -0.2177
  115CHL1  H27A14768   3.648   3.380   6.649  0.5092 -2.0554 -1.5839
  115CHL1  H27B14769   3.821   3.402   6.679 -1.3164  1.7256 -1.2228
  115CHL1  H27C14770   3.723   3.259   6.757  1.1020  0.7132  1.5941
  116CHL1    C314771   4.663   3.714   7.999  0.2662  0.0482  0.2468
  116CHL1    H314772   4.624   3.612   7.978  0.2188 -0.0684  0.8804
  116CHL1    O314773   4.638   3.734   8.133  0.2146  0.1979 -0.3043
  116CHL1   H3'14774   4.662   3.653   8.178  0.6266  0.1110 -0.6714
  116CHL1    C414775   4.816   3.728   7.970 -0.1495  0.3345  0.1720
  116CHL1   H4A14776   4.846   3.832   7.998 -1.4259  0.1418  2.4589
  116CHL1   H4B14777   4.867   3.667   8.047 -0.9204  1.2425  1.4390
  116CHL1    C514778   4.843   3.693   7.829 -0.9135  0.7383  0.2254
  116CHL1    C614779   4.923   3.586   7.794  0.6141 -0.0155 -0.1425
  116CHL1    H614780   4.970   3.523   7.872  0.1543  0.3093  0.4086
  116CHL1    C714781   4.967   3.573   7.655  0.2734 -0.1436 -0.4502
  116CHL1   H7A14782   5.076   3.554   7.655  0.7358  1.2693 -4.9756
  116CHL1   H7B14783   4.900   3.497   7.610  0.3649 -0.6864  0.3154
  116CHL1    C814784   4.947   3.695   7.566 -0.8447 -0.4945  0.0313
  116CHL1    H814785   5.013   3.780   7.594 -1.8998  0.3309  0.0710
  116CHL1   C1414786   4.968   3.653   7.423  0.1009  0.2152  0.2546
  116CHL1   H1414787   4.892   3.575   7.402  1.2083 -0.7173 -0.4177
  116CHL1   C1514788   5.097   3.579   7.381  0.1493 -0.4068 -0.8916
  116CHL1  H15A14789   5.186   3.626   7.429 -0.1285 -0.5173 -0.2707
  116CHL1  H15B14790   5.116   3.471   7.397 -1.0423 -0.3473  1.2678
  116CHL1   C1614791   5.099   3.607   7.226 -0.7112 -0.4868 -0.2686
  116CHL1  H16A14792   5.193   3.665   7.210 -0.9354  0.5497  1.7962
  116CHL1  H16B14793   5.091   3.515   7.165 -1.5507  1.2821 -3.0347
  116CHL1   C1714794   4.971   3.695   7.191  0.5992  0.2902  0.0162
  116CHL1   H1714795   4.889   3.622   7.172  0.8190  0.6068 -2.4612
  116CHL1   C1314796   4.936   3.765   7.324  0.3921  0.2189 -0.3508
  116CHL1   C1814797   5.028   3.889   7.350  0.6833  0.3488  0.6826
  116CHL1  H18A14798   5.136   3.872   7.366  0.8698  2.1562  1.5525
  116CHL1  H18B14799   5.019   3.955   7.261 -0.2912  0.1703  0.6314
  116CHL1  H18C14800   4.999   3.947   7.440  2.4293 -0.0331  1.5354
  116CHL1   C1214801   4.789   3.794   7.337  0.6307 -0.1808  0.0269
  116CHL1  H12A14802   4.754   3.871   7.265 -1.9802 -1.3961 -0.1292
  116CHL1  H12B14803   4.729   3.702   7.318  1.3855 -0.2900 -2.1624
  116CHL1   C1114804   4.756   3.844   7.478 -0.3793  0.3663 -0.0243
  116CHL1  H11A14805   4.806   3.942   7.490 -2.6512  1.7002 -0.7450
  116CHL1  H11B14806   4.648   3.864   7.493 -0.0517  1.5649  0.8314
  116CHL1    C914807   4.799   3.745   7.589  0.2939 -0.1482  0.3703
  116CHL1    H914808   4.741   3.651   7.577  0.5821 -0.1042 -1.6822
  116CHL1   C1014809   4.774   3.795   7.735  0.2295 -0.9213 -0.2234
  116CHL1   C1914810   4.840   3.932   7.755 -0.4355 -0.1388  0.0882
  116CHL1  H19A14811   4.800   4.007   7.683  0.6656 -0.8696 -1.3586
  116CHL1  H19B14812   4.828   3.972   7.858  0.9556  1.8895 -0.4778
  116CHL1  H19C14813   4.950   3.926   7.740 -0.1641 -0.7564  2.1454
  116CHL1    C114814   4.620   3.798   7.767  0.2383 -0.2973  0.2173
  116CHL1   H1A14815   4.572   3.886   7.720 -1.7054 -0.7189  1.3085
  116CHL1   H1B14816   4.566   3.708   7.732  1.0084 -0.8883  0.5246
  116CHL1    C214817   4.586   3.819   7.915 -0.4309 -0.5022 -0.1255
  116CHL1   H2A14818   4.476   3.817   7.935 -0.9243  1.3189 -2.1927
  116CHL1   H2B14819   4.626   3.918   7.946  1.9384 -1.4504  0.0500
  116CHL1   C2014820   4.984   3.778   7.065 -0.0690  0.2438 -0.3943
  116CHL1   H2014821   5.068   3.843   7.097  1.2281 -1.0294 -1.0928
  116CHL1   C2114822   4.856   3.856   7.030 -0.6396 -0.3062  0.2666
  116CHL1  H21A14823   4.839   3.934   7.108 -0.8663 -2.3049  2.3010
  116CHL1  H21B14824   4.773   3.785   7.048 -1.1988  0.6221  1.5341
  116CHL1  H21C14825   4.851   3.909   6.932 -0.0405  1.8281  1.3322
  116CHL1   C2214826   5.036   3.696   6.943  0.2716  0.3078 -0.1086
  116CHL1  H22A14827   5.043   3.773   6.863 -4.4743  1.4009  0.2544
  116CHL1  H22B14828   5.138   3.656   6.963 -0.5588 -2.0471 -0.3275
  116CHL1   C2314829   4.944   3.582   6.906  0.1561 -0.3850  0.3213
  116CHL1  H23A14830   4.923   3.523   6.998 -1.8002  0.1961  0.2928
  116CHL1  H23B14831   4.843   3.619   6.880  0.5356 -0.0342 -0.7048
  116CHL1   C2414832   4.993   3.499   6.782 -0.0916 -0.3576 -0.6666
  116CHL1  H24A14833   5.004   3.571   6.698  0.5836  0.4964  0.1305
  116CHL1  H24B14834   5.097   3.462   6.796 -0.6597 -1.8297 -0.2050
  116CHL1   C2514835   4.903   3.381   6.745 -0.0832  0.9416  0.4165
  116CHL1   H2514836   4.906   3.310   6.830 -2.3095 -1.9042 -1.6587
  116CHL1   C2614837   4.761   3.431   6.701 -0.1899  0.0884  0.0806
  116CHL1  H26A14838   4.774   3.459   6.594  0.2632 -0.4524 -0.0079
  116CHL1  H26B14839   4.706   3.334   6.702 -0.2348  0.1122 -0.0635
  116CHL1  H26C14840   4.727   3.507   6.775  1.8241  0.2359  0.9052
  116CHL1   C2714841   4.969   3.291   6.625  0.1855  0.1034  1.2546
  116CHL1  H27A14842   4.912   3.196   6.616 -0.8545  0.8995 -1.3667
  116CHL1  H27B14843   4.960   3.350   6.532  0.9535 -0.6629  0.6818
  116CHL1  H27C14844   5.075   3.260   6.638  0.8536 -0.4851 -3.6596
  117CHL1    C314845   4.838   2.388   8.012  0.3334  0.5460  0.7773
  117CHL1    H314846   4.727   2.391   8.013 -0.0758 -2.4121 -3.9026
  117CHL1    O314847   4.883   2.347   8.140  0.3077  0.0515 -0.1083
  117CHL1   H3'14848   4.978   2.358   8.141  0.1778  1.4640 -0.4309
  117CHL1    C414849   4.866   2.285   7.897 -0.4129  0.7911  0.4588
  117CHL1   H4A14850   4.971   2.251   7.911 -0.9592 -1.6787 -0.8974
  117CHL1   H4B14851   4.807   2.194   7.923  0.2134  0.2384 -0.0102
  117CHL1    C514852   4.849   2.330   7.753  0.1406  0.2779 -0.0642
  117CHL1    C614853   4.771   2.264   7.667 -0.3169 -0.0419 -0.0471
  117CHL1    H614854   4.738   2.167   7.704  0.1366  0.3605  1.4829
  117CHL1    C714855   4.739   2.322   7.527  0.0658 -0.3407  0.0417
  117CHL1   H7A14856   4.728   2.237   7.456  2.1246 -0.0705 -0.6388
  117CHL1   H7B14857   4.645   2.382   7.528  0.7225  0.7526 -1.1380
  117CHL1    C814858   4.859   2.409   7.480  1.0536 -0.2071 -0.9837
  117CHL1    H814859   4.950   2.350   7.457  3.0805  1.7798  1.4171
  117CHL1   C1414860   4.815   2.479   7.348  0.6153  0.4230 -0.2845
  117CHL1   H1414861   4.724   2.539   7.372 -0.0213  0.0197 -1.6243
  117CHL1   C1514862   4.786   2.388   7.222 -0.1941  0.0603  0.1013
  117CHL1  H15A14863   4.864   2.308   7.215  0.0949  0.1122  1.9824
  117CHL1  H15B14864   4.687   2.341   7.238 -1.1016  2.3798  1.8142
  117CHL1   C1614865   4.779   2.485   7.106  0.4312  0.0042  0.1047
  117CHL1  H16A14866   4.838   2.443   7.022  0.6468 -0.7713  0.6355
  117CHL1  H16B14867   4.676   2.503   7.069  1.1490  0.4505 -1.7539
  117CHL1   C1714868   4.824   2.625   7.165 -0.6495 -0.5175 -0.0253
  117CHL1   H1714869   4.728   2.668   7.199 -1.2690  0.0694 -2.3746
  117CHL1   C1314870   4.904   2.594   7.297 -0.1827  0.6272  0.0327
  117CHL1   C1814871   5.040   2.535   7.254 -0.6092  0.7710 -0.5716
  117CHL1  H18A14872   5.073   2.483   7.347  5.2890  1.7957 -1.6956
  117CHL1  H18B14873   5.031   2.473   7.162  2.1229  0.3655 -0.6496
  117CHL1  H18C14874   5.121   2.608   7.234  1.1145 -0.4572  1.5019
  117CHL1   C1214875   4.921   2.701   7.402 -0.1712  0.2082 -0.3453
  117CHL1  H12A14876   5.000   2.776   7.384  1.6048 -0.8936  2.1934
  117CHL1  H12B14877   4.821   2.750   7.409 -0.6554 -0.7249 -0.5242
  117CHL1   C1114878   4.972   2.641   7.535  0.2317  0.2999 -0.3066
  117CHL1  H11A14879   5.077   2.607   7.523 -0.7300 -3.7056  1.3459
  117CHL1  H11B14880   4.971   2.717   7.617  2.2272  0.9819 -0.8554
  117CHL1    C914881   4.886   2.522   7.584  0.7577  0.7308 -0.3159
  117CHL1    H914882   4.785   2.567   7.589 -0.3147 -1.3957 -1.3745
  117CHL1   C1014883   4.923   2.462   7.720  0.2012 -0.1914 -0.7190
  117CHL1   C1914884   5.080   2.442   7.722  0.6295 -0.0840  0.4355
  117CHL1  H19A14885   5.107   2.381   7.811  1.2232  0.7616  0.8453
  117CHL1  H19B14886   5.111   2.390   7.629 -0.2508 -0.5889  0.4138
  117CHL1  H19C14887   5.135   2.538   7.729  0.8250  0.1996 -3.0618
  117CHL1    C114888   4.875   2.561   7.832 -0.1572 -0.0045  0.2450
  117CHL1   H1A14889   4.920   2.661   7.815 -1.3147  0.4020 -0.6130
  117CHL1   H1B14890   4.765   2.568   7.819 -0.1212 -1.0065 -0.7452
  117CHL1    C214891   4.896   2.521   7.982 -0.3916  0.2959  0.5879
  117CHL1   H2A14892   4.865   2.601   8.053 -0.7518 -0.4557  1.2911
  117CHL1   H2B14893   5.005   2.506   7.997  0.0457  0.1216 -2.2366
  117CHL1   C2014894   4.878   2.722   7.057 -0.0412  0.2981  0.0175
  117CHL1   H2014895   4.975   2.684   7.018  0.4860 -0.3284  1.8294
  117CHL1   C2114896   4.912   2.855   7.129 -0.2816  0.2161 -0.6215
  117CHL1  H21A14897   4.947   2.929   7.055  4.2623 -1.4930 -0.4848
  117CHL1  H21B14898   5.003   2.842   7.192 -1.2292  1.1237  1.0061
  117CHL1  H21C14899   4.828   2.893   7.191  0.4133 -0.4080  0.7515
  117CHL1   C2214900   4.769   2.737   6.945  0.1371 -0.1278  0.3773
  117CHL1  H22A14901   4.716   2.646   6.910 -0.9762  1.0197 -1.0411
  117CHL1  H22B14902   4.686   2.802   6.976 -1.2990 -1.4009 -0.6394
  117CHL1   C2314903   4.824   2.790   6.812 -0.7208 -0.1119 -0.1970
  117CHL1  H23A14904   4.737   2.819   6.748 -0.5235  1.4163  0.1867
  117CHL1  H23B14905   4.868   2.891   6.824 -0.5538 -0.4149  2.1764
  117CHL1   C2414906   4.919   2.695   6.733  0.2990  0.3951  0.2241
  117CHL1  H24A14907   5.019   2.702   6.781  0.9013 -1.5641 -0.6624
  117CHL1  H24B14908   4.886   2.590   6.748 -2.2090  1.1046  0.0678
  117CHL1   C2514909   4.941   2.723   6.583  0.1122  0.2596  0.7096
  117CHL1   H2514910   4.987   2.824   6.579  4.2612 -1.4603 -3.5382
  117CHL1   C2614911   5.042   2.629   6.521  0.1605  0.3516 -0.0790
  117CHL1  H26A14912   5.009   2.525   6.542  0.3539  0.3515  0.2422
  117CHL1  H26B14913   5.062   2.652   6.415  1.0498 -0.8173 -0.1828
  117CHL1  H26C14914   5.140   2.646   6.571  0.8164  0.1639 -1.2655
  117CHL1   C2714915   4.805   2.720   6.499 -0.0128 -0.0679  0.0716
  117CHL1  H27A14916   4.729   2.795   6.526 -1.4401 -1.1247 -0.8705
  117CHL1  H27B14917   4.835   2.739   6.393 -1.0261  2.9565  0.2407
  117CHL1  H27C14918   4.759   2.621   6.519  1.1386 -0.3747  1.3368
  118CHL1    C314919   0.584   0.859   7.604 -0.2801  0.1935  0.0155
  118CHL1    H314920   0.692   0.844   7.585 -0.6333  1.1188 -3.1349
  118CHL1    O314921   0.565   0.832   7.742  0.6483  0.1503 -0.2923
  118CHL1   H3'14922   0.472   0.831   7.765  1.3302  2.1072  3.5070
  118CHL1    C414923   0.533   1.006   7.578  0.1743 -0.1592  0.3003
  118CHL1   H4A14924   0.426   1.008   7.608 -0.0481  3.3633 -0.3101
  118CHL1   H4B14925   0.596   1.081   7.630  0.7687  0.1591 -0.8460
  118CHL1    C514926   0.536   1.053   7.436 -0.6231 -0.0110  0.0017
  118CHL1    C614927   0.586   1.171   7.403  0.2034 -0.1350 -0.2866
  118CHL1    H614928   0.628   1.228   7.487  0.5688 -0.2598 -0.3856
  118CHL1    C714929   0.603   1.225   7.269  0.2679 -0.9488  0.0065
  118CHL1   H7A14930   0.574   1.332   7.266 -1.1042 -1.2545  0.9829
  118CHL1   H7B14931   0.709   1.215   7.239  1.0792  0.7713  2.0331
  118CHL1    C814932   0.518   1.144   7.170  0.2978  0.2005  0.0140
  118CHL1    H814933   0.412   1.175   7.184  0.0649  0.8769 -2.7965
  118CHL1   C1414934   0.554   1.177   7.028  0.0101 -0.1051 -0.3282
  118CHL1   H1414935   0.659   1.140   7.029  0.3965  0.9690 -0.5759
  118CHL1   C1514936   0.561   1.323   6.979 -0.2228 -0.1380  0.4078
  118CHL1  H15A14937   0.465   1.379   6.991  0.8519  1.9702 -0.2565
  118CHL1  H15B14938   0.649   1.381   7.014 -1.0788  2.7507 -1.7705
  118CHL1   C1614939   0.590   1.302   6.825  0.2604 -0.3262 -0.3834
  118CHL1  H16A14940   0.516   1.362   6.768  0.6766  1.0104  0.4452
  118CHL1  H16B14941   0.690   1.345   6.801  1.3151 -1.1889  2.1665
  118CHL1   C1714942   0.563   1.149   6.790 -0.4258 -0.0006 -0.4724
  118CHL1   H1714943   0.663   1.100   6.790 -0.7803 -0.7326 -0.7895
  118CHL1   C1314944   0.495   1.096   6.913  0.3314 -0.3822 -0.0017
  118CHL1   C1814945   0.344   1.148   6.907 -0.6997 -0.4628  0.4700
  118CHL1  H18A14946   0.295   1.131   7.006 -1.4208  1.8526  0.5756
  118CHL1  H18B14947   0.332   1.255   6.879  0.0016  0.2261  2.5749
  118CHL1  H18C14948   0.288   1.094   6.828  0.9312  0.7584 -1.6199
  118CHL1   C1214949   0.512   0.947   6.943  0.0625 -0.1782 -0.0098
  118CHL1  H12A14950   0.459   0.886   6.867  0.2968  1.1312 -1.2613
  118CHL1  H12B14951   0.619   0.919   6.935  1.0980  3.2868  0.0802
  118CHL1   C1114952   0.455   0.903   7.082 -0.5719  0.1400  0.3269
  118CHL1  H11A14953   0.345   0.917   7.085 -0.5943 -0.1367  1.0111
  118CHL1  H11B14954   0.473   0.793   7.085 -4.9232 -0.7853 -0.8197
  118CHL1    C914955   0.524   0.984   7.193  0.0116  0.0705 -0.1456
  118CHL1    H914956   0.631   0.960   7.180 -0.3839 -0.7590 -2.3873
  118CHL1   C1014957   0.487   0.947   7.332 -0.3043 -0.3853 -0.3091
  118CHL1   C1914958   0.331   0.958   7.339  0.5243  0.1095  0.4761
  118CHL1  H19A14959   0.298   0.969   7.444  1.4921  1.6014  0.6566
  118CHL1  H19B14960   0.286   1.052   7.303 -0.3279  0.3377  2.0594
  118CHL1  H19C14961   0.293   0.869   7.285  2.7213  0.3382 -1.6397
  118CHL1    C114962   0.541   0.805   7.371  0.1246 -0.1986 -0.0254
  118CHL1   H1A14963   0.490   0.731   7.306  2.8304 -1.9862 -0.2916
  118CHL1   H1B14964   0.651   0.797   7.358 -0.0126 -1.4788 -0.5537
  118CHL1    C214965   0.505   0.763   7.520 -0.5308 -0.5341  0.4481
  118CHL1   H2A14966   0.554   0.668   7.551 -0.2075 -0.4957  0.0635
  118CHL1   H2B14967   0.398   0.771   7.550 -0.3531  0.7192  0.7993
  118CHL1   C2014968   0.502   1.132   6.653 -0.8146 -0.6152 -0.1770
  118CHL1   H2014969   0.415   1.201   6.652  2.2342  3.6515  1.5976
  118CHL1   C2114970   0.463   0.989   6.613  0.2408  0.0234  0.3363
  118CHL1  H21A14971   0.431   0.983   6.506  0.9703  0.5955  0.0804
  118CHL1  H21B14972   0.388   0.940   6.679  1.0588 -0.2223  1.0982
  118CHL1  H21C14973   0.554   0.926   6.619  0.9213  0.8536 -0.8706
  118CHL1   C2214974   0.601   1.187   6.541 -0.8698  0.0850  0.1942
  118CHL1  H22A14975   0.618   1.294   6.565  0.3346 -0.1047  0.2771
  118CHL1  H22B14976   0.698   1.133   6.546 -1.2728 -0.6237  0.4312
  118CHL1   C2314977   0.552   1.187   6.392  0.5779  0.6707 -0.8545
  118CHL1  H23A14978   0.530   1.084   6.359  0.9846  0.3256 -0.0777
  118CHL1  H23B14979   0.458   1.248   6.389  1.0516  1.4753  0.1168
  118CHL1   C2414980   0.650   1.254   6.295  0.1045 -0.1919 -0.0471
  118CHL1  H24A14981   0.692   1.341   6.351  0.5162  0.1142 -0.8293
  118CHL1  H24B14982   0.738   1.189   6.277  2.2134  1.9027  1.9249
  118CHL1   C2514983   0.578   1.295   6.169  0.3907  0.3327 -0.0987
  118CHL1   H2514984   0.492   1.364   6.176 -0.3824 -0.4916 -1.1851
  118CHL1   C2614985   0.677   1.359   6.068  1.2516 -0.1177  0.1688
  118CHL1  H26A14986   0.772   1.303   6.055  1.9458  1.2451 -0.9234
  118CHL1  H26B14987   0.643   1.363   5.962  0.8152  0.3732  0.3218
  118CHL1  H26C14988   0.704   1.464   6.093  0.1450 -0.1101  1.4260
  118CHL1   C2714989   0.533   1.161   6.094 -0.3429  0.6488 -0.4710
  118CHL1  H27A14990   0.624   1.099   6.079 -0.8030 -0.0334 -0.4744
  118CHL1  H27B14991   0.458   1.109   6.156  0.8708  0.1376  0.6201
  118CHL1  H27C14992   0.484   1.200   6.002 -1.2181  0.7144  0.0144
  119CHL1    C314993   2.416   3.048   8.384 -0.5039  0.4726  0.0381
  119CHL1    H314994   2.411   3.158   8.365  0.9535  0.2908 -1.6818
  119CHL1    O314995   2.360   3.025   8.514 -0.1126 -0.5731 -0.7120
  119CHL1   H3'14996   2.411   2.948   8.537  0.1150 -0.9645 -2.3661
  119CHL1    C414997   2.337   2.964   8.286 -0.1049 -0.1837  0.6492
  119CHL1   H4A14998   2.323   2.860   8.322 -1.9514 -0.8310 -1.6858
  119CHL1   H4B14999   2.235   3.006   8.293 -0.9640 -2.3775  2.8737
  119CHL1    C515000   2.404   2.978   8.145 -0.0513 -0.0059  0.6528
  119CHL1    C615001   2.336   3.018   8.041  0.4010  0.2662 -0.3334
  119CHL1    H615002   2.226   3.026   8.042  0.1930 -1.6778  2.0895
  119CHL1    C715003   2.394   3.026   7.907  0.1264  0.8162  0.4218
  119CHL1   H7A15004   2.324   2.974   7.838  0.8572  0.9515 -0.4482
  119CHL1   H7B15005   2.393   3.131   7.870  0.9371  0.2802 -1.2444
  119CHL1    C815006   2.527   2.948   7.890  0.4150  0.2400 -0.3504
  119CHL1    H815007   2.508   2.839   7.897  0.1934  0.3419  0.8108
  119CHL1   C1415008   2.597   2.981   7.756  0.0557 -0.4373 -0.3114
  119CHL1   H1415009   2.611   3.092   7.756 -1.4194 -0.2222 -1.4446
  119CHL1   C1515010   2.505   2.966   7.626 -0.3091  0.3453  0.1129
  119CHL1  H15A15011   2.441   2.879   7.649  0.6302 -0.0013  1.5486
  119CHL1  H15B15012   2.438   3.054   7.610 -0.5844  0.1025 -0.0627
  119CHL1   C1615013   2.602   2.937   7.514 -0.0628 -0.1550 -0.3522
  119CHL1  H16A15014   2.598   2.834   7.471  2.0774 -0.9490  1.1624
  119CHL1  H16B15015   2.595   3.013   7.433  0.5283 -0.4496 -0.6879
  119CHL1   C1715016   2.750   2.955   7.585  0.2187 -1.1231  0.1196
  119CHL1   H1715017   2.768   3.064   7.580  0.5239 -1.2286 -1.5331
  119CHL1   C1315018   2.726   2.912   7.733 -0.0248  0.1627 -0.5256
  119CHL1   C1815019   2.717   2.754   7.735  0.0639 -0.5134  0.0562
  119CHL1  H18A15020   2.814   2.707   7.711 -0.3865 -1.3397 -0.1822
  119CHL1  H18B15021   2.678   2.717   7.832 -1.6450  1.9074  0.3925
  119CHL1  H18C15022   2.644   2.718   7.658 -1.8527  2.2314  0.4285
  119CHL1   C1215023   2.823   2.976   7.838  0.5208 -0.3438  0.4638
  119CHL1  H12A15024   2.925   2.931   7.835  0.6778  0.0274  0.1128
  119CHL1  H12B15025   2.833   3.086   7.828 -1.1075 -0.1464  0.7433
  119CHL1   C1115026   2.772   2.947   7.984  1.2706 -0.4944 -0.9343
  119CHL1  H11A15027   2.781   2.840   8.011  1.2058 -0.1379  0.5927
  119CHL1  H11B15028   2.830   2.995   8.066  0.1096 -3.0461  1.5392
  119CHL1    C915029   2.622   2.988   7.998 -0.6713  0.3847  0.6323
  119CHL1    H915030   2.635   3.099   8.002  1.2952  0.2051 -0.1267
  119CHL1   C1015031   2.551   2.949   8.136  0.3781  0.0140 -0.6087
  119CHL1   C1915032   2.557   2.796   8.151 -0.0865 -1.5952  0.5919
  119CHL1  H19A15033   2.662   2.760   8.142  1.1692  1.2122  2.5218
  119CHL1  H19B15034   2.520   2.748   8.244 -0.6177 -0.9573  0.7188
  119CHL1  H19C15035   2.495   2.746   8.074 -0.2585 -0.1418 -0.2392
  119CHL1    C115036   2.625   3.022   8.247 -0.1375  0.1363 -0.9144
  119CHL1   H1A15037   2.729   2.984   8.258  0.0514  1.0795  0.8801
  119CHL1   H1B15038   2.617   3.133   8.243  0.1802  0.2290  0.4045
  119CHL1    C215039   2.565   3.008   8.385 -0.7696 -0.2321  0.2750
  119CHL1   H2A15040   2.633   3.054   8.460  0.5805  0.7098 -1.4775
  119CHL1   H2B15041   2.568   2.899   8.408 -0.0740 -0.1464  0.6102
  119CHL1   C2015042   2.864   2.886   7.511 -0.6990 -0.0216 -0.1705
  119CHL1   H2015043   2.853   2.775   7.513  1.0423 -0.2488 -1.3413
  119CHL1   C2115044   3.010   2.905   7.571  0.5227 -0.0742  0.3803
  119CHL1  H21A15045   3.083   2.854   7.506 -0.9714 -1.9560  0.0863
  119CHL1  H21B15046   3.023   2.860   7.672 -0.3013 -1.3938 -0.0745
  119CHL1  H21C15047   3.027   3.015   7.564 -0.4663  0.0074 -1.5304
  119CHL1   C2215048   2.869   2.931   7.363 -0.2760 -0.5736 -0.6421
  119CHL1  H22A15049   2.773   2.970   7.322  0.0227  0.0509 -0.7571
  119CHL1  H22B15050   2.935   3.019   7.355  0.4968 -1.2805 -2.6293
  119CHL1   C2315051   2.929   2.812   7.278  0.1056 -0.8482 -0.3894
  119CHL1  H23A15052   3.020   2.771   7.327 -0.0779 -0.9198 -0.1099
  119CHL1  H23B15053   2.848   2.737   7.268 -1.7606  1.1238 -1.0071
  119CHL1   C2415054   2.948   2.862   7.130 -0.3763 -0.7120 -0.1499
  119CHL1  H24A15055   2.850   2.912   7.115  0.5044  1.0428 -0.4107
  119CHL1  H24B15056   3.026   2.941   7.129 -1.1108  0.2525  3.3222
  119CHL1   C2515057   2.989   2.756   7.022  0.6779  0.2118  0.4694
  119CHL1   H2515058   2.913   2.676   7.032  0.6536  0.3709  1.6587
  119CHL1   C2615059   2.978   2.818   6.883 -0.2558  0.4032  0.1974
  119CHL1  H26A15060   3.053   2.899   6.869 -0.6317  0.6871 -0.1915
  119CHL1  H26B15061   2.992   2.737   6.808  2.2979  1.2237 -0.3363
  119CHL1  H26C15062   2.882   2.872   6.869  0.3270  1.1981 -0.8658
  119CHL1   C2715063   3.136   2.717   7.035 -0.4404  0.3367 -0.5902
  119CHL1  H27A15064   3.194   2.812   7.043 -0.5451  0.3672 -0.1249
  119CHL1  H27B15065   3.157   2.672   7.135 -2.7744  2.2082  0.8563
  119CHL1  H27C15066   3.168   2.657   6.947 -0.1694 -0.4735  0.0471
  120CHL1    C315067   4.905   0.146   8.249  0.0618 -0.0756 -0.1743
  120CHL1    H315068   4.990   0.080   8.221 -0.3258 -1.6842  2.1485
  120CHL1    O315069   4.922   0.191   8.382  0.0773  0.0064 -0.3112
  120CHL1   H3'15070   4.904   0.117   8.440  2.0117 -0.3646 -0.1068
  120CHL1    C415071   4.919   0.262   8.151  0.4920  0.1325 -0.0848
  120CHL1   H4A15072   4.845   0.337   8.184  1.3123  0.8822  0.1079
  120CHL1   H4B15073   5.015   0.315   8.168 -0.7849  2.2555  0.7796
  120CHL1    C515074   4.884   0.218   8.008  0.8789 -1.0529  0.2728
  120CHL1    C615075   4.970   0.238   7.907  0.8194 -0.0294  0.2045
  120CHL1    H615076   5.062   0.293   7.932  0.6959 -0.0172  0.6416
  120CHL1    C715077   4.961   0.199   7.766  0.5639  0.3285  0.7556
  120CHL1   H7A15078   4.978   0.286   7.700 -0.1192 -1.1836 -1.5290
  120CHL1   H7B15079   5.041   0.123   7.752  0.8354  0.8453 -0.6229
  120CHL1    C815080   4.820   0.143   7.742 -0.0944  0.3776 -0.1727
  120CHL1    H815081   4.759   0.235   7.737 -0.0587  0.7535  3.5367
  120CHL1   C1415082   4.817   0.065   7.616  0.2719 -0.5567 -0.3070
  120CHL1   H1415083   4.860  -0.034   7.644 -0.8818 -1.9189 -2.9675
  120CHL1   C1515084   4.897   0.126   7.496  0.7960  0.6298  0.2988
  120CHL1  H15A15085   4.860   0.230   7.483 -2.4563 -0.6902 -2.2381
  120CHL1  H15B15086   5.005   0.128   7.523  1.3238 -0.4479 -1.5535
  120CHL1   C1615087   4.855   0.034   7.384  0.8391 -0.3384  0.0105
  120CHL1  H16A15088   4.817   0.099   7.303 -0.5544 -0.2022  0.7588
  120CHL1  H16B15089   4.931  -0.039   7.348  0.8973 -0.2648 -0.0147
  120CHL1   C1715090   4.729  -0.051   7.437 -0.9380 -0.2937  0.3847
  120CHL1   H1715091   4.766  -0.153   7.462 -0.9161  0.2856  2.9320
  120CHL1   C1315092   4.685   0.031   7.562 -0.2250  0.1648 -0.1600
  120CHL1   C1815093   4.599   0.151   7.519  0.6524 -0.1256 -0.0128
  120CHL1  H18A15094   4.655   0.207   7.441  1.6838 -0.7833  0.2334
  120CHL1  H18B15095   4.497   0.127   7.484 -0.4499  2.3700  1.2411
  120CHL1  H18C15096   4.580   0.218   7.606  1.5885 -1.2675  1.1053
  120CHL1   C1215097   4.609  -0.052   7.671 -0.0838 -0.2851  0.1800
  120CHL1  H12A15098   4.503  -0.073   7.648 -0.8815 -0.1183  3.3053
  120CHL1  H12B15099   4.651  -0.155   7.668  2.9907  0.8455  0.8375
  120CHL1   C1115100   4.621   0.012   7.808 -0.2719  0.4616 -0.4450
  120CHL1  H11A15101   4.549   0.096   7.802  0.2268  0.8201 -1.8803
  120CHL1  H11B15102   4.588  -0.062   7.884  0.1340  1.7829  1.0758
  120CHL1    C915103   4.760   0.063   7.859  0.2387 -0.2680 -0.2201
  120CHL1    H915104   4.830  -0.020   7.881 -1.4347 -1.1080  2.3422
  120CHL1   C1015105   4.753   0.137   7.994 -0.3423 -0.0540  0.3022
  120CHL1   C1915106   4.646   0.249   8.013  0.2101  0.3262  0.6422
  120CHL1  H19A15107   4.543   0.210   7.997 -0.4761  2.0830  0.4874
  120CHL1  H19B15108   4.647   0.282   8.119 -0.9105  1.5206  0.3108
  120CHL1  H19C15109   4.652   0.329   7.936 -0.9121 -0.0704  0.1228
  120CHL1    C115110   4.740   0.023   8.101 -0.2996  0.1390  0.4119
  120CHL1   H1A15111   4.641  -0.028   8.103 -0.8017  1.0302 -0.6980
  120CHL1   H1B15112   4.824  -0.048   8.084  0.5389  1.4320 -1.1530
  120CHL1    C215113   4.772   0.068   8.246 -0.6254  0.0617  0.7591
  120CHL1   H2A15114   4.793  -0.020   8.310  2.1187 -1.0639 -1.4875
  120CHL1   H2B15115   4.702   0.141   8.293  1.0223  1.1716  1.6044
  120CHL1   C2015116   4.627  -0.086   7.327  0.1468  0.1213 -0.8900
  120CHL1   H2015117   4.581   0.012   7.300  0.5461  1.0851  1.6693
  120CHL1   C2115118   4.528  -0.202   7.378 -0.2080  0.5994 -0.1210
  120CHL1  H21A15119   4.479  -0.175   7.473 -0.9759 -0.3460 -0.2428
  120CHL1  H21B15120   4.572  -0.303   7.387  1.4587  1.1007 -1.8452
  120CHL1  H21C15121   4.445  -0.207   7.305  0.2953  2.9357 -0.9476
  120CHL1   C2215122   4.700  -0.141   7.198  0.0088 -0.3049 -0.6868
  120CHL1  H22A15123   4.785  -0.077   7.169 -0.0380  0.2643  0.3758
  120CHL1  H22B15124   4.737  -0.241   7.231  2.4642 -0.4943 -3.6213
  120CHL1   C2315125   4.608  -0.184   7.086  1.1458  0.4882 -0.0898
  120CHL1  H23A15126   4.561  -0.280   7.116 -1.0084  1.7843  0.9445
  120CHL1  H23B15127   4.527  -0.110   7.073 -1.7993 -2.0646  2.2548
  120CHL1   C2415128   4.692  -0.222   6.960  0.8975 -0.3643 -0.9844
  120CHL1  H24A15129   4.754  -0.131   6.947  1.5145 -0.4210  1.0552
  120CHL1  H24B15130   4.754  -0.312   6.982  0.6366 -0.4633 -0.6280
  120CHL1   C2515131   4.615  -0.255   6.833  0.1314 -0.5376  0.0451
  120CHL1   H2515132   4.544  -0.172   6.813  0.4948  0.1286  1.4149
  120CHL1   C2615133   4.709  -0.266   6.711  0.2360  0.5935 -0.2531
  120CHL1  H26A15134   4.781  -0.181   6.711  1.4862 -0.3889  1.9548
  120CHL1  H26B15135   4.774  -0.356   6.714 -1.6314 -0.7895  0.5706
  120CHL1  H26C15136   4.646  -0.282   6.621  0.3813 -3.5280  0.2049
  120CHL1   C2715137   4.531  -0.386   6.845 -0.3413 -0.8266  0.9953
  120CHL1  H27A15138   4.460  -0.402   6.762  0.7479 -0.3775 -0.0513
  120CHL1  H27B15139   4.602  -0.468   6.871 -0.8056 -1.6253 -0.1973
  120CHL1  H27C15140   4.473  -0.366   6.938 -1.9645  3.6932 -0.7315
  121CHL1    C315141   4.096   5.245   4.814 -0.2442  0.5097  0.1603
  121CHL1    H315142   4.010   5.316   4.813 -0.2542  0.5079  0.7578
  121CHL1    O315143   4.133   5.224   4.681 -0.7954 -0.3759  0.5214
  121CHL1   H3'15144   4.054   5.176   4.655 -1.6225 -0.7179  3.3245
  121CHL1    C415145   4.214   5.309   4.898  0.0969  0.2732 -0.4288
  121CHL1   H4A15146   4.303   5.243   4.886  0.8965  0.8389  1.9730
  121CHL1   H4B15147   4.233   5.409   4.853  1.4570 -0.4912 -1.6754
  121CHL1    C515148   4.168   5.328   5.046 -0.1114 -0.1828  0.2345
  121CHL1    C615149   4.158   5.449   5.102 -0.0912  0.6435  0.8908
  121CHL1    H615150   4.183   5.541   5.048  1.9805 -0.1606  0.3734
  121CHL1    C715151   4.120   5.471   5.242 -0.4506  0.5797 -0.4442
  121CHL1   H7A15152   4.191   5.542   5.289 -1.6088  0.8756  0.9159
  121CHL1   H7B15153   4.020   5.519   5.242  0.6796  3.1284  0.6013
  121CHL1    C815154   4.136   5.346   5.331  0.1037  0.2834  0.0528
  121CHL1    H815155   4.243   5.321   5.342 -0.2843 -2.1094 -0.9494
  121CHL1   C1415156   4.066   5.365   5.470  0.1008  0.3959  0.9047
  121CHL1   H1415157   3.961   5.383   5.440 -0.3141 -1.5832  1.0192
  121CHL1   C1515158   4.104   5.497   5.542 -0.8294  0.3470  0.6718
  121CHL1  H15A15159   4.214   5.512   5.548 -0.7305  0.1847 -0.5671
  121CHL1  H15B15160   4.054   5.582   5.492  0.4274 -0.4396 -2.0982
  121CHL1   C1615161   4.057   5.461   5.685 -0.1894 -1.0617  0.1225
  121CHL1  H16A15162   4.148   5.470   5.749 -2.5608  0.3351  3.5826
  121CHL1  H16B15163   3.979   5.536   5.712  1.9968  1.3981  0.0400
  121CHL1   C1715164   4.004   5.317   5.689  0.0046  0.4648 -0.1909
  121CHL1   H1715165   3.896   5.323   5.664 -0.2117  0.1415  0.6418
  121CHL1   C1315166   4.076   5.250   5.567  0.3043  0.7811  0.1194
  121CHL1   C1815167   4.223   5.220   5.607 -0.9919  0.1345 -0.1359
  121CHL1  H18A15168   4.228   5.118   5.652 -3.8428  0.2112  0.5614
  121CHL1  H18B15169   4.291   5.225   5.520  1.1266 -0.1767  1.4341
  121CHL1  H18C15170   4.270   5.294   5.675  2.5751  1.0724 -3.3058
  121CHL1   C1215171   3.994   5.135   5.504  0.2799 -0.5828  0.4749
  121CHL1  H12A15172   3.998   5.042   5.565 -1.5986  0.0605  1.6674
  121CHL1  H12B15173   3.886   5.159   5.495 -0.2139 -1.9680  2.0822
  121CHL1   C1115174   4.061   5.101   5.360 -0.0972  0.1030  0.1030
  121CHL1  H11A15175   4.160   5.056   5.382 -0.6008 -1.1026 -0.0211
  121CHL1  H11B15176   4.009   5.016   5.311  1.1331 -1.0780  0.7573
  121CHL1    C915177   4.067   5.229   5.263 -0.6563  0.1328  0.3062
  121CHL1    H915178   3.960   5.253   5.246 -1.0737 -1.7409  0.0448
  121CHL1   C1015179   4.128   5.201   5.120  1.0072 -0.4881 -0.1007
  121CHL1   C1915180   4.255   5.115   5.128 -0.0857 -0.1205 -0.4014
  121CHL1  H19A15181   4.290   5.088   5.026 -2.3327 -0.2669 -1.1889
  121CHL1  H19B15182   4.328   5.178   5.183 -3.0759  2.4028  0.9335
  121CHL1  H19C15183   4.247   5.015   5.176 -1.1588 -0.7219 -1.7532
  121CHL1    C115184   4.017   5.127   5.035 -0.4403 -0.7304 -0.2144
  121CHL1   H1A15185   4.000   5.023   5.071  0.5486 -0.2255  1.8526
  121CHL1   H1B15186   3.926   5.187   5.056  1.6202  2.2335  0.8527
  121CHL1    C215187   4.056   5.111   4.882  0.3966 -0.4653 -0.1606
  121CHL1   H2A15188   3.970   5.063   4.830  0.7884 -1.2109 -0.1373
  121CHL1   H2B15189   4.136   5.035   4.867  0.7992 -0.0018 -0.4055
  121CHL1   C2015190   4.025   5.241   5.827 -0.4458 -0.4264 -0.2038
  121CHL1   H2015191   4.132   5.233   5.855 -0.6831 -1.3093  0.4750
  121CHL1   C2115192   3.964   5.099   5.826 -0.2559  0.3179 -0.4256
  121CHL1  H21A15193   4.016   5.032   5.755  1.1053  0.1884  0.6627
  121CHL1  H21B15194   3.855   5.105   5.805 -0.0943 -0.7582 -1.6893
  121CHL1  H21C15195   3.974   5.056   5.928 -1.0310  2.2431  0.5126
  121CHL1   C2215196   3.960   5.328   5.946  0.8410 -0.3956 -0.0984
  121CHL1  H22A15197   3.980   5.436   5.932 -1.1721  0.0669  0.3105
  121CHL1  H22B15198   3.850   5.315   5.943  0.7448  0.1918  0.6668
  121CHL1   C2315199   4.008   5.289   6.080 -0.3499 -0.6749  0.6457
  121CHL1  H23A15200   3.988   5.180   6.092 -2.3127 -0.3783  0.3877
  121CHL1  H23B15201   4.115   5.310   6.098 -0.2598 -0.0721 -0.5141
  121CHL1   C2415202   3.937   5.362   6.194 -0.1217  0.2409  0.4910
  121CHL1  H24A15203   3.827   5.348   6.182 -0.0620 -0.0478  0.2720
  121CHL1  H24B15204   3.966   5.309   6.287  0.7917 -0.3463 -0.1233
  121CHL1   C2515205   3.970   5.516   6.195 -0.0263  0.8846 -0.5878
  121CHL1   H2515206   3.948   5.560   6.095 -0.6840 -0.1396 -0.9082
  121CHL1   C2615207   3.894   5.589   6.302  0.4965  1.2831  0.4080
  121CHL1  H26A15208   3.916   5.697   6.317 -0.8177  1.7092 -0.5204
  121CHL1  H26B15209   3.785   5.589   6.284  0.7898  4.8721 -2.9853
  121CHL1  H26C15210   3.903   5.545   6.403 -0.5230  0.8025  0.3021
  121CHL1   C2715211   4.118   5.552   6.210 -0.3142 -0.4237 -0.2109
  121CHL1  H27A15212   4.146   5.659   6.222  0.6478 -0.7588  0.7688
  121CHL1  H27B15213   4.168   5.519   6.304  1.2380  2.3883  0.0456
  121CHL1  H27C15214   4.183   5.506   6.134  0.6926  0.7873 -0.1179
  122CHL1    C315215   3.208   4.796   5.044 -0.4314 -0.3163  0.7937
  122CHL1    H315216   3.285   4.715   5.040 -1.0605 -0.8982  0.2118
  122CHL1    O315217   3.190   4.851   4.914 -0.2369 -0.1581  0.2476
  122CHL1   H3'15218   3.172   4.944   4.929 -3.0467 -0.8262  1.7168
  122CHL1    C415219   3.078   4.715   5.083 -0.0216 -0.3857 -0.2205
  122CHL1   H4A15220   2.989   4.778   5.062 -0.4208 -0.4287  1.2345
  122CHL1   H4B15221   3.063   4.646   4.998 -0.7638  0.5620 -0.8847
  122CHL1    C515222   3.078   4.665   5.227  0.0292  0.2616  0.5511
  122CHL1    C615223   3.047   4.534   5.245 -0.6910 -0.8718 -0.0372
  122CHL1    H615224   3.014   4.479   5.156 -0.9140  0.8067 -1.0452
  122CHL1    C715225   3.024   4.477   5.382  0.1535 -0.1077 -0.2902
  122CHL1   H7A15226   2.922   4.434   5.391  0.7862 -1.1194  4.7417
  122CHL1   H7B15227   3.100   4.397   5.392  2.3783  1.9514  0.0686
  122CHL1    C815228   3.027   4.580   5.502  0.1123 -0.0237 -0.0390
  122CHL1    H815229   2.925   4.624   5.508 -0.5173 -1.4513  0.1520
  122CHL1   C1415230   3.069   4.516   5.630  0.4082 -0.5805  0.0629
  122CHL1   H1415231   3.176   4.487   5.618  0.6515  0.7888 -1.3035
  122CHL1   C1515232   2.985   4.394   5.670  0.0037 -0.4569  0.2267
  122CHL1  H15A15233   2.878   4.409   5.642  0.2408  1.0483  0.0373
  122CHL1  H15B15234   3.017   4.306   5.610  0.4063  0.5599 -1.0944
  122CHL1   C1615235   3.021   4.380   5.816  0.5591  0.6039  0.0184
  122CHL1  H16A15236   2.927   4.375   5.875  0.6654 -0.8157  0.1028
  122CHL1  H16B15237   3.084   4.289   5.828  1.1258  1.0939  0.7566
  122CHL1   C1715238   3.096   4.505   5.860 -0.2982  0.3890  0.9753
  122CHL1   H1715239   3.204   4.480   5.850 -0.1920  0.9440  0.6912
  122CHL1   C1315240   3.074   4.610   5.749  1.0675  0.3970 -0.0983
  122CHL1   C1815241   2.937   4.665   5.773 -0.0535 -0.1789 -0.7300
  122CHL1  H18A15242   2.888   4.725   5.694 -0.3264  1.1276  0.3956
  122CHL1  H18B15243   2.868   4.582   5.797  0.8001 -1.6740 -3.0559
  122CHL1  H18C15244   2.937   4.729   5.864 -2.0585 -1.5480  0.3123
  122CHL1   C1215245   3.172   4.723   5.714  0.4548  0.0640 -0.3471
  122CHL1  H12A15246   3.196   4.793   5.797 -1.3899 -1.3856  1.5375
  122CHL1  H12B15247   3.264   4.668   5.687  0.8929  0.7757 -0.3307
  122CHL1   C1115248   3.142   4.797   5.586 -0.5959 -0.5568 -0.3294
  122CHL1  H11A15249   3.046   4.850   5.602  0.1688  0.5272  0.8083
  122CHL1  H11B15250   3.226   4.863   5.557  0.9957 -0.8172  3.1672
  122CHL1    C915251   3.128   4.696   5.470 -0.2337 -0.7155 -0.4597
  122CHL1    H915252   3.233   4.662   5.458 -0.2284 -0.9896  0.3004
  122CHL1   C1015253   3.111   4.771   5.330  0.5783  0.2972  0.2281
  122CHL1   C1915254   2.991   4.868   5.336  0.4312  0.2183  0.6020
  122CHL1  H19A15255   2.973   4.918   5.238 -1.7734  0.5339  1.1178
  122CHL1  H19B15256   2.898   4.835   5.387 -0.7957 -1.2189 -2.3108
  122CHL1  H19C15257   3.015   4.961   5.393 -2.5170  1.3981  0.1182
  122CHL1    C115258   3.245   4.840   5.292 -0.2056  0.4788  0.4435
  122CHL1   H1A15259   3.283   4.908   5.372  3.2134 -0.6787 -0.0271
  122CHL1   H1B15260   3.322   4.760   5.286 -2.1932 -1.9242  3.5214
  122CHL1    C215261   3.251   4.904   5.146 -0.0228  0.2156 -0.4719
  122CHL1   H2A15262   3.360   4.917   5.131  0.2756  0.2507  1.4305
  122CHL1   H2B15263   3.184   4.992   5.135 -1.3199 -0.5760  0.6717
  122CHL1   C2015264   3.092   4.534   6.014  0.0895  0.3019  0.0266
  122CHL1   H2015265   2.987   4.530   6.051 -0.1911 -0.1613 -0.8105
  122CHL1   C2115266   3.162   4.668   6.060  0.3099 -0.5205  0.4060
  122CHL1  H21A15267   3.148   4.686   6.169 -1.5519 -1.3177  0.3307
  122CHL1  H21B15268   3.113   4.761   6.025 -0.1814 -0.5776  0.9403
  122CHL1  H21C15269   3.271   4.669   6.036  0.3100 -1.0258  0.3744
  122CHL1   C2215270   3.162   4.420   6.091  0.0221  0.0105 -0.5476
  122CHL1  H22A15271   3.153   4.325   6.034 -1.0111 -2.4123  3.2665
  122CHL1  H22B15272   3.270   4.440   6.101 -0.0347  0.0508  0.0142
  122CHL1   C2315273   3.099   4.387   6.225 -0.2712 -0.3739 -0.2843
  122CHL1  H23A15274   3.117   4.476   6.290  0.5278 -0.0410 -0.9555
  122CHL1  H23B15275   2.991   4.365   6.213 -0.2679  0.9653 -4.8928
  122CHL1   C2415276   3.165   4.264   6.280  0.1434  0.1002  0.6216
  122CHL1  H24A15277   3.147   4.176   6.214  2.9741  0.7933 -1.2839
  122CHL1  H24B15278   3.275   4.274   6.268  0.2854 -2.3807 -0.7800
  122CHL1   C2515279   3.121   4.223   6.419  0.0789 -0.2807  0.1672
  122CHL1   H2515280   3.014   4.195   6.425 -0.4094  1.6458  1.3684
  122CHL1   C2615281   3.202   4.102   6.477  0.5898  0.1583  0.0712
  122CHL1  H26A15282   3.307   4.132   6.500  0.7149 -1.1285  1.3315
  122CHL1  H26B15283   3.158   4.068   6.573 -0.3219  1.5316  0.1646
  122CHL1  H26C15284   3.190   4.017   6.406  1.4026  1.5275 -1.7801
  122CHL1   C2715285   3.133   4.337   6.524 -0.0546 -0.1432  0.0050
  122CHL1  H27A15286   3.098   4.435   6.485  0.4032  1.2040  2.7588
  122CHL1  H27B15287   3.080   4.321   6.620  0.0038  1.9287  0.4258
  122CHL1  H27C15288   3.241   4.355   6.546 -0.1805  0.9186 -0.1904
  123CHL1    C315289   4.430   4.208   4.756 -0.1841 -0.2683 -0.0430
  123CHL1    H315290   4.518   4.151   4.720  1.1102 -0.6258  3.3467
  123CHL1    O315291   4.373   4.264   4.646  0.1052  0.0032 -0.2193
  123CHL1   H3'15292   4.404   4.207   4.575  1.9858 -0.3701  0.8306
  123CHL1    C415293   4.328   4.114   4.830  0.1582 -0.2140  0.0819
  123CHL1   H4A15294   4.232   4.166   4.849 -0.2844 -1.7115  2.3164
  123CHL1   H4B15295   4.306   4.034   4.756 -0.4071  1.9595 -2.2509
  123CHL1    C515296   4.379   4.076   4.964  0.1402 -0.4772 -0.8092
  123CHL1    C615297   4.371   3.946   5.005 -0.2945 -1.5160 -0.5328
  123CHL1    H615298   4.344   3.871   4.930 -0.2945  0.8886 -3.1062
  123CHL1    C715299   4.395   3.893   5.149  0.6474 -0.0575  0.7578
  123CHL1   H7A15300   4.322   3.813   5.173  1.3912 -1.3358 -1.0130
  123CHL1   H7B15301   4.500   3.857   5.156  1.5528  1.9041 -1.0972
  123CHL1    C815302   4.380   4.014   5.243 -0.2442 -0.1407 -0.5044
  123CHL1    H815303   4.272   4.038   5.238 -0.2272  0.4494  1.3914
  123CHL1   C1415304   4.423   3.975   5.382  0.0661  0.1130 -0.3456
  123CHL1   H1415305   4.530   3.953   5.362  0.4787  0.1281  1.6600
  123CHL1   C1515306   4.351   3.854   5.441  0.6042 -0.9148  0.5815
  123CHL1  H15A15307   4.244   3.866   5.413  1.3443  1.5214 -1.6579
  123CHL1  H15B15308   4.401   3.765   5.397 -0.3594 -1.2417  0.1039
  123CHL1   C1615309   4.366   3.864   5.592  0.2528  0.3228  0.1190
  123CHL1  H16A15310   4.259   3.879   5.617  0.0593 -0.1446 -0.4004
  123CHL1  H16B15311   4.417   3.775   5.635  0.8612 -0.4752 -2.1404
  123CHL1   C1715312   4.445   3.990   5.626 -0.2682 -0.7210  0.1211
  123CHL1   H1715313   4.552   3.966   5.611  0.6007  2.4195  0.5019
  123CHL1   C1315314   4.426   4.073   5.497  0.3171 -1.0816 -0.7755
  123CHL1   C1815315   4.280   4.130   5.504  0.5638 -0.3453  0.3934
  123CHL1  H18A15316   4.217   4.058   5.561 -0.0801  1.0432  1.5112
  123CHL1  H18B15317   4.282   4.226   5.561  1.7850 -0.3715  0.4169
  123CHL1  H18C15318   4.224   4.148   5.409 -1.4083  2.9636  1.9944
  123CHL1   C1215319   4.529   4.182   5.445  0.0529  0.1015 -0.0684
  123CHL1  H12A15320   4.540   4.264   5.519 -0.5384 -2.4706  3.1128
  123CHL1  H12B15321   4.626   4.129   5.438 -0.3720 -0.8037  0.5736
  123CHL1   C1115322   4.486   4.231   5.306 -0.7867 -0.6928 -0.0189
  123CHL1  H11A15323   4.389   4.279   5.332 -0.8015 -1.6238  1.8331
  123CHL1  H11B15324   4.553   4.307   5.260 -2.1421 -0.3466 -1.5240
  123CHL1    C915325   4.461   4.132   5.187 -0.5045  0.3617  0.3423
  123CHL1    H915326   4.562   4.093   5.161  0.0960  2.5595 -0.8525
  123CHL1   C1015327   4.413   4.195   5.059  0.1822  0.1683  0.0727
  123CHL1   C1915328   4.296   4.287   5.097  0.2119  0.1608  0.0529
  123CHL1  H19A15329   4.244   4.328   5.007  0.2574  0.3207  0.0995
  123CHL1  H19B15330   4.229   4.222   5.157 -0.0160  0.8407  0.5549
  123CHL1  H19C15331   4.318   4.371   5.167 -0.1795 -0.9083  1.5007
  123CHL1    C115332   4.523   4.280   4.984 -0.4497 -0.2452 -0.7111
  123CHL1   H1A15333   4.546   4.368   5.047 -4.0807  0.0368  0.4701
  123CHL1   H1B15334   4.613   4.215   4.990 -1.5452 -1.7118  1.1055
  123CHL1    C215335   4.477   4.319   4.846 -0.3530  0.1934 -0.1856
  123CHL1   H2A15336   4.563   4.380   4.811  0.7958 -1.1483  0.2112
  123CHL1   H2B15337   4.393   4.391   4.853  0.2499  0.7078  3.6760
  123CHL1   C2015338   4.422   4.068   5.756  0.3430  0.4015  0.6239
  123CHL1   H2015339   4.321   4.115   5.756  0.2431  0.3904 -2.2613
  123CHL1   C2115340   4.534   4.176   5.775  0.5820 -0.2911  0.0222
  123CHL1  H21A15341   4.503   4.273   5.729  1.3993  0.5646  1.1957
  123CHL1  H21B15342   4.635   4.145   5.741  0.3796 -0.3830 -0.4953
  123CHL1  H21C15343   4.536   4.209   5.881 -0.9780 -0.0096 -0.0202
  123CHL1   C2215344   4.433   3.969   5.876 -0.7499 -0.0485  0.1761
  123CHL1  H22A15345   4.386   3.872   5.850  1.1650 -0.6027 -1.5309
  123CHL1  H22B15346   4.540   3.948   5.899 -0.0694 -0.5400 -2.9948
  123CHL1   C2315347   4.362   4.030   5.997  0.4807 -0.1996 -0.4255
  123CHL1  H23A15348   4.415   4.127   6.011 -2.0590  1.5076 -1.9114
  123CHL1  H23B15349   4.260   4.050   5.959  0.6243  0.1798 -0.6158
  123CHL1   C2415350   4.362   3.949   6.128  0.0808  0.8668 -0.2139
  123CHL1  H24A15351   4.281   3.874   6.122  0.5120  0.5285 -3.6086
  123CHL1  H24B15352   4.464   3.906   6.140 -0.2497  0.3651  1.0020
  123CHL1   C2515353   4.332   4.042   6.254 -0.4847 -0.6735  0.6784
  123CHL1   H2515354   4.380   4.141   6.240 -0.9732 -0.3528  1.2407
  123CHL1   C2615355   4.184   4.082   6.254 -0.7242 -0.1335 -0.1197
  123CHL1  H26A15356   4.124   3.991   6.278 -1.8408  1.1457  2.3368
  123CHL1  H26B15357   4.155   4.158   6.330 -0.3536 -0.4282  0.3218
  123CHL1  H26C15358   4.151   4.122   6.156 -0.0918 -0.8232 -0.6180
  123CHL1   C2715359   4.362   3.975   6.391 -0.2213 -0.4219  0.4783
  123CHL1  H27A15360   4.471   3.957   6.403  0.1867  1.9790  1.0181
  123CHL1  H27B15361   4.348   4.043   6.477 -0.5163 -3.3312  2.8923
  123CHL1  H27C15362   4.294   3.888   6.399 -1.5466  0.4862 -0.4042
  124CHL1    C315363   3.014   5.879   5.188 -0.0996  0.9305  0.3293
  124CHL1    H315364   3.075   5.969   5.209  1.2733  1.0727 -3.5112
  124CHL1    O315365   3.007   5.885   5.046 -0.0863  0.3343 -0.2534
  124CHL1   H3'15366   2.976   5.799   5.016  0.4945 -0.5863  1.6426
  124CHL1    C415367   3.081   5.744   5.229  0.9575  0.1245  0.7686
  124CHL1   H4A15368   3.045   5.662   5.164  2.0014 -0.5649  1.0394
  124CHL1   H4B15369   3.188   5.760   5.201  0.8194  2.3063  1.3019
  124CHL1    C515370   3.057   5.713   5.375 -0.4828  0.3941  0.0256
  124CHL1    C615371   3.165   5.697   5.465  0.3165  0.1326 -0.0841
  124CHL1    H615372   3.266   5.685   5.424  0.0007 -1.6596 -0.4261
  124CHL1    C715373   3.149   5.654   5.605  0.4924 -0.6304 -0.6388
  124CHL1   H7A15374   3.211   5.563   5.624 -0.1127 -1.0401 -0.6173
  124CHL1   H7B15375   3.184   5.735   5.673 -2.3085 -0.1272  0.3015
  124CHL1    C815376   3.003   5.614   5.653 -0.1614  0.7286  0.1328
  124CHL1    H815377   2.989   5.508   5.622 -1.1832  0.9215 -0.0736
  124CHL1   C1415378   2.992   5.631   5.800 -0.9143 -0.2566 -0.2230
  124CHL1   H1415379   2.995   5.740   5.820  0.0095 -0.2191 -0.5100
  124CHL1   C1515380   3.102   5.564   5.890  0.8834  0.4107 -0.2116
  124CHL1  H15A15381   3.130   5.471   5.836 -1.0615 -0.3088 -0.0567
  124CHL1  H15B15382   3.197   5.622   5.889  1.3775 -0.3731 -0.6328
  124CHL1   C1615383   3.026   5.540   6.027 -0.1643 -0.0587  0.1150
  124CHL1  H16A15384   3.024   5.430   6.045 -1.4155  0.0853  1.0239
  124CHL1  H16B15385   3.082   5.591   6.108  0.3943 -0.5650  0.0564
  124CHL1   C1715386   2.880   5.593   6.005 -0.2695  0.1847 -0.4994
  124CHL1   H1715387   2.892   5.699   6.035  1.4161 -0.3350  0.8286
  124CHL1   C1315388   2.855   5.589   5.851 -0.0771  0.1150 -0.3007
  124CHL1   C1815389   2.822   5.443   5.815 -0.8266  0.2379 -0.5566
  124CHL1  H18A15390   2.728   5.405   5.861  0.5324 -2.4797  0.2024
  124CHL1  H18B15391   2.804   5.433   5.706  0.4346 -2.9899 -0.5574
  124CHL1  H18C15392   2.904   5.376   5.848  0.2679  1.4442 -0.7051
  124CHL1   C1215393   2.747   5.676   5.790 -0.2414 -0.0434 -0.0401
  124CHL1  H12A15394   2.643   5.641   5.807 -0.1255 -0.7061 -0.6649
  124CHL1  H12B15395   2.752   5.783   5.820  0.2569  0.4057 -1.5997
  124CHL1   C1115396   2.758   5.682   5.635 -0.3142  0.0040 -0.2216
  124CHL1  H11A15397   2.722   5.584   5.600 -1.9901  0.1431  0.9798
  124CHL1  H11B15398   2.686   5.762   5.607  1.7624  2.4462  0.9540
  124CHL1    C915399   2.900   5.698   5.576  0.8058 -0.0387 -0.9918
  124CHL1    H915400   2.929   5.800   5.610 -0.3540 -0.1003  0.2393
  124CHL1   C1015401   2.913   5.705   5.422  0.1365 -0.7630  0.0868
  124CHL1   C1915402   2.835   5.590   5.350  0.9364 -0.3015  0.4640
  124CHL1  H19A15403   2.890   5.494   5.350 -1.6647 -1.9167  1.8298
  124CHL1  H19B15404   2.736   5.560   5.392 -0.9824  1.0609 -2.6659
  124CHL1  H19C15405   2.816   5.621   5.245  1.8616 -0.7968  0.1399
  124CHL1    C115406   2.847   5.844   5.387 -0.2056 -0.1563 -0.6182
  124CHL1   H1A15407   2.736   5.835   5.395 -0.1286 -0.3799  0.4697
  124CHL1   H1B15408   2.894   5.928   5.444  2.0861 -0.6152 -1.7191
  124CHL1    C215409   2.865   5.893   5.238  0.0549  0.3774 -0.1288
  124CHL1   H2A15410   2.822   5.996   5.236  1.2874  0.9004 -0.4980
  124CHL1   H2B15411   2.800   5.835   5.169 -1.8104  1.4954  0.6003
  124CHL1   C2015412   2.779   5.533   6.102  0.3069  0.2351 -0.3106
  124CHL1   H2015413   2.776   5.423   6.084  0.6596  0.2670 -0.5575
  124CHL1   C2115414   2.634   5.581   6.076 -0.3136  0.3951 -0.3476
  124CHL1  H21A15415   2.646   5.692   6.077  0.4239  0.3241 -1.0474
  124CHL1  H21B15416   2.557   5.549   6.149  1.3607  0.2130  1.4219
  124CHL1  H21C15417   2.598   5.557   5.974  0.5230 -1.6041 -0.2172
  124CHL1   C2215418   2.817   5.553   6.252  0.2364  0.1657  0.2592
  124CHL1  H22A15419   2.917   5.510   6.275  0.7364  0.6460 -0.9517
  124CHL1  H22B15420   2.827   5.662   6.271  2.2973  0.7436 -3.4222
  124CHL1   C2315421   2.715   5.495   6.355 -0.0613 -0.3600  0.4020
  124CHL1  H23A15422   2.619   5.550   6.358  1.4516  2.4344  2.0371
  124CHL1  H23B15423   2.691   5.392   6.320 -0.6261  0.1691 -0.8056
  124CHL1   C2415424   2.773   5.485   6.498  0.0726  0.0866  0.4681
  124CHL1  H24A15425   2.874   5.441   6.488 -0.3975 -0.8211 -0.4284
  124CHL1  H24B15426   2.776   5.591   6.534 -3.6515 -0.2931  2.4253
  124CHL1   C2515427   2.690   5.402   6.597 -0.1300 -0.5771 -0.2910
  124CHL1   H2515428   2.654   5.307   6.551  0.3780 -1.5485  1.2271
  124CHL1   C2615429   2.774   5.347   6.711 -0.0990  0.5360 -0.1936
  124CHL1  H26A15430   2.849   5.276   6.669 -0.3735  1.0661 -1.6207
  124CHL1  H26B15431   2.834   5.423   6.766  3.4514 -2.0127 -0.2461
  124CHL1  H26C15432   2.699   5.295   6.776 -1.0828  0.9133 -1.0086
  124CHL1   C2715433   2.582   5.492   6.646  0.2337  0.3421 -0.2860
  124CHL1  H27A15434   2.516   5.433   6.713 -0.9405 -1.9426 -3.1967
  124CHL1  H27B15435   2.614   5.582   6.703 -3.0467 -0.4248  3.1398
  124CHL1  H27C15436   2.519   5.528   6.562  0.4012  0.8600 -0.1912
  125CHL1    C315437   4.829   6.012   4.489 -0.7714  0.6902  0.0530
  125CHL1    H315438   4.929   5.963   4.491 -1.1849 -0.5003 -2.8680
  125CHL1    O315439   4.788   6.022   4.352 -0.2470 -0.0962 -0.4631
  125CHL1   H3'15440   4.868   6.045   4.304 -1.0476 -0.2266 -1.9415
  125CHL1    C415441   4.733   5.921   4.565 -0.2055 -0.2853  0.8668
  125CHL1   H4A15442   4.628   5.953   4.548 -1.6928 -4.4494  1.2574
  125CHL1   H4B15443   4.735   5.818   4.523 -0.7508  0.0459  0.0023
  125CHL1    C515444   4.779   5.920   4.712 -0.0885  1.0104  0.0546
  125CHL1    C615445   4.819   5.809   4.777  0.3196 -0.4150  0.0174
  125CHL1    H615446   4.816   5.716   4.719 -1.9852 -2.6022  3.3037
  125CHL1    C715447   4.858   5.806   4.916  0.3945  0.7524 -0.4483
  125CHL1   H7A15448   4.823   5.716   4.970  0.9259  0.5619 -0.4171
  125CHL1   H7B15449   4.969   5.816   4.915  0.4548  0.1500 -2.0071
  125CHL1    C815450   4.827   5.928   5.006  0.0417  0.4051 -0.0304
  125CHL1    H815451   4.722   5.918   5.040 -0.3367 -1.4755 -1.5740
  125CHL1   C1415452   4.907   5.932   5.133 -0.3862  0.2680  0.0004
  125CHL1   H1415453   5.005   5.955   5.085 -1.8388  1.1588 -2.7749
  125CHL1   C1515454   4.919   5.810   5.219 -0.1500  0.0550  0.6225
  125CHL1  H15A15455   4.819   5.762   5.223  0.1801 -0.8691 -1.2790
  125CHL1  H15B15456   4.989   5.735   5.176 -0.3671 -0.0992  0.5338
  125CHL1   C1615457   4.973   5.864   5.354 -0.1093  0.2419  0.8772
  125CHL1  H16A15458   4.906   5.832   5.436 -0.0664 -1.1119  0.4243
  125CHL1  H16B15459   5.077   5.825   5.357  0.7661  2.2398 -0.9808
  125CHL1   C1715460   4.976   6.021   5.340  0.0609  0.6760 -0.2550
  125CHL1   H1715461   5.080   6.041   5.305  0.3125  0.9373  0.5973
  125CHL1   C1315462   4.880   6.046   5.226 -0.1307  0.3692  0.0402
  125CHL1   C1815463   4.737   6.044   5.294 -0.2687  0.6987 -0.4952
  125CHL1  H18A15464   4.703   6.144   5.327 -0.9627  0.4434 -0.4241
  125CHL1  H18B15465   4.663   6.024   5.214 -1.7717 -1.3751  1.3018
  125CHL1  H18C15466   4.732   5.973   5.379 -0.3509 -0.1987 -1.2271
  125CHL1   C1215467   4.906   6.182   5.152  0.1980  0.2665 -0.4496
  125CHL1  H12A15468   4.864   6.262   5.216  0.3487  0.2177 -0.2898
  125CHL1  H12B15469   5.016   6.199   5.153  0.3530 -0.6268  1.2991
  125CHL1   C1115470   4.824   6.178   5.026 -0.1835 -0.6542  0.0094
  125CHL1  H11A15471   4.721   6.170   5.066 -0.1242  1.8150  0.8404
  125CHL1  H11B15472   4.843   6.279   4.982 -0.7613 -0.0769  1.0413
  125CHL1    C915473   4.847   6.058   4.928 -0.1218  0.2160 -0.1441
  125CHL1    H915474   4.957   6.062   4.909  0.0339  0.4094  0.7337
  125CHL1   C1015475   4.783   6.062   4.788 -0.0697 -0.2981  0.0634
  125CHL1   C1915476   4.637   6.123   4.784 -0.1683 -0.1336 -0.7966
  125CHL1  H19A15477   4.640   6.230   4.815 -0.1950 -0.4235  0.2412
  125CHL1  H19B15478   4.595   6.112   4.682 -0.2223 -0.1188 -0.7760
  125CHL1  H19C15479   4.564   6.073   4.852 -1.1960 -0.1885 -1.9088
  125CHL1    C115480   4.868   6.159   4.701 -0.2932 -0.4524  0.2380
  125CHL1   H1A15481   4.870   6.265   4.735  1.2945 -0.7014  1.0128
  125CHL1   H1B15482   4.971   6.122   4.718  0.0875  0.0562 -0.8605
  125CHL1    C215483   4.836   6.148   4.551  0.1644 -0.4152  0.0113
  125CHL1   H2A15484   4.899   6.219   4.494 -0.0728  1.3295  1.8091
  125CHL1   H2B15485   4.735   6.190   4.529  0.0442 -1.1556 -0.8893
  125CHL1   C2015486   4.953   6.090   5.479  0.0480 -0.5409 -0.1826
  125CHL1   H2015487   4.845   6.110   5.498  0.4905 -0.3844  2.5311
  125CHL1   C2115488   5.018   6.236   5.466 -0.2432  0.1310 -0.1356
  125CHL1  H21A15489   4.960   6.289   5.387  0.5607  1.4723  0.1255
  125CHL1  H21B15490   5.127   6.232   5.443 -0.2401  2.1060 -0.7279
  125CHL1  H21C15491   5.002   6.289   5.562  1.1226 -0.9074  0.6965
  125CHL1   C2215492   5.005   6.014   5.606  0.7626 -0.0065 -0.1282
  125CHL1  H22A15493   4.949   5.918   5.604 -2.6225  1.8173 -0.1668
  125CHL1  H22B15494   5.115   6.007   5.590  0.5870  0.6851 -1.8869
  125CHL1   C2315495   4.973   6.073   5.745  0.3150 -1.1365  0.6155
  125CHL1  H23A15496   5.033   6.164   5.761 -0.6725 -0.2119 -0.6963
  125CHL1  H23B15497   4.869   6.113   5.739  0.0735 -1.8016  0.2391
  125CHL1   C2415498   5.013   5.986   5.862  0.2390 -0.9604  0.0265
  125CHL1  H24A15499   4.980   5.882   5.841 -0.2334 -1.1357  1.5477
  125CHL1  H24B15500   5.124   5.988   5.866  0.2008  1.1416  1.3303
  125CHL1   C2515501   4.960   6.030   6.005 -0.6515 -0.1211  0.3865
  125CHL1   H2515502   4.849   6.028   6.008 -0.6835 -1.4853 -0.7622
  125CHL1   C2615503   5.003   5.919   6.102 -0.3209  0.1254  0.5201
  125CHL1  H26A15504   5.113   5.906   6.091  0.0513  0.0945  3.4969
  125CHL1  H26B15505   4.980   5.957   6.204 -0.5924  3.6710 -0.7379
  125CHL1  H26C15506   4.953   5.821   6.090  0.2191 -0.0956  0.0367
  125CHL1   C2715507   5.005   6.169   6.045 -0.4942 -0.2046  0.3517
  125CHL1  H27A15508   4.982   6.192   6.151 -0.7136  0.0383  0.2544
  125CHL1  H27B15509   5.115   6.183   6.042 -0.2297 -2.0245  0.6291
  125CHL1  H27C15510   4.959   6.251   5.986  0.2224 -0.6037 -0.7851
  126CHL1    C315511   2.878   6.446   5.194  0.3848  0.1578  0.0565
  126CHL1    H315512   2.947   6.486   5.272  3.6377 -2.1765 -1.3743
  126CHL1    O315513   2.916   6.502   5.069 -0.2901 -0.4316  0.1265
  126CHL1   H3'15514   2.956   6.427   5.024  0.2750  0.6291 -1.2129
  126CHL1    C415515   2.886   6.299   5.199  0.3372 -0.3220 -0.1880
  126CHL1   H4A15516   2.801   6.261   5.138 -0.3383 -1.5001  1.4199
  126CHL1   H4B15517   2.983   6.260   5.162  1.5280  0.5564  1.8644
  126CHL1    C515518   2.865   6.256   5.343  0.2227 -0.1859  0.0917
  126CHL1    C615519   2.960   6.192   5.413  0.0299  0.4485  0.0360
  126CHL1    H615520   3.059   6.180   5.369  0.5053  2.5039  0.4025
  126CHL1    C715521   2.954   6.161   5.561 -0.5527  0.4351  0.4367
  126CHL1   H7A15522   2.996   6.063   5.593 -1.9793 -0.3727 -0.0507
  126CHL1   H7B15523   3.020   6.235   5.610  2.3400 -0.9025 -1.1914
  126CHL1    C815524   2.808   6.166   5.605 -0.0664  0.3889 -0.2907
  126CHL1    H815525   2.752   6.083   5.558  0.4065  0.1936 -0.5155
  126CHL1   C1415526   2.791   6.170   5.757  0.2364 -0.5349  0.5785
  126CHL1   H1415527   2.827   6.266   5.799 -0.3185 -0.4172  0.7947
  126CHL1   C1515528   2.868   6.066   5.842  0.5534  0.6772 -0.0992
  126CHL1  H15A15529   2.876   5.965   5.795 -0.3558 -0.4296  1.9718
  126CHL1  H15B15530   2.970   6.102   5.866  0.0995  1.7766  0.2200
  126CHL1   C1615531   2.783   6.053   5.973 -1.0899  0.9845  0.3215
  126CHL1  H16A15532   2.752   5.949   5.997  0.9096  0.6713  1.9077
  126CHL1  H16B15533   2.837   6.094   6.061 -0.6978  0.3002  0.4141
  126CHL1   C1715534   2.666   6.149   5.954 -0.7257 -0.1863  0.1001
  126CHL1   H1715535   2.710   6.247   5.982 -1.7079 -0.2555  2.0682
  126CHL1   C1315536   2.650   6.163   5.804 -0.6263  0.1524 -0.2714
  126CHL1   C1815537   2.568   6.045   5.744 -0.2660 -0.2771 -0.2660
  126CHL1  H18A15538   2.562   6.040   5.633 -0.9728  0.2015 -0.2552
  126CHL1  H18B15539   2.612   5.952   5.786  0.1777 -0.5200 -1.2380
  126CHL1  H18C15540   2.463   6.037   5.778 -0.1810  0.7220  0.2886
  126CHL1   C1215541   2.573   6.292   5.774  0.2162  0.0988 -0.4730
  126CHL1  H12A15542   2.467   6.301   5.808  0.2374 -0.5684 -0.1995
  126CHL1  H12B15543   2.634   6.367   5.828  2.8668 -1.2044 -1.4631
  126CHL1   C1115544   2.591   6.335   5.629 -0.4454 -0.8202  0.0619
  126CHL1  H11A15545   2.514   6.284   5.567 -0.4927  0.2108 -0.7524
  126CHL1  H11B15546   2.565   6.443   5.617  0.6858 -0.6074 -0.5588
  126CHL1    C915547   2.732   6.301   5.562 -0.0035  0.3050 -0.1804
  126CHL1    H915548   2.797   6.381   5.603 -0.3994 -0.4780  2.1355
  126CHL1   C1015549   2.728   6.310   5.406  0.1062  0.1179  0.3252
  126CHL1   C1915550   2.619   6.223   5.350 -0.3738  0.2010 -0.2138
  126CHL1  H19A15551   2.631   6.199   5.242 -3.3496 -1.4598 -0.2939
  126CHL1  H19B15552   2.605   6.135   5.417 -1.9178  1.2507  0.9145
  126CHL1  H19C15553   2.519   6.271   5.347 -1.1139 -1.2998 -1.4559
  126CHL1    C115554   2.708   6.462   5.372  0.0541  0.5894 -0.2696
  126CHL1   H1A15555   2.611   6.494   5.416 -0.0193  2.4824 -1.6844
  126CHL1   H1B15556   2.779   6.525   5.429  0.8122  1.5396 -2.1903
  126CHL1    C215557   2.737   6.489   5.227 -0.0489  0.0854  0.1655
  126CHL1   H2A15558   2.736   6.599   5.212  2.1509  0.1300  0.0021
  126CHL1   H2B15559   2.664   6.443   5.157 -0.3856 -0.5262  0.9023
  126CHL1   C2015560   2.540   6.130   6.035 -0.0198  0.4311  0.2395
  126CHL1   H2015561   2.455   6.177   5.981 -2.5345 -2.1618  1.6118
  126CHL1   C2115562   2.561   6.224   6.160  0.1419  0.4865  0.7327
  126CHL1  H21A15563   2.580   6.323   6.114  0.1537 -0.6356 -1.8772
  126CHL1  H21B15564   2.658   6.205   6.211 -0.6182  1.8141  2.7799
  126CHL1  H21C15565   2.484   6.210   6.239 -0.7120 -0.1311 -0.1764
  126CHL1   C2215566   2.503   5.980   6.074 -0.0452 -0.1662 -0.8079
  126CHL1  H22A15567   2.480   5.916   5.986 -0.4785  4.0696 -4.0889
  126CHL1  H22B15568   2.591   5.939   6.128 -0.8873 -2.5848 -1.1576
  126CHL1   C2315569   2.374   5.960   6.159  0.8427 -0.4012 -0.0510
  126CHL1  H23A15570   2.373   6.017   6.254 -3.0020 -0.7929  0.3106
  126CHL1  H23B15571   2.282   5.989   6.103  1.0092  1.2895  0.4925
  126CHL1   C2415572   2.365   5.815   6.200 -0.4268 -0.2298  0.2537
  126CHL1  H24A15573   2.375   5.753   6.108 -0.6779 -1.8928  1.2923
  126CHL1  H24B15574   2.463   5.800   6.250  0.6387  1.2458 -1.3065
  126CHL1   C2515575   2.254   5.771   6.293  0.0624 -0.7089 -0.1265
  126CHL1   H2515576   2.260   5.838   6.382 -1.6472 -1.7818  0.8620
  126CHL1   C2615577   2.113   5.782   6.233 -0.1539  0.7450  0.7893
  126CHL1  H26A15578   2.102   5.884   6.189  1.2624  0.5503 -0.0769
  126CHL1  H26B15579   2.105   5.717   6.144  1.7156  2.0987 -0.4604
  126CHL1  H26C15580   2.024   5.768   6.297  0.6161  0.0675  1.7305
  126CHL1   C2715581   2.272   5.628   6.338  0.1725 -0.5888  0.8807
  126CHL1  H27A15582   2.201   5.618   6.423 -0.3881  0.1906  0.5150
  126CHL1  H27B15583   2.240   5.552   6.264  2.6058 -0.6819 -0.1536
  126CHL1  H27C15584   2.374   5.620   6.381  0.6126  1.3376  0.2888
  127CHL1    C315585   4.585   0.361   4.659 -0.0974 -0.6505 -0.1711
  127CHL1    H315586   4.490   0.313   4.691 -0.1629  0.4925  1.4616
  127CHL1    O315587   4.554   0.412   4.534  0.0700  0.1170  0.5774
  127CHL1   H3'15588   4.546   0.335   4.476  1.0351 -0.6564  1.4169
  127CHL1    C415589   4.616   0.492   4.744 -0.2326  0.1388 -0.0131
  127CHL1   H4A15590   4.699   0.553   4.704  0.9821 -0.6156  1.2604
  127CHL1   H4B15591   4.522   0.551   4.747 -0.2472  0.0910  0.4830
  127CHL1    C515592   4.655   0.463   4.886 -0.3469  0.5082 -0.3988
  127CHL1    C615593   4.586   0.522   4.990 -0.9903 -0.3302  0.5249
  127CHL1    H615594   4.518   0.606   4.974  0.2900  0.5138 -0.7852
  127CHL1    C715595   4.614   0.501   5.134  0.3256 -0.3266  1.0604
  127CHL1   H7A15596   4.647   0.601   5.169  0.5583 -0.8801  2.5061
  127CHL1   H7B15597   4.520   0.471   5.185  0.2932  0.3056  1.3791
  127CHL1    C815598   4.721   0.401   5.165 -0.5228 -0.4652 -0.4663
  127CHL1    H815599   4.820   0.452   5.166 -1.7379  2.0141  0.3818
  127CHL1   C1415600   4.696   0.337   5.299 -0.0725  0.3991  0.5080
  127CHL1   H1415601   4.601   0.279   5.292  0.4810 -0.5297  0.5684
  127CHL1   C1515602   4.678   0.428   5.421  0.4280  0.2200  0.6634
  127CHL1  H15A15603   4.754   0.509   5.417  2.5656 -1.6098  1.9498
  127CHL1  H15B15604   4.577   0.473   5.425  0.4716  0.4874 -0.6705
  127CHL1   C1615605   4.697   0.337   5.540 -0.0286 -0.1464 -0.6715
  127CHL1  H16A15606   4.765   0.384   5.614 -0.5481  0.6489 -0.6874
  127CHL1  H16B15607   4.604   0.297   5.587  1.8612 -3.0473  0.8622
  127CHL1   C1715608   4.756   0.205   5.482 -0.3919  0.3395 -0.3725
  127CHL1   H1715609   4.674   0.132   5.467  0.5124 -0.2625 -2.7165
  127CHL1   C1315610   4.803   0.234   5.344 -0.8079 -1.1800 -0.3624
  127CHL1   C1815611   4.945   0.307   5.352 -0.4193 -0.5366 -0.6375
  127CHL1  H18A15612   4.951   0.384   5.432 -0.1477  1.1307 -2.1860
  127CHL1  H18B15613   5.016   0.226   5.377 -1.1068 -1.0661 -0.3510
  127CHL1  H18C15614   4.979   0.359   5.260 -1.3094 -2.1195 -1.9071
  127CHL1   C1215615   4.796   0.119   5.245 -0.5594 -0.0208 -0.0968
  127CHL1  H12A15616   4.872   0.045   5.278 -1.1806 -0.6796 -0.1090
  127CHL1  H12B15617   4.692   0.080   5.236 -0.9532  1.1483 -0.9669
  127CHL1   C1115618   4.835   0.171   5.097 -0.0784  0.3054 -0.2174
  127CHL1  H11A15619   4.939   0.207   5.091 -0.1441  0.6401  0.5403
  127CHL1  H11B15620   4.823   0.080   5.034  1.1001  1.9098 -2.9580
  127CHL1    C915621   4.737   0.286   5.058 -0.0976 -0.1148  0.8099
  127CHL1    H915622   4.632   0.249   5.058 -0.5479  1.0745  1.6814
  127CHL1   C1015623   4.752   0.348   4.908  0.6965  0.1854  0.6051
  127CHL1   C1915624   4.888   0.413   4.880  0.7212 -0.1274 -0.0894
  127CHL1  H19A15625   4.974   0.344   4.891  2.5175  2.1037  0.7277
  127CHL1  H19B15626   4.893   0.461   4.780  0.4221  0.2029  0.0508
  127CHL1  H19C15627   4.915   0.497   4.948  1.4761 -1.7260  1.6563
  127CHL1    C115628   4.741   0.226   4.805  0.3812 -0.1086  0.0528
  127CHL1   H1A15629   4.832   0.163   4.813  1.8910  2.1577  1.9782
  127CHL1   H1B15630   4.654   0.171   4.848  0.9030 -0.6003  0.4836
  127CHL1    C215631   4.707   0.264   4.657  0.2624  0.3437 -0.5836
  127CHL1   H2A15632   4.690   0.175   4.592 -0.0621  0.7700 -1.0913
  127CHL1   H2B15633   4.791   0.316   4.607  0.5188 -0.2194 -0.7545
  127CHL1   C2015634   4.845   0.131   5.588  0.3452 -0.3519  0.1954
  127CHL1   H2015635   4.923   0.206   5.612 -0.8520  1.3006 -0.8513
  127CHL1   C2115636   4.923   0.008   5.535  0.4089 -0.3891 -0.4936
  127CHL1  H21A15637   4.993  -0.035   5.610 -1.0578 -0.7290  0.7276
  127CHL1  H21B15638   4.990   0.032   5.451  2.1827  1.9632  1.4580
  127CHL1  H21C15639   4.844  -0.055   5.489 -0.9666 -0.4384  1.7830
  127CHL1   C2215640   4.769   0.087   5.722 -0.7577  0.0148 -0.0392
  127CHL1  H22A15641   4.699   0.163   5.763 -0.1660  0.3644  0.3405
  127CHL1  H22B15642   4.718  -0.009   5.700  1.4758 -0.8963 -1.5718
  127CHL1   C2315643   4.861   0.079   5.850  0.1978 -0.2831  0.8338
  127CHL1  H23A15644   4.941   0.003   5.833 -0.0367 -1.0072  2.7530
  127CHL1  H23B15645   4.914   0.175   5.862  0.9454 -0.2475 -2.0962
  127CHL1   C2415646   4.789   0.034   5.979  0.1925 -0.2349 -0.4246
  127CHL1  H24A15647   4.702   0.098   6.003 -0.1930 -1.2646  1.0578
  127CHL1  H24B15648   4.744  -0.066   5.963 -0.6926  0.0336  0.3179
  127CHL1   C2515649   4.880   0.016   6.097 -0.3839 -0.8098  0.3152
  127CHL1   H2515650   4.976  -0.031   6.066 -0.4123 -1.5386  1.3097
  127CHL1   C2615651   4.913   0.156   6.147 -0.4111  0.7549  0.1381
  127CHL1  H26A15652   4.829   0.228   6.149 -0.6859  0.4803 -0.9714
  127CHL1  H26B15653   4.980   0.154   6.236 -1.5189 -1.5259  1.0026
  127CHL1  H26C15654   4.976   0.206   6.071 -0.9374  2.0590  0.5350
  127CHL1   C2715655   4.813  -0.069   6.202 -0.2103 -0.4571  0.1282
  127CHL1  H27A15656   4.888  -0.113   6.271  0.2251  0.1973  0.0782
  127CHL1  H27B15657   4.726  -0.022   6.254 -0.4151  1.5449 -1.8786
  127CHL1  H27C15658   4.776  -0.159   6.149 -2.8717  0.8149 -0.3632
  128CHL1    C315659   3.455   1.861   4.786  0.1213 -0.0714  0.2140
  128CHL1    H315660   3.561   1.881   4.815  0.7299 -0.2917 -1.7232
  128CHL1    O315661   3.450   1.787   4.665 -0.5393 -0.2835  0.1746
  128CHL1   H3'15662   3.358   1.793   4.639 -0.6773  0.0322  0.7204
  128CHL1    C415663   3.390   1.766   4.899  0.0492  0.0312  0.0195
  128CHL1   H4A15664   3.295   1.727   4.857  0.0537 -0.4983  0.4973
  128CHL1   H4B15665   3.463   1.683   4.913 -0.0406 -0.3453 -1.6019
  128CHL1    C515666   3.374   1.842   5.024  0.0985  0.0027 -0.8034
  128CHL1    C615667   3.439   1.802   5.135  0.7937  0.1448 -0.5238
  128CHL1    H615668   3.506   1.715   5.138  1.8748  0.9870  0.6719
  128CHL1    C715669   3.425   1.864   5.269  0.0496 -0.0246  0.3162
  128CHL1   H7A15670   3.394   1.794   5.350  1.4501  1.2697  2.0606
  128CHL1   H7B15671   3.524   1.908   5.296  1.0734 -1.0284 -1.6159
  128CHL1    C815672   3.311   1.975   5.274 -0.4535 -0.2141  0.0522
  128CHL1    H815673   3.216   1.918   5.285 -0.8022  0.4879  0.7581
  128CHL1   C1415674   3.336   2.059   5.401 -0.0101  0.1836  0.1483
  128CHL1   H1415675   3.433   2.111   5.393  0.0327 -0.0883 -1.2511
  128CHL1   C1515676   3.340   1.989   5.539 -0.1516 -0.1839 -0.2508
  128CHL1  H15A15677   3.259   1.914   5.551  0.1034 -0.4802 -0.3484
  128CHL1  H15B15678   3.436   1.934   5.551  0.9821  1.3397 -1.8257
  128CHL1   C1615679   3.322   2.100   5.642 -0.5066 -0.0077 -0.6131
  128CHL1  H16A15680   3.239   2.063   5.707  0.6533 -0.9945  0.3657
  128CHL1  H16B15681   3.412   2.123   5.703  0.4348  0.9289 -2.3051
  128CHL1   C1715682   3.265   2.225   5.561 -0.0586 -0.5165  0.0111
  128CHL1   H1715683   3.358   2.284   5.550 -0.8396  1.1522  1.6547
  128CHL1   C1315684   3.225   2.166   5.424  0.6254 -0.3026 -0.2806
  128CHL1   C1815685   3.084   2.097   5.434  0.6622 -0.6784 -0.6630
  128CHL1  H18A15686   3.067   2.049   5.532 -0.3714 -1.4592 -1.1978
  128CHL1  H18B15687   3.003   2.172   5.420  0.3972 -0.7042  0.6408
  128CHL1  H18C15688   3.077   2.017   5.357 -0.6997 -0.6761 -0.5591
  128CHL1   C1215689   3.229   2.257   5.301  0.0093  0.3833 -0.3160
  128CHL1  H12A15690   3.148   2.334   5.307  0.7721  1.1019  1.4126
  128CHL1  H12B15691   3.333   2.295   5.301  0.5140 -0.8634  1.4738
  128CHL1   C1115692   3.211   2.186   5.162 -0.7605 -0.4774  0.3886
  128CHL1  H11A15693   3.103   2.158   5.157 -1.4661  1.8244  1.3180
  128CHL1  H11B15694   3.238   2.262   5.086  0.1037 -0.5988  0.5706
  128CHL1    C915695   3.305   2.061   5.151  0.0206  0.2436 -0.6141
  128CHL1    H915696   3.403   2.112   5.146  0.1188  0.6689  3.0146
  128CHL1   C1015697   3.288   1.977   5.016  0.0788 -0.0662  0.3002
  128CHL1   C1915698   3.139   1.947   5.003  0.6317 -0.0068 -0.3399
  128CHL1  H19A15699   3.098   1.907   5.098  0.4542 -1.2819 -0.9326
  128CHL1  H19B15700   3.089   2.045   4.987 -1.4068 -0.9102  0.1658
  128CHL1  H19C15701   3.119   1.889   4.911 -1.7685 -1.5991  1.0808
  128CHL1    C115702   3.353   2.061   4.900 -0.0269  0.1718  0.2436
  128CHL1   H1A15703   3.290   2.152   4.889  3.5212  2.7131 -0.8504
  128CHL1   H1B15704   3.452   2.106   4.925  0.3701 -0.3563 -0.3406
  128CHL1    C215705   3.376   1.991   4.764  0.9362  0.0344 -0.0480
  128CHL1   H2A15706   3.435   2.060   4.700 -1.4248  2.3112  0.0520
  128CHL1   H2B15707   3.272   1.974   4.729  0.6253 -1.1654  1.3597
  128CHL1   C2015708   3.158   2.307   5.634  0.4413 -0.4093  0.1242
  128CHL1   H2015709   3.075   2.235   5.655  1.0499 -0.6830  1.7453
  128CHL1   C2115710   3.101   2.423   5.550  0.0909  0.0446  0.2305
  128CHL1  H21A15711   3.172   2.489   5.496  0.0606  0.2704  0.4636
  128CHL1  H21B15712   3.029   2.494   5.597 -0.8288  0.3580 -1.5376
  128CHL1  H21C15713   3.032   2.377   5.475 -0.5078  0.6943  0.3741
  128CHL1   C2215714   3.207   2.365   5.769  0.1702 -0.4498  0.6609
  128CHL1  H22A15715   3.280   2.303   5.824  1.1729 -0.5818 -0.7535
  128CHL1  H22B15716   3.256   2.461   5.742 -3.3587  1.3504  0.0897
  128CHL1   C2315717   3.096   2.407   5.865 -0.2801  0.5577 -0.2349
  128CHL1  H23A15718   3.013   2.442   5.800 -0.3831  0.8333  0.0467
  128CHL1  H23B15719   3.060   2.319   5.922 -0.3361  1.0811  0.5342
  128CHL1   C2415720   3.144   2.521   5.952  0.1949  0.0762  0.0339
  128CHL1  H24A15721   3.245   2.502   5.993  1.2872  0.0308 -2.5016
  128CHL1  H24B15722   3.169   2.604   5.883 -2.3018  1.8488  1.1040
  128CHL1   C2515723   3.041   2.577   6.057  0.3779  0.1332  0.2646
  128CHL1   H2515724   2.985   2.490   6.097 -0.0227  0.2840  0.0349
  128CHL1   C2615725   3.105   2.645   6.184 -0.5449  0.4477  0.4554
  128CHL1  H26A15726   3.024   2.671   6.255 -0.9016  0.1538  0.1650
  128CHL1  H26B15727   3.166   2.567   6.235  0.6985  0.5124 -0.8579
  128CHL1  H26C15728   3.162   2.732   6.146 -0.8869  0.6991  0.5156
  128CHL1   C2715729   2.930   2.660   5.979 -0.0097  0.1842  0.1166
  128CHL1  H27A15730   2.891   2.591   5.901  1.6369  1.9462 -2.4505
  128CHL1  H27B15731   2.838   2.689   6.033  0.2681 -2.2634  2.0463
  128CHL1  H27C15732   2.972   2.750   5.928 -1.2381  0.2464 -0.8355
  129CHL1    C315733   5.240   5.987   4.562  0.4861 -0.6673  0.1558
  129CHL1    H315734   5.146   6.043   4.584  1.1944  0.8082 -0.4659
  129CHL1    O315735   5.250   5.969   4.419  0.5170  0.4752  0.0388
  129CHL1   H3'15736   5.319   5.902   4.410  1.3496  1.5451 -2.4151
  129CHL1    C415737   5.366   6.065   4.603 -0.5966  0.2336 -0.2939
  129CHL1   H4A15738   5.461   6.020   4.566  2.0320  3.0145  2.4911
  129CHL1   H4B15739   5.358   6.164   4.553  2.1909 -0.2173 -1.8626
  129CHL1    C515740   5.375   6.074   4.748  0.0160  0.1411 -0.8796
  129CHL1    C615741   5.404   6.195   4.800  0.8531 -0.5771 -0.1978
  129CHL1    H615742   5.429   6.281   4.736  1.8703 -0.6764  0.0532
  129CHL1    C715743   5.418   6.219   4.952 -0.2093  1.0153 -0.9168
  129CHL1   H7A15744   5.509   6.279   4.977 -0.4116  0.2163  2.1195
  129CHL1   H7B15745   5.331   6.275   4.992  1.4819  1.8421  1.9135
  129CHL1    C815746   5.431   6.086   5.036  0.3553 -0.1131  0.6636
  129CHL1    H815747   5.534   6.046   5.032 -0.1817 -1.4425 -0.8210
  129CHL1   C1415748   5.403   6.112   5.184 -0.0828 -0.2668 -0.4255
  129CHL1   H1415749   5.299   6.147   5.200  0.4709  1.3012 -0.0578
  129CHL1   C1515750   5.483   6.230   5.252  0.6203 -0.3038  0.3345
  129CHL1  H15A15751   5.590   6.223   5.223  1.3699  2.3254  2.1044
  129CHL1  H15B15752   5.453   6.335   5.234  2.7636  0.4089  0.7044
  129CHL1   C1615753   5.492   6.191   5.402 -0.2913  0.6843 -0.0590
  129CHL1  H16A15754   5.597   6.192   5.441 -0.3730  0.7420  0.1638
  129CHL1  H16B15755   5.434   6.271   5.452  0.2763  0.0372  1.7354
  129CHL1   C1715756   5.416   6.055   5.416  0.4087 -0.1638 -0.3472
  129CHL1   H1715757   5.308   6.079   5.426  0.6043  1.2909 -1.3008
  129CHL1   C1315758   5.425   5.989   5.275 -0.8768 -0.1317  0.0885
  129CHL1   C1815759   5.573   5.939   5.263 -0.4405  0.1232  0.1940
  129CHL1  H18A15760   5.589   5.858   5.338 -2.5152  0.2967  0.8801
  129CHL1  H18B15761   5.596   5.887   5.168  2.4828  0.3855  0.6492
  129CHL1  H18C15762   5.643   6.024   5.277 -1.1445  0.7549 -0.1025
  129CHL1   C1215763   5.323   5.877   5.226  0.2304  0.0662 -0.6800
  129CHL1  H12A15764   5.339   5.782   5.282  1.1796 -1.1145 -2.8230
  129CHL1  H12B15765   5.222   5.922   5.235 -0.1761 -0.9562  0.0400
  129CHL1   C1115766   5.334   5.852   5.073  0.4247 -0.2324  0.5298
  129CHL1  H11A15767   5.432   5.802   5.064  0.6208  0.2356 -0.0111
  129CHL1  H11B15768   5.260   5.774   5.044  1.0177 -0.3707 -0.6813
  129CHL1    C915769   5.330   5.978   4.984  0.3947  0.2271  0.1171
  129CHL1    H915770   5.229   6.021   4.997  0.5715  0.0401  2.3545
  129CHL1   C1015771   5.345   5.944   4.835 -0.0404 -0.0433  0.3226
  129CHL1   C1915772   5.468   5.850   4.822  0.0152  0.5534 -0.0349
  129CHL1  H19A15773   5.492   5.836   4.714 -0.8258 -0.8688 -0.0661
  129CHL1  H19B15774   5.553   5.888   4.883 -0.2555  0.3616  0.4657
  129CHL1  H19C15775   5.433   5.754   4.865  1.7474 -0.0675  0.0840
  129CHL1    C115776   5.218   5.874   4.776  0.3788 -0.1777 -1.1313
  129CHL1   H1A15777   5.204   5.777   4.829 -1.4846  0.8228  0.3234
  129CHL1   H1B15778   5.125   5.929   4.797  0.4415 -0.0563 -1.1726
  129CHL1    C215779   5.222   5.857   4.623 -0.3088 -0.0238 -1.0142
  129CHL1   H2A15780   5.136   5.792   4.596 -0.2509 -0.6128  0.1540
  129CHL1   H2B15781   5.310   5.791   4.604 -0.5569 -1.1463  1.4153
  129CHL1   C2015782   5.466   5.979   5.541 -0.3223 -0.2349  0.0189
  129CHL1   H2015783   5.575   5.963   5.538  0.7701  4.6950  2.5908
  129CHL1   C2115784   5.398   5.843   5.550 -0.3279 -0.1772  0.1940
  129CHL1  H21A15785   5.438   5.790   5.638  1.4046  1.1567  0.2686
  129CHL1  H21B15786   5.419   5.775   5.465  2.0338 -1.4232  1.6824
  129CHL1  H21C15787   5.287   5.847   5.547 -0.4091 -1.3298 -3.5610
  129CHL1   C2215788   5.441   6.061   5.664  0.2096  0.3999 -0.7782
  129CHL1  H22A15789   5.485   6.162   5.653  1.2879  0.2290  1.4172
  129CHL1  H22B15790   5.335   6.086   5.684  0.1141  0.8776 -1.8012
  129CHL1   C2315791   5.505   6.005   5.797  0.2198  0.6119 -0.2851
  129CHL1  H23A15792   5.479   5.898   5.817  0.4244  0.5159 -0.5257
  129CHL1  H23B15793   5.616   6.007   5.794  0.2370 -0.4591 -1.6372
  129CHL1   C2415794   5.459   6.085   5.925  0.3369  0.1424 -0.0880
  129CHL1  H24A15795   5.527   6.173   5.918 -1.0660  1.1747 -1.1582
  129CHL1  H24B15796   5.352   6.112   5.931  0.8373  2.3188 -0.2879
  129CHL1   C2515797   5.501   6.024   6.062  0.0750  0.1306 -0.5796
  129CHL1   H2515798   5.463   5.921   6.080 -1.4035  0.8254  0.4213
  129CHL1   C2615799   5.654   6.023   6.089 -0.0284 -0.4654  0.5534
  129CHL1  H26A15800   5.687   6.129   6.095  0.5756 -0.4455 -1.9474
  129CHL1  H26B15801   5.681   5.945   6.163  2.3269  0.6665  0.9493
  129CHL1  H26C15802   5.698   5.990   5.992 -1.6923  2.4255 -1.3728
  129CHL1   C2715803   5.441   6.118   6.167 -0.5080  0.7334 -0.5612
  129CHL1  H27A15804   5.475   6.221   6.144  0.3791  0.1670 -1.9083
  129CHL1  H27B15805   5.331   6.118   6.178 -0.7075  1.6904 -2.1671
  129CHL1  H27C15806   5.473   6.083   6.267 -2.3279  0.0985 -0.1721
  130CHL1    C315807   3.877   1.619   4.881 -0.0410 -0.1638 -0.6376
  130CHL1    H315808   3.779   1.605   4.931  0.7453  1.0527  1.3941
  130CHL1    O315809   3.864   1.614   4.739  0.0232 -0.9215  0.5533
  130CHL1   H3'15810   3.927   1.680   4.710  0.3228 -1.0242  0.9617
  130CHL1    C415811   3.934   1.751   4.921 -0.1933  0.1499 -0.3096
  130CHL1   H4A15812   4.038   1.756   4.881  0.8031 -1.0882  1.8991
  130CHL1   H4B15813   3.869   1.837   4.893  1.1518  1.6139  0.8656
  130CHL1    C515814   3.941   1.745   5.069 -0.4764  0.0068 -0.6368
  130CHL1    C615815   3.882   1.839   5.141  0.0520  0.4224  0.4051
  130CHL1    H615816   3.829   1.919   5.087  1.5059  1.0062 -0.2173
  130CHL1    C715817   3.901   1.855   5.295 -0.6027  0.1364  0.2755
  130CHL1   H7A15818   3.927   1.959   5.324 -0.7155 -0.0440  1.0475
  130CHL1   H7B15819   3.803   1.831   5.341  0.1978 -0.5266  1.6958
  130CHL1    C815820   4.013   1.757   5.345 -0.0889  0.4331 -0.0809
  130CHL1    H815821   4.114   1.798   5.323  0.6663 -0.1590  2.0741
  130CHL1   C1415822   4.001   1.741   5.495  0.9393  0.0933  0.3250
  130CHL1   H1415823   3.906   1.683   5.500  1.7973 -1.4111 -0.1954
  130CHL1   C1515824   3.983   1.857   5.591  0.0700 -0.2273 -0.1508
  130CHL1  H15A15825   4.034   1.952   5.564  0.3576 -0.1644  0.5788
  130CHL1  H15B15826   3.874   1.877   5.580  0.4533  1.5349 -0.9968
  130CHL1   C1615827   4.009   1.801   5.732 -0.5027  0.0875  0.0211
  130CHL1  H16A15828   4.100   1.852   5.770 -1.3948  1.9037 -0.1424
  130CHL1  H16B15829   3.921   1.810   5.800 -0.8733 -1.9557 -0.1401
  130CHL1   C1715830   4.051   1.651   5.711  0.0976  0.0712 -0.0995
  130CHL1   H1715831   3.966   1.581   5.723 -0.1747  0.7487  2.7127
  130CHL1   C1315832   4.101   1.650   5.563  0.3321  0.2163 -0.2381
  130CHL1   C1815833   4.243   1.709   5.555  0.0210  0.3315  0.1621
  130CHL1  H18A15834   4.252   1.813   5.593 -0.1175  0.7550 -0.9298
  130CHL1  H18B15835   4.315   1.648   5.614 -1.6776 -0.3769  1.5830
  130CHL1  H18C15836   4.277   1.706   5.449  1.1171 -1.2245  0.5244
  130CHL1   C1215837   4.089   1.505   5.500  0.2234 -1.1372 -0.0804
  130CHL1  H12A15838   4.155   1.432   5.550  0.9384 -0.5584 -0.1532
  130CHL1  H12B15839   3.982   1.481   5.514  0.0745 -0.3932  0.1215
  130CHL1   C1115840   4.102   1.512   5.346  0.1787 -0.7524 -0.4811
  130CHL1  H11A15841   4.208   1.544   5.334 -0.4964  2.6954  1.5369
  130CHL1  H11B15842   4.089   1.408   5.308 -0.6617 -0.8815  0.1448
  130CHL1    C915843   4.004   1.618   5.283  0.1887  1.0396  0.6405
  130CHL1    H915844   3.900   1.586   5.304  0.5405  0.3971  1.4392
  130CHL1   C1015845   4.016   1.619   5.127  0.2778 -0.0866  0.5518
  130CHL1   C1915846   4.166   1.637   5.102  0.1816  0.4364  0.7612
  130CHL1  H19A15847   4.209   1.534   5.100 -1.4163 -0.2564 -0.5557
  130CHL1  H19B15848   4.174   1.684   5.001 -0.6462 -1.0739 -0.0469
  130CHL1  H19C15849   4.222   1.701   5.173  2.9070  0.5822 -1.3334
  130CHL1    C115850   3.970   1.488   5.067  0.0542 -0.0954 -0.0066
  130CHL1   H1A15851   4.010   1.394   5.109  0.7853 -0.2268 -0.9645
  130CHL1   H1B15852   3.861   1.492   5.087  0.3178 -2.1529  2.2368
  130CHL1    C215853   3.965   1.497   4.916 -0.3474  0.7369 -0.1639
  130CHL1   H2A15854   3.922   1.402   4.877 -1.7611  1.0355  0.5756
  130CHL1   H2B15855   4.064   1.513   4.869 -1.1772  0.8518 -1.9357
  130CHL1   C2015856   4.143   1.599   5.815 -0.2685 -0.2358  0.5336
  130CHL1   H2015857   4.248   1.631   5.796 -1.1118  1.4667 -1.7998
  130CHL1   C2115858   4.155   1.444   5.816  0.5229 -0.3246  0.1242
  130CHL1  H21A15859   4.054   1.400   5.807 -0.4117  1.6345  0.5221
  130CHL1  H21B15860   4.197   1.408   5.913 -0.9938  0.1574  0.9981
  130CHL1  H21C15861   4.222   1.414   5.733 -1.5156 -2.9644 -0.7191
  130CHL1   C2215862   4.100   1.638   5.960 -0.7251  0.4832  0.3624
  130CHL1  H22A15863   4.181   1.597   6.023 -0.8507 -0.4063 -0.0465
  130CHL1  H22B15864   4.100   1.747   5.984  2.9682  0.5363  0.5691
  130CHL1   C2315865   3.962   1.585   5.994 -0.3611  0.4398  0.8277
  130CHL1  H23A15866   3.893   1.602   5.909 -0.7781 -2.2214  0.5243
  130CHL1  H23B15867   3.966   1.474   6.005  0.8377  0.2007 -1.4726
  130CHL1   C2415868   3.910   1.638   6.125 -0.5003  0.4991 -0.1199
  130CHL1  H24A15869   3.950   1.564   6.197 -0.3766 -0.3149 -1.0066
  130CHL1  H24B15870   3.940   1.741   6.152 -0.1638 -0.1896  2.3748
  130CHL1   C2515871   3.761   1.649   6.133 -0.0863 -0.0616 -0.8394
  130CHL1   H2515872   3.741   1.718   6.048 -0.2096  0.1631 -0.6309
  130CHL1   C2615873   3.689   1.514   6.113 -0.2570  0.7147 -0.1678
  130CHL1  H26A15874   3.729   1.436   6.182 -2.4778 -1.3205 -1.0409
  130CHL1  H26B15875   3.583   1.539   6.134 -0.4959  0.1898 -0.7294
  130CHL1  H26C15876   3.711   1.485   6.008 -0.7654  0.7163 -0.2760
  130CHL1   C2715877   3.716   1.711   6.267  0.6961 -0.4629  0.2001
  130CHL1  H27A15878   3.753   1.813   6.288  0.9427 -0.7205  1.0794
  130CHL1  H27B15879   3.608   1.703   6.290  0.4327  1.9646  0.0519
  130CHL1  H27C15880   3.758   1.645   6.346 -2.6447 -2.1281  0.7643
  131CHL1    C315881   2.084   6.038   5.191 -0.2949  0.3827 -0.6603
  131CHL1    H315882   1.983   5.991   5.185 -1.0623  1.7886  0.5508
  131CHL1    O315883   2.147   6.037   5.066  0.5393 -0.1537 -0.1389
  131CHL1   H3'15884   2.220   6.098   5.079 -1.0494  1.4406  1.8307
  131CHL1    C415885   2.069   6.177   5.255 -0.2260 -0.2463 -0.3680
  131CHL1   H4A15886   2.158   6.242   5.242  1.4173 -1.7399  2.4986
  131CHL1   H4B15887   1.990   6.218   5.188  1.2743 -1.7680 -3.3174
  131CHL1    C515888   2.031   6.187   5.396  1.0637  0.4622  0.1401
  131CHL1    C615889   1.921   6.257   5.433 -0.1476  0.1871  0.1708
  131CHL1    H615890   1.866   6.316   5.357  0.1132 -0.5628 -0.6128
  131CHL1    C715891   1.872   6.271   5.571 -0.1130 -0.4589 -0.1349
  131CHL1   H7A15892   1.848   6.379   5.582 -0.5475  0.0358 -4.3173
  131CHL1   H7B15893   1.782   6.210   5.590  0.5672 -1.3589  0.2889
  131CHL1    C815894   1.982   6.228   5.672 -0.9915  0.2590 -0.0507
  131CHL1    H815895   2.064   6.303   5.670 -0.5046 -0.2678 -0.1173
  131CHL1   C1415896   1.918   6.215   5.810 -0.0307  0.2800 -0.2882
  131CHL1   H1415897   1.833   6.144   5.799 -0.6435  1.1972 -1.7994
  131CHL1   C1515898   1.854   6.342   5.870  0.2756  0.0221 -0.2132
  131CHL1  H15A15899   1.913   6.434   5.853  0.5939  0.4257  2.5948
  131CHL1  H15B15900   1.752   6.355   5.829  0.5881 -1.6987 -1.6700
  131CHL1   C1615901   1.840   6.312   6.023  0.2870  0.5853 -0.1595
  131CHL1  H16A15902   1.886   6.401   6.070 -0.2791  0.6064  0.3647
  131CHL1  H16B15903   1.733   6.293   6.049 -0.0276 -0.7230 -2.1288
  131CHL1   C1715904   1.920   6.171   6.039  0.2683 -0.2882 -0.2386
  131CHL1   H1715905   1.857   6.081   6.025  2.4034 -1.8776 -0.2688
  131CHL1   C1315906   2.011   6.163   5.915  0.4987  0.1960 -0.1037
  131CHL1   C1815907   2.130   6.252   5.935 -0.7140 -0.4033  0.1231
  131CHL1  H18A15908   2.206   6.206   6.002  0.6493 -0.4440 -1.4025
  131CHL1  H18B15909   2.177   6.265   5.835 -2.6298  1.9521 -0.5734
  131CHL1  H18C15910   2.110   6.359   5.958  0.3022 -0.3594  0.8814
  131CHL1   C1215911   2.052   6.020   5.876 -0.1221 -0.4062 -0.2185
  131CHL1  H12A15912   2.118   5.980   5.955 -0.5956 -0.4432  0.1599
  131CHL1  H12B15913   1.957   5.963   5.870 -0.7884  0.5469  0.9699
  131CHL1   C1115914   2.124   6.029   5.744 -0.3153  0.2629 -1.1453
  131CHL1  H11A15915   2.224   6.075   5.758  0.1534 -0.2428 -2.6065
  131CHL1  H11B15916   2.146   5.925   5.713 -1.4532  0.2145 -1.8612
  131CHL1    C915917   2.042   6.093   5.631 -0.4433  0.5078  0.1847
  131CHL1    H915918   1.952   6.029   5.619 -0.5206  0.4943  0.8086
  131CHL1   C1015919   2.109   6.096   5.492 -0.3648 -0.2298 -0.6141
  131CHL1   C1915920   2.259   6.146   5.495  0.2315  0.3269  0.5820
  131CHL1  H19A15921   2.297   6.164   5.392  0.3522 -1.2581  0.3193
  131CHL1  H19B15922   2.262   6.236   5.560 -0.5840  1.5599 -0.9985
  131CHL1  H19C15923   2.316   6.058   5.531  0.0297 -1.0167 -2.0967
  131CHL1    C115924   2.104   5.947   5.431 -0.6786 -0.4256  0.2252
  131CHL1   H1A15925   2.168   5.882   5.495  0.5282  2.1692  1.8191
  131CHL1   H1B15926   2.000   5.907   5.426 -0.1603 -1.7613 -0.5698
  131CHL1    C215927   2.163   5.945   5.288  0.6687  0.1787  0.5326
  131CHL1   H2A15928   2.156   5.841   5.251 -1.1731  0.4134  0.0758
  131CHL1   H2B15929   2.268   5.982   5.290  0.9469 -0.6283  0.7803
  131CHL1   C2015930   1.990   6.158   6.173  0.0776 -0.7366 -0.1247
  131CHL1   H2015931   2.069   6.080   6.163  0.1528 -0.9369  1.6724
  131CHL1   C2115932   1.892   6.108   6.277  0.3524  1.0260  0.5412
  131CHL1  H21A15933   1.797   6.165   6.267  0.6515  1.7250  1.5671
  131CHL1  H21B15934   1.918   6.119   6.385 -4.3821  0.4345  2.0035
  131CHL1  H21C15935   1.869   6.000   6.263 -3.4845  1.9634 -1.7299
  131CHL1   C2215936   2.054   6.289   6.231 -0.4480  0.8636  0.3411
  131CHL1  H22A15937   2.113   6.347   6.157  1.9596 -2.8137 -0.9041
  131CHL1  H22B15938   1.977   6.355   6.276  0.7071  1.9788  0.7577
  131CHL1   C2315939   2.160   6.262   6.348  0.2498  0.8422 -0.4668
  131CHL1  H23A15940   2.156   6.164   6.401  2.1112  1.1913  0.4168
  131CHL1  H23B15941   2.262   6.250   6.305  1.0870  1.5652  1.2142
  131CHL1   C2415942   2.176   6.376   6.455 -0.3270 -0.0650 -0.0070
  131CHL1  H24A15943   2.179   6.472   6.400 -2.3317  1.0354  1.6662
  131CHL1  H24B15944   2.079   6.375   6.508 -0.9088 -1.2766 -1.0207
  131CHL1   C2515945   2.281   6.352   6.561  0.6830 -0.1247 -0.0784
  131CHL1   H2515946   2.274   6.250   6.605  0.8426 -0.9920 -1.9534
  131CHL1   C2615947   2.430   6.371   6.517 -0.1103 -0.1538 -0.8747
  131CHL1  H26A15948   2.439   6.457   6.447  0.1641  0.5109 -0.0317
  131CHL1  H26B15949   2.488   6.394   6.609 -0.2062  1.1600 -1.1225
  131CHL1  H26C15950   2.457   6.269   6.481  2.0556  0.4195 -0.9655
  131CHL1   C2715951   2.250   6.457   6.675  0.1839  0.3366  0.5723
  131CHL1  H27A15952   2.268   6.558   6.634 -1.4674  0.3178 -0.2564
  131CHL1  H27B15953   2.144   6.452   6.708  1.1668  0.7357  4.2611
  131CHL1  H27C15954   2.312   6.424   6.762 -1.6491 -2.7435  0.8735
  132CHL1    C315955   4.226   0.000   4.685 -0.6980 -0.2157 -0.8359
  132CHL1    H315956   4.264  -0.101   4.712 -1.3653 -0.1677  0.3254
  132CHL1    O315957   4.202   0.015   4.547  0.0634 -0.0268 -0.4717
  132CHL1   H3'15958   4.139  -0.055   4.528  0.7371 -0.9813  0.6512
  132CHL1    C415959   4.086   0.006   4.752  0.4513 -0.5251 -0.3565
  132CHL1   H4A15960   4.049   0.107   4.724  1.8802 -0.1967 -1.1554
  132CHL1   H4B15961   4.014  -0.066   4.708 -2.0882  1.5041  0.1564
  132CHL1    C515962   4.100  -0.016   4.902  0.7057 -0.2938 -0.9732
  132CHL1    C615963   4.037  -0.118   4.966 -0.7135  0.3853 -0.1145
  132CHL1    H615964   3.969  -0.184   4.910 -1.0510  0.6756 -0.0560
  132CHL1    C715965   4.062  -0.159   5.108 -0.1613  0.5456 -0.4030
  132CHL1   H7A15966   3.969  -0.194   5.159 -1.1570  1.3895 -1.6009
  132CHL1   H7B15967   4.137  -0.241   5.110  0.0627  0.6904 -2.0329
  132CHL1    C815968   4.120  -0.048   5.185 -0.0377 -0.1782  0.2009
  132CHL1    H815969   4.049   0.036   5.201 -2.2333 -1.8866 -0.1587
  132CHL1   C1415970   4.165  -0.104   5.332  0.0865 -0.3307 -0.4043
  132CHL1   H1415971   4.234  -0.186   5.304  0.3532 -1.3076  2.7997
  132CHL1   C1515972   4.053  -0.157   5.427 -0.2046 -0.7467 -0.2109
  132CHL1  H15A15973   3.971  -0.084   5.412  1.3567  1.2612  0.5217
  132CHL1  H15B15974   4.021  -0.259   5.397 -0.2951  0.2382 -3.8523
  132CHL1   C1615975   4.104  -0.141   5.570 -0.0159  0.0583 -0.4856
  132CHL1  H16A15976   4.040  -0.072   5.628  0.9687 -0.7876  1.6954
  132CHL1  H16B15977   4.122  -0.237   5.624  1.1733  0.9428  0.7606
  132CHL1   C1715978   4.252  -0.077   5.546  0.9475  0.6537 -0.0653
  132CHL1   H1715979   4.320  -0.162   5.525  0.9084  0.5896  0.0650
  132CHL1   C1315980   4.244  -0.003   5.414 -0.1235 -0.0730  0.3223
  132CHL1   C1815981   4.166   0.123   5.443 -0.0202  0.1744  0.3637
  132CHL1  H18A15982   4.070   0.111   5.498 -0.2543 -0.0065 -0.0810
  132CHL1  H18B15983   4.245   0.193   5.480  0.8408 -0.3833 -0.3648
  132CHL1  H18C15984   4.143   0.172   5.346  1.0103  2.1581  1.0618
  132CHL1   C1215985   4.371   0.017   5.340 -0.1581  0.2291  0.2608
  132CHL1  H12A15986   4.438   0.088   5.395 -2.1861  1.4798  1.2340
  132CHL1  H12B15987   4.419  -0.081   5.319 -2.5089 -1.1333  0.9089
  132CHL1   C1115988   4.351   0.074   5.198  0.1208  0.2634 -0.3953
  132CHL1  H11A15989   4.334   0.183   5.206  2.8171  0.6288  1.9420
  132CHL1  H11B15990   4.449   0.070   5.146  0.4789 -1.5550  0.3017
  132CHL1    C915991   4.246   0.001   5.116  0.4550 -0.7607  1.1199
  132CHL1    H915992   4.303  -0.090   5.085  0.9477  0.3651 -1.5908
  132CHL1   C1015993   4.213   0.066   4.971  0.5078 -0.4625 -0.6178
  132CHL1   C1915994   4.159   0.209   4.994 -0.0383  0.3361  1.3631
  132CHL1  H19A15995   4.161   0.273   4.904  0.0398 -0.1560  1.0118
  132CHL1  H19B15996   4.051   0.211   5.019 -0.0402  0.2829  1.3589
  132CHL1  H19C15997   4.212   0.261   5.076 -0.3971  2.3084  0.4021
  132CHL1    C115998   4.350   0.082   4.893  1.0590 -0.2027  0.5139
  132CHL1   H1A15999   4.410   0.164   4.938 -0.0728 -0.7535  3.2076
  132CHL1   H1B16000   4.413  -0.009   4.896  0.8541 -0.3412  0.5794
  132CHL1    C216001   4.321   0.108   4.747  0.0374 -0.1877 -0.0244
  132CHL1   H2A16002   4.408   0.107   4.678 -1.1892 -0.8469 -1.6256
  132CHL1   H2B16003   4.269   0.202   4.720  1.3737  0.6355  0.1553
  132CHL1   C2016004   4.288  -0.009   5.679  0.4316  0.0674 -0.1061
  132CHL1   H2016005   4.219   0.076   5.697 -1.3937 -0.8434 -2.3182
  132CHL1   C2116006   4.434   0.042   5.673  0.2774  0.4208 -0.0273
  132CHL1  H21A16007   4.467   0.098   5.763 -0.8287  0.7689  0.1797
  132CHL1  H21B16008   4.445   0.111   5.587 -0.6393  0.3223 -0.2366
  132CHL1  H21C16009   4.504  -0.045   5.670  0.0912  0.2162  1.0451
  132CHL1   C2216010   4.267  -0.099   5.807  0.5178  0.2435  0.6730
  132CHL1  H22A16011   4.166  -0.144   5.805  0.3931  0.5442 -0.1727
  132CHL1  H22B16012   4.333  -0.184   5.780 -0.7207 -0.2375 -0.9791
  132CHL1   C2316013   4.323  -0.062   5.947  0.3196 -0.1713  0.2451
  132CHL1  H23A16014   4.434  -0.070   5.946  0.3096 -0.6886  1.6794
  132CHL1  H23B16015   4.287   0.041   5.967 -0.3524 -0.7803  2.3911
  132CHL1   C2416016   4.273  -0.163   6.053 -0.1768 -0.2516 -0.3799
  132CHL1  H24A16017   4.174  -0.203   6.023 -0.4617  0.2172 -0.0772
  132CHL1  H24B16018   4.346  -0.247   6.055  1.1092  0.7934 -1.7240
  132CHL1   C2516019   4.279  -0.116   6.200  0.2681  0.0699 -0.0846
  132CHL1   H2516020   4.205  -0.033   6.207 -0.5070 -0.7001  1.0473
  132CHL1   C2616021   4.236  -0.227   6.294  0.2217 -0.0424  0.1145
  132CHL1  H26A16022   4.211  -0.194   6.397 -1.4853  1.1081 -0.6019
  132CHL1  H26B16023   4.139  -0.272   6.262  0.5124 -0.5372 -0.0857
  132CHL1  H26C16024   4.310  -0.309   6.296  0.9544  0.5677 -0.9547
  132CHL1   C2716025   4.416  -0.062   6.248 -0.0070  0.1832 -0.1944
  132CHL1  H27A16026   4.416  -0.024   6.352 -2.8114 -0.3479  0.0877
  132CHL1  H27B16027   4.505  -0.128   6.237 -0.5310 -0.8365  1.2959
  132CHL1  H27C16028   4.434   0.031   6.190  1.4952 -0.3085 -0.5550
  133CHL1    C316029   1.755   3.485   4.312  0.0600  0.0045 -0.3219
  133CHL1    H316030   1.784   3.378   4.323 -1.1255 -0.3182 -0.2529
  133CHL1    O316031   1.749   3.514   4.176  0.3826  0.2781  0.4199
  133CHL1   H3'16032   1.823   3.476   4.129 -0.6623  0.3637 -1.3947
  133CHL1    C416033   1.618   3.505   4.369 -0.1682  0.5633 -0.3338
  133CHL1   H4A16034   1.580   3.605   4.340  0.6456  1.2049  0.7458
  133CHL1   H4B16035   1.554   3.427   4.322  2.0509 -0.8949 -1.0795
  133CHL1    C516036   1.622   3.491   4.526  0.5084  0.2157 -0.2079
  133CHL1    C616037   1.554   3.395   4.592  0.3781 -0.4610  0.3170
  133CHL1    H616038   1.485   3.334   4.532 -0.5179  1.7100 -1.0012
  133CHL1    C716039   1.541   3.390   4.739  0.4846  0.5943 -0.0524
  133CHL1   H7A16040   1.439   3.358   4.769  0.4543 -0.7388 -1.4242
  133CHL1   H7B16041   1.598   3.301   4.773  0.4846  0.0127 -1.5078
  133CHL1    C816042   1.589   3.522   4.809  0.8010 -0.4061  0.1171
  133CHL1    H816043   1.514   3.602   4.789  1.9833  0.5729 -0.5525
  133CHL1   C1416044   1.593   3.500   4.961 -0.3907  0.2444  0.3304
  133CHL1   H1416045   1.677   3.430   4.977 -0.1701  0.6630  1.0291
  133CHL1   C1516046   1.469   3.449   5.030  0.8833  0.0840  0.7269
  133CHL1  H15A16047   1.381   3.500   4.985  1.9245 -0.7440 -2.5337
  133CHL1  H15B16048   1.445   3.342   5.011 -0.4065  0.3942  0.5020
  133CHL1   C1616049   1.493   3.487   5.176 -0.0824 -0.3749 -0.4716
  133CHL1  H16A16050   1.400   3.537   5.211 -0.2695 -1.6580  0.9574
  133CHL1  H16B16051   1.492   3.393   5.236 -0.7124  0.6061  1.1127
  133CHL1   C1716052   1.619   3.572   5.184  0.1924  0.7532  0.6041
  133CHL1   H1716053   1.706   3.507   5.206 -0.9332 -1.9241 -2.0823
  133CHL1   C1316054   1.638   3.620   5.037  0.8022 -0.3935  0.4694
  133CHL1   C1816055   1.544   3.740   5.009  0.8682  1.0417  0.5939
  133CHL1  H18A16056   1.437   3.709   5.009  0.7629  1.3930  0.0798
  133CHL1  H18B16057   1.559   3.831   5.071  1.8149  1.7071 -0.5777
  133CHL1  H18C16058   1.556   3.777   4.905 -2.2335 -0.5927 -0.4636
  133CHL1   C1216059   1.785   3.660   4.985  1.2206 -0.4578 -0.2746
  133CHL1  H12A16060   1.824   3.749   5.037 -0.6641  0.3615 -0.1839
  133CHL1  H12B16061   1.846   3.572   5.015  0.4242 -1.2452 -0.8942
  133CHL1   C1116062   1.792   3.685   4.837 -0.4197  0.2166  0.1955
  133CHL1  H11A16063   1.749   3.786   4.817 -1.3310  0.2756  2.1897
  133CHL1  H11B16064   1.897   3.679   4.803 -0.0233  0.3892  1.3580
  133CHL1    C916065   1.721   3.576   4.753 -0.5474 -0.5339 -0.2713
  133CHL1    H916066   1.787   3.489   4.774 -0.9175 -0.4806  1.2159
  133CHL1   C1016067   1.719   3.593   4.597  0.4954 -0.0130  0.8051
  133CHL1   C1916068   1.664   3.734   4.569 -0.7198  0.1544 -0.4237
  133CHL1  H19A16069   1.651   3.769   4.465 -0.1571  2.1314  0.1226
  133CHL1  H19B16070   1.568   3.741   4.625  0.2450 -1.2135  1.5220
  133CHL1  H19C16071   1.729   3.815   4.611 -2.4040  1.7401 -0.7216
  133CHL1    C116072   1.852   3.566   4.534 -0.2155  0.0214 -0.4563
  133CHL1   H1A16073   1.926   3.645   4.557 -0.9453  0.3470  0.8571
  133CHL1   H1B16074   1.897   3.471   4.568 -0.2856  0.1664  0.0418
  133CHL1    C216075   1.851   3.577   4.380  0.1622 -0.1229 -0.0439
  133CHL1   H2A16076   1.955   3.569   4.342  0.1591  2.8727 -0.9573
  133CHL1   H2B16077   1.828   3.683   4.358 -0.1721 -0.0588  0.6019
  133CHL1   C2016078   1.609   3.672   5.300  0.4621  0.3350 -0.4313
  133CHL1   H2016079   1.519   3.737   5.294 -0.6121 -0.9469  0.8430
  133CHL1   C2116080   1.736   3.758   5.296 -0.3898 -0.7852 -0.6946
  133CHL1  H21A16081   1.738   3.829   5.382  0.7937 -0.6129 -0.8433
  133CHL1  H21B16082   1.751   3.813   5.201  1.2649 -0.3382 -0.2194
  133CHL1  H21C16083   1.827   3.695   5.307  0.9701  1.1842 -0.1400
  133CHL1   C2216084   1.594   3.608   5.439 -0.3973  0.5075  0.4827
  133CHL1  H22A16085   1.562   3.502   5.427 -1.4702  0.7235  1.2547
  133CHL1  H22B16086   1.701   3.596   5.466 -0.4420  1.0194  0.8863
  133CHL1   C2316087   1.523   3.697   5.543  0.6958 -0.7772  0.2313
  133CHL1  H23A16088   1.577   3.794   5.548 -1.4019  0.6595 -2.0432
  133CHL1  H23B16089   1.429   3.746   5.508  0.7449 -0.5555  0.4024
  133CHL1   C2416090   1.512   3.653   5.690 -0.5146 -0.1366 -0.1724
  133CHL1  H24A16091   1.611   3.652   5.741 -0.2776  0.8551 -0.5787
  133CHL1  H24B16092   1.454   3.732   5.743 -1.5672  1.1130 -2.9900
  133CHL1   C2516093   1.437   3.520   5.721  0.3644 -0.2288  0.9548
  133CHL1   H2516094   1.504   3.436   5.691  0.8502 -0.2854  2.1504
  133CHL1   C2616095   1.420   3.485   5.867  0.1354 -0.1566 -0.2469
  133CHL1  H26A16096   1.509   3.521   5.923 -1.1028 -0.5163  2.1085
  133CHL1  H26B16097   1.335   3.544   5.909  2.2788  1.9414  1.4275
  133CHL1  H26C16098   1.402   3.377   5.885  2.3659 -0.4248  0.6323
  133CHL1   C2716099   1.317   3.514   5.633  1.1764  0.4922 -0.6874
  133CHL1  H27A16100   1.255   3.423   5.652  0.3157  1.3467  0.7804
  133CHL1  H27B16101   1.246   3.598   5.654 -0.2640 -0.9400  0.4280
  133CHL1  H27C16102   1.353   3.515   5.528  0.4127 -0.0998 -0.9669
  134CHL1    C316103   0.264   3.912   4.250  0.4385  0.6137 -0.5133
  134CHL1    H316104   0.214   3.813   4.250  0.4193  0.5881 -2.5131
  134CHL1    O316105   0.297   3.929   4.117 -0.1275 -0.1616 -0.2058
  134CHL1   H3'16106   0.349   4.009   4.113 -0.8653  0.2936 -0.9552
  134CHL1    C416107   0.180   4.026   4.309 -0.4385  0.1578  0.5649
  134CHL1   H4A16108   0.245   4.116   4.313  0.0567 -0.2227  2.2025
  134CHL1   H4B16109   0.099   4.051   4.238 -0.2070 -2.2212 -0.6333
  134CHL1    C516110   0.137   3.999   4.453 -0.9192 -0.0762  0.7875
  134CHL1    C616111   0.008   4.003   4.484 -0.0199 -0.0852  0.3516
  134CHL1    H616112  -0.064   4.034   4.407  0.9009  0.9751 -0.1146
  134CHL1    C716113  -0.043   3.984   4.625  0.4270 -0.0095 -0.4308
  134CHL1   H7A16114  -0.121   4.058   4.653 -3.0242 -3.5868  0.2469
  134CHL1   H7B16115  -0.099   3.888   4.629  1.8240 -0.8423 -0.2174
  134CHL1    C816116   0.075   3.968   4.731 -0.3441 -0.1652  0.3611
  134CHL1    H816117   0.105   4.074   4.743 -1.5361  0.4881 -2.0373
  134CHL1   C1416118   0.017   3.903   4.852  0.9526 -0.0167  0.1910
  134CHL1   H1416119   0.007   3.796   4.823  1.7749 -0.0487 -0.0129
  134CHL1   C1516120  -0.115   3.952   4.908  0.3244 -0.4544  0.0848
  134CHL1  H15A16121  -0.122   4.062   4.921  0.6013 -0.3037 -0.9217
  134CHL1  H15B16122  -0.204   3.913   4.855 -0.6962  1.4735  0.2880
  134CHL1   C1616123  -0.121   3.900   5.051 -0.2972  0.2029  0.3688
  134CHL1  H16A16124  -0.143   3.976   5.129  0.8486  1.0396 -0.1024
  134CHL1  H16B16125  -0.200   3.823   5.061  0.5378 -1.0746 -2.1473
  134CHL1   C1716126   0.021   3.847   5.087 -0.2430  0.1410 -0.1697
  134CHL1   H1716127   0.007   3.738   5.071 -0.4152 -0.0755  1.2849
  134CHL1   C1316128   0.108   3.903   4.971  0.7012  0.1735 -0.3313
  134CHL1   C1816129   0.148   4.040   5.016  0.7176 -0.0604 -0.0752
  134CHL1  H18A16130   0.067   4.101   5.060 -1.1100 -3.0904  1.0980
  134CHL1  H18B16131   0.229   4.032   5.092  0.2698 -0.8617  0.3369
  134CHL1  H18C16132   0.197   4.097   4.934  2.7021 -0.9797  0.3953
  134CHL1   C1216133   0.235   3.827   4.931 -0.1790 -0.7089  0.8852
  134CHL1  H12A16134   0.315   3.829   5.007 -1.2390  3.3118  2.1418
  134CHL1  H12B16135   0.218   3.718   4.916  0.6798 -0.9221  1.4192
  134CHL1   C1116136   0.299   3.884   4.796 -0.7277  0.1961 -0.6797
  134CHL1  H11A16137   0.334   3.986   4.822 -0.3000 -0.4214  1.3323
  134CHL1  H11B16138   0.387   3.825   4.764 -0.4383  1.7890 -3.1239
  134CHL1    C916139   0.194   3.896   4.677 -0.1654 -0.4020 -0.3363
  134CHL1    H916140   0.168   3.789   4.663 -2.1859 -0.0201  0.1857
  134CHL1   C1016141   0.255   3.958   4.545 -0.2267 -0.3169 -0.5871
  134CHL1   C1916142   0.332   4.094   4.571  0.0287  0.6190 -0.5258
  134CHL1  H19A16143   0.425   4.067   4.626 -0.9844  0.6681  1.2827
  134CHL1  H19B16144   0.367   4.149   4.481 -0.4800  0.3538 -0.8903
  134CHL1  H19C16145   0.278   4.159   4.643 -1.0290  1.5431 -2.0941
  134CHL1    C116146   0.360   3.857   4.478  1.0488 -0.8782 -0.1044
  134CHL1   H1A16147   0.449   3.865   4.544  0.9681 -0.4209 -0.0470
  134CHL1   H1B16148   0.307   3.761   4.494  1.3574 -0.9117  0.7638
  134CHL1    C216149   0.389   3.883   4.335 -1.1159 -0.3933  0.8409
  134CHL1   H2A16150   0.432   3.788   4.297  0.7786  0.1294  1.5644
  134CHL1   H2B16151   0.455   3.972   4.335 -1.1545 -0.3589  0.1374
  134CHL1   C2016152   0.066   3.859   5.236 -0.2216 -0.2513  0.0306
  134CHL1   H2016153   0.102   3.961   5.265 -0.4564  0.2181 -1.2600
  134CHL1   C2116154   0.191   3.768   5.249 -0.0699  0.4428  0.5204
  134CHL1  H21A16155   0.275   3.810   5.189  1.0007 -3.2732 -0.8415
  134CHL1  H21B16156   0.167   3.668   5.207 -0.0909  0.8101 -0.3667
  134CHL1  H21C16157   0.221   3.760   5.355 -0.9533  2.1129  0.9257
  134CHL1   C2216158  -0.042   3.811   5.334  0.0346 -0.5505  0.2323
  134CHL1  H22A16159  -0.129   3.880   5.343 -0.9396 -1.6361 -0.4402
  134CHL1  H22B16160  -0.090   3.723   5.284 -1.2213  1.5901 -2.6106
  134CHL1   C2316161   0.006   3.773   5.469  0.3520 -0.3647  1.4333
  134CHL1  H23A16162   0.062   3.677   5.461 -0.2311 -0.6129 -0.2096
  134CHL1  H23B16163   0.077   3.851   5.502 -1.1189  0.4350  2.8520
  134CHL1   C2416164  -0.105   3.764   5.572  0.0891  0.3001  0.2790
  134CHL1  H24A16165  -0.183   3.838   5.546 -1.1004 -1.6864 -2.2879
  134CHL1  H24B16166  -0.149   3.662   5.565  1.2144 -0.4132  2.5697
  134CHL1   C2516167  -0.069   3.780   5.722 -0.3195 -0.2148 -0.7629
  134CHL1   H2516168  -0.004   3.869   5.731 -0.8467  0.1038  0.0250
  134CHL1   C2616169  -0.198   3.815   5.800  0.2652 -0.0677 -0.5574
  134CHL1  H26A16170  -0.261   3.725   5.786  0.8189 -0.3330 -1.4287
  134CHL1  H26B16171  -0.180   3.818   5.910 -2.7614 -3.1271  0.1785
  134CHL1  H26C16172  -0.250   3.908   5.767 -0.8583 -0.5388 -0.1708
  134CHL1   C2716173   0.004   3.659   5.776 -0.3752  0.5280 -0.5034
  134CHL1  H27A16174  -0.054   3.566   5.757 -2.0775  0.9615  2.1089
  134CHL1  H27B16175   0.093   3.653   5.709 -0.6298 -0.5036 -0.7674
  134CHL1  H27C16176   0.019   3.674   5.885  0.1580 -1.2813 -0.2914
  135CHL1    C316177   0.956   3.790   4.119 -0.6038  0.0035  0.0536
  135CHL1    H316178   0.978   3.892   4.155 -1.3082  0.0252  0.4366
  135CHL1    O316179   0.996   3.786   3.981  0.3261  0.3701 -0.9458
  135CHL1   H3'16180   0.954   3.706   3.948  0.0452 -0.2023  0.7225
  135CHL1    C416181   1.043   3.684   4.184  0.5086 -0.2279 -0.1966
  135CHL1   H4A16182   1.024   3.587   4.132 -1.8391  0.5496 -0.8836
  135CHL1   H4B16183   1.140   3.736   4.167 -0.8746  2.2437 -1.0022
  135CHL1    C516184   1.018   3.668   4.329 -0.4154 -0.6279 -0.4648
  135CHL1    C616185   1.118   3.668   4.424  0.2310  0.2389  0.4566
  135CHL1    H616186   1.223   3.680   4.394  0.0262  0.0301 -0.3536
  135CHL1    C716187   1.103   3.649   4.576 -0.3131 -0.9387  1.1577
  135CHL1   H7A16188   1.180   3.579   4.615  0.6283 -0.4519  0.2245
  135CHL1   H7B16189   1.128   3.747   4.621 -1.1771 -0.4389  0.5939
  135CHL1    C816190   0.961   3.606   4.613  0.7794 -0.2484  0.1038
  135CHL1    H816191   0.951   3.497   4.595  0.6281 -0.2787  0.3816
  135CHL1   C1416192   0.932   3.638   4.758  0.3811 -0.2945  0.2736
  135CHL1   H1416193   0.954   3.746   4.773 -1.1024 -0.0575  0.9451
  135CHL1   C1516194   1.016   3.570   4.863  0.5208 -0.3554  0.1378
  135CHL1  H15A16195   1.006   3.463   4.837  1.7337 -0.2575 -0.8337
  135CHL1  H15B16196   1.123   3.601   4.865  0.1413  1.0083  1.4383
  135CHL1   C1616197   0.950   3.614   4.991 -0.9452  0.5060 -0.4343
  135CHL1  H16A16198   0.954   3.540   5.074  0.2946  1.9007  0.8101
  135CHL1  H16B16199   1.008   3.704   5.022  2.5386 -1.6723 -0.1359
  135CHL1   C1716200   0.805   3.663   4.959 -0.5830  0.7010 -0.2475
  135CHL1   H1716201   0.813   3.774   4.964 -0.0303  0.6238  0.8611
  135CHL1   C1316202   0.785   3.620   4.811  0.2910  0.8098  0.2456
  135CHL1   C1816203   0.746   3.464   4.796 -0.6332  0.4463  0.5296
  135CHL1  H18A16204   0.639   3.446   4.820 -0.4139 -1.7479  0.0492
  135CHL1  H18B16205   0.764   3.437   4.689 -1.8086  3.0069 -0.3982
  135CHL1  H18C16206   0.808   3.402   4.863 -0.1603  1.7289  1.3210
  135CHL1   C1216207   0.693   3.694   4.721 -0.2467 -0.1404  0.0491
  135CHL1  H12A16208   0.589   3.661   4.742 -0.8666  1.4928 -0.3288
  135CHL1  H12B16209   0.704   3.804   4.731 -1.5144 -0.0002  0.0562
  135CHL1   C1116210   0.712   3.667   4.573  0.3281  0.5790 -0.7398
  135CHL1  H11A16211   0.680   3.567   4.536  0.1926  0.8424 -1.3470
  135CHL1  H11B16212   0.636   3.731   4.524 -1.3669 -1.0569 -0.3933
  135CHL1    C916213   0.863   3.678   4.524 -0.2619 -1.1631 -0.6532
  135CHL1    H916214   0.878   3.787   4.537 -1.8557 -0.9786 -0.1122
  135CHL1   C1016215   0.877   3.652   4.371 -0.1298 -0.0521  1.0461
  135CHL1   C1916216   0.845   3.502   4.331  0.3022  0.0643  0.3648
  135CHL1  H19A16217   0.925   3.439   4.374  0.5397 -0.8931 -1.3693
  135CHL1  H19B16218   0.750   3.461   4.369  1.4433 -3.2557 -0.0303
  135CHL1  H19C16219   0.842   3.484   4.221  0.0403  1.5335  0.1034
  135CHL1    C116220   0.786   3.752   4.282 -0.3898 -0.0722  0.3301
  135CHL1   H1A16221   0.682   3.719   4.305 -0.0833 -0.5746  1.0285
  135CHL1   H1B16222   0.803   3.847   4.336 -0.6640 -0.5787  1.3230
  135CHL1    C216223   0.811   3.758   4.130  0.2440  0.5719 -0.8532
  135CHL1   H2A16224   0.747   3.836   4.084 -0.3414  0.7612  0.2455
  135CHL1   H2B16225   0.785   3.661   4.082 -1.1831  0.9455 -0.8946
  135CHL1   C2016226   0.700   3.609   5.065  0.0190 -0.1410 -0.7338
  135CHL1   H2016227   0.721   3.501   5.083 -2.6343 -0.4928  0.8897
  135CHL1   C2116228   0.553   3.631   5.025 -0.4609  0.5409  0.7705
  135CHL1  H21A16229   0.480   3.569   5.081 -2.1396  0.7412 -1.0758
  135CHL1  H21B16230   0.529   3.602   4.921  0.7975  2.4745 -0.1161
  135CHL1  H21C16231   0.515   3.733   5.046 -3.7084 -0.8904  2.6685
  135CHL1   C2216232   0.723   3.667   5.207 -0.5734 -0.2221 -0.2195
  135CHL1  H22A16233   0.830   3.648   5.231 -1.3299 -3.4785  1.1550
  135CHL1  H22B16234   0.709   3.777   5.198 -0.2111 -0.1425  0.2036
  135CHL1   C2316235   0.636   3.608   5.316  0.1085 -0.0972  0.2422
  135CHL1  H23A16236   0.528   3.605   5.290  0.6352 -0.9190 -2.1176
  135CHL1  H23B16237   0.663   3.504   5.344 -0.3540  0.0774  1.3845
  135CHL1   C2416238   0.653   3.692   5.444 -0.1929  0.1614  0.2629
  135CHL1  H24A16239   0.761   3.694   5.467 -0.7436 -0.5933  3.3760
  135CHL1  H24B16240   0.609   3.792   5.425  0.3413  0.5406  1.0003
  135CHL1   C2516241   0.592   3.625   5.568 -0.9898  0.2972 -0.6540
  135CHL1   H2516242   0.656   3.535   5.585  2.0006  2.1876 -1.2371
  135CHL1   C2616243   0.611   3.713   5.692 -0.3282  0.3744  0.0114
  135CHL1  H26A16244   0.554   3.674   5.780 -0.7440  0.9980  0.0203
  135CHL1  H26B16245   0.718   3.722   5.720 -0.2601 -1.3033  0.4398
  135CHL1  H26C16246   0.576   3.817   5.678 -0.3455  0.1975 -1.3246
  135CHL1   C2716247   0.444   3.585   5.555  0.3664  0.3185 -0.2543
  135CHL1  H27A16248   0.370   3.667   5.541  0.8182  1.0033  1.1396
  135CHL1  H27B16249   0.425   3.496   5.492  1.1888  1.4468 -2.1640
  135CHL1  H27C16250   0.406   3.557   5.656  2.2375 -1.4276  0.0159
  136CHL1    C316251   4.952   1.138   4.236 -0.1096 -1.2319  0.1827
  136CHL1    H316252   4.861   1.076   4.248 -1.5854  1.0341  1.5882
  136CHL1    O316253   4.976   1.167   4.100  0.4645 -0.1204 -0.0400
  136CHL1   H3'16254   5.064   1.130   4.092  0.8776  1.0280 -1.2405
  136CHL1    C416255   4.917   1.278   4.300 -0.4817 -0.2461  0.2978
  136CHL1   H4A16256   5.000   1.349   4.281  0.6468 -2.1665 -2.6053
  136CHL1   H4B16257   4.826   1.311   4.246  0.9970 -0.0931 -2.2576
  136CHL1    C516258   4.906   1.275   4.448  0.5065  0.5137 -0.3292
  136CHL1    C616259   4.786   1.313   4.504 -0.4731  0.1704 -0.4191
  136CHL1    H616260   4.705   1.345   4.437  1.2390  1.1852 -2.1196
  136CHL1    C716261   4.765   1.303   4.650  0.1379  0.4298  0.0159
  136CHL1   H7A16262   4.708   1.390   4.689 -1.8150 -1.2822  1.1894
  136CHL1   H7B16263   4.702   1.218   4.684  0.8994  0.9023  2.8927
  136CHL1    C816264   4.894   1.292   4.731 -0.3311 -0.2196 -0.3745
  136CHL1    H816265   4.948   1.388   4.714  0.6840 -0.5173  1.0268
  136CHL1   C1416266   4.878   1.284   4.884  0.4869  0.4026  0.7294
  136CHL1   H1416267   4.805   1.199   4.886 -0.9419  1.3838 -2.5782
  136CHL1   C1516268   4.808   1.396   4.959 -0.5179 -0.3607  0.0684
  136CHL1  H15A16269   4.855   1.491   4.924  1.1872 -1.2177 -0.0457
  136CHL1  H15B16270   4.698   1.409   4.957 -0.8055 -2.0763  1.7261
  136CHL1   C1616271   4.848   1.367   5.106  0.2875 -0.1053  0.6584
  136CHL1  H16A16272   4.884   1.457   5.161 -2.3684  1.1411  0.4936
  136CHL1  H16B16273   4.771   1.317   5.168 -0.6061  0.0519 -0.2948
  136CHL1   C1716274   4.948   1.248   5.098 -0.0445  0.2138 -0.5417
  136CHL1   H1716275   4.897   1.149   5.101  2.8443 -1.3901 -1.0340
  136CHL1   C1316276   5.008   1.256   4.956 -0.1963  0.3602  1.1457
  136CHL1   C1816277   5.103   1.378   4.954  0.4155  0.4796  0.1744
  136CHL1  H18A16278   5.195   1.352   5.011  2.0550  3.0477 -1.1483
  136CHL1  H18B16279   5.131   1.393   4.848  2.9282 -1.2677  0.4945
  136CHL1  H18C16280   5.060   1.473   4.993  0.1188  1.2751 -2.0018
  136CHL1   C1216281   5.068   1.126   4.897 -0.1183  0.0433  0.3770
  136CHL1  H12A16282   5.159   1.086   4.946  0.4352  0.5960 -0.1636
  136CHL1  H12B16283   4.994   1.044   4.902 -1.4935  1.0358 -2.0407
  136CHL1   C1116284   5.112   1.145   4.753  0.0926 -0.2727  0.0735
  136CHL1  H11A16285   5.188   1.225   4.766 -0.6777  0.4239  0.3375
  136CHL1  H11B16286   5.163   1.053   4.718  1.0516  0.5863 -0.8786
  136CHL1    C916287   4.989   1.185   4.669  0.0094  0.5667  1.0240
  136CHL1    H916288   4.933   1.089   4.665  0.2278  0.4440  0.8996
  136CHL1   C1016289   5.027   1.216   4.521  0.5774  0.1307  0.1561
  136CHL1   C1916290   5.150   1.310   4.525 -0.0997  0.4766  0.7025
  136CHL1  H19A16291   5.244   1.263   4.562 -1.3307 -2.6295  0.1859
  136CHL1  H19B16292   5.167   1.345   4.421 -0.9242  0.3482  0.5184
  136CHL1  H19C16293   5.126   1.406   4.576  0.2520  1.5345 -1.0268
  136CHL1    C116294   5.070   1.078   4.448 -0.5238  0.0537 -0.0549
  136CHL1   H1A16295   5.171   1.052   4.485 -1.4149 -2.2251  0.9628
  136CHL1   H1B16296   4.999   0.996   4.471  1.9246 -2.0421  0.3545
  136CHL1    C216297   5.077   1.077   4.292  0.0401 -0.2291 -0.3976
  136CHL1   H2A16298   5.066   0.974   4.252  0.3336  0.0800 -1.3179
  136CHL1   H2B16299   5.167   1.136   4.264  0.1500 -0.3581 -0.3159
  136CHL1   C2016300   5.044   1.265   5.228  0.0862  0.2251  0.0066
  136CHL1   H2016301   5.097   1.362   5.235 -0.5999  0.5379  1.2465
  136CHL1   C2116302   5.147   1.158   5.212  0.6643 -0.0865  0.0345
  136CHL1  H21A16303   5.192   1.135   5.311 -0.5379 -1.0278  0.3760
  136CHL1  H21B16304   5.227   1.178   5.137  0.8892  1.7114  0.6795
  136CHL1  H21C16305   5.094   1.064   5.191  1.6287 -1.0085  1.5387
  136CHL1   C2216306   4.962   1.246   5.361 -0.0902  0.0657 -0.3785
  136CHL1  H22A16307   4.892   1.333   5.353  2.1373  1.8600 -1.4940
  136CHL1  H22B16308   4.903   1.152   5.358  2.2217 -1.4610 -0.7063
  136CHL1   C2316309   5.039   1.253   5.495 -0.1407  0.5206  0.1917
  136CHL1  H23A16310   5.102   1.162   5.505  1.9077  1.6213 -1.7740
  136CHL1  H23B16311   5.108   1.341   5.497  0.9914 -0.3298  2.0303
  136CHL1   C2416312   4.943   1.263   5.620 -1.1082  0.2648  0.5277
  136CHL1  H24A16313   4.891   1.362   5.617 -0.7362  0.4395 -0.7199
  136CHL1  H24B16314   4.858   1.191   5.624 -1.0025  0.0653 -0.4738
  136CHL1   C2516315   5.029   1.264   5.742  0.7848 -0.5377  0.8741
  136CHL1   H2516316   5.137   1.268   5.714  0.5032  0.7903 -0.1437
  136CHL1   C2616317   4.994   1.381   5.839 -0.4412  0.3019  1.0808
  136CHL1  H26A16318   5.008   1.472   5.778  1.3357 -0.9871 -0.5458
  136CHL1  H26B16319   4.894   1.362   5.883 -1.1864 -0.7090 -0.9476
  136CHL1  H26C16320   5.070   1.387   5.920  1.3009 -4.0603  0.0457
  136CHL1   C2716321   5.008   1.127   5.812 -0.0652  0.5451 -0.7086
  136CHL1  H27A16322   5.055   1.128   5.912  0.9761 -1.2653 -1.1351
  136CHL1  H27B16323   4.902   1.104   5.837  0.3595 -0.2534  0.4139
  136CHL1  H27C16324   5.069   1.047   5.765  1.2919  0.4626  1.1263
  137CHL1    C316325   5.978   2.226   4.194 -0.7772  0.4307  1.0910
  137CHL1    H316326   6.045   2.140   4.214  0.8157  1.4058  0.1624
  137CHL1    O316327   5.974   2.252   4.055  0.0099  0.1953 -0.0423
  137CHL1   H3'16328   5.901   2.312   4.040 -0.7296 -0.8877 -0.9006
  137CHL1    C416329   5.836   2.210   4.241 -0.2146  0.9554  0.3458
  137CHL1   H4A16330   5.788   2.308   4.220 -1.3004  0.0076 -1.9611
  137CHL1   H4B16331   5.783   2.140   4.173  0.4488  0.4385  0.3525
  137CHL1    C516332   5.825   2.180   4.390  0.6032  0.2285  0.7154
  137CHL1    C616333   5.776   2.058   4.423 -0.0574 -0.1875 -0.3614
  137CHL1    H616334   5.743   1.991   4.342  1.5049 -0.8989 -0.4395
  137CHL1    C716335   5.763   2.022   4.570 -0.1344 -0.3337  0.3096
  137CHL1   H7A16336   5.658   1.998   4.599 -0.3583 -1.0969 -1.0533
  137CHL1   H7B16337   5.837   1.943   4.595  2.2872  1.3794 -1.0136
  137CHL1    C816338   5.794   2.142   4.673 -0.3425  0.6357 -0.0119
  137CHL1    H816339   5.703   2.206   4.675 -2.5950 -2.3245  1.5483
  137CHL1   C1416340   5.826   2.086   4.812  0.6432 -0.1412 -0.0993
  137CHL1   H1416341   5.921   2.030   4.801  0.4142 -0.3317 -1.1544
  137CHL1   C1516342   5.719   1.987   4.867 -0.0028 -0.8112 -0.2705
  137CHL1  H15A16343   5.617   2.027   4.851  0.0208  0.2735  1.9730
  137CHL1  H15B16344   5.732   1.885   4.823  2.2420 -0.6759 -0.0127
  137CHL1   C1616345   5.747   1.990   5.018  0.0766  0.2782 -0.2766
  137CHL1  H16A16346   5.661   2.034   5.073  0.8192 -0.4972  1.5931
  137CHL1  H16B16347   5.765   1.886   5.052  1.4699 -0.2846 -2.5671
  137CHL1   C1716348   5.855   2.091   5.045 -0.4240 -0.2084 -0.3804
  137CHL1   H1716349   5.948   2.031   5.033 -0.1724 -0.5071  2.3601
  137CHL1   C1316350   5.853   2.188   4.922 -0.1938  0.5020  0.1460
  137CHL1   C1816351   5.726   2.279   4.930  0.5463 -0.0330 -0.1825
  137CHL1  H18A16352   5.740   2.363   5.002  0.1567 -0.3303  0.2449
  137CHL1  H18B16353   5.713   2.342   4.839 -1.1401  2.2369  1.5039
  137CHL1  H18C16354   5.638   2.218   4.958  1.3257 -0.0959  2.4213
  137CHL1   C1216355   5.972   2.267   4.871 -0.0950 -0.3814  0.6489
  137CHL1  H12A16356   5.997   2.347   4.943  2.0763  0.8923 -1.3813
  137CHL1  H12B16357   6.061   2.202   4.861  2.5035  3.0926 -1.1658
  137CHL1   C1116358   5.958   2.326   4.728 -0.1186 -0.3448 -0.2107
  137CHL1  H11A16359   5.888   2.413   4.723  0.6573  0.2195 -1.8982
  137CHL1  H11B16360   6.055   2.367   4.694 -1.3753  1.5548 -1.7652
  137CHL1    C916361   5.914   2.225   4.625 -0.6031  0.0993 -0.0219
  137CHL1    H916362   5.991   2.145   4.617 -2.0180 -1.2956 -0.2024
  137CHL1   C1016363   5.894   2.286   4.480 -0.3713  1.0421  0.1279
  137CHL1   C1916364   5.794   2.401   4.497 -0.0163 -0.0262 -0.0145
  137CHL1  H19A16365   5.841   2.498   4.524  0.1358  0.7610 -2.7639
  137CHL1  H19B16366   5.748   2.433   4.401  2.2579  2.8448 -0.3076
  137CHL1  H19C16367   5.704   2.378   4.558 -0.3184 -1.2329 -0.8808
  137CHL1    C116368   6.034   2.336   4.421 -0.6770  1.3037 -0.1950
  137CHL1   H1A16369   6.062   2.436   4.461  0.9514  1.3970 -1.4455
  137CHL1   H1B16370   6.109   2.262   4.456 -1.4313  0.5112 -0.2336
  137CHL1    C216371   6.048   2.348   4.263  0.0157  0.6308 -0.3056
  137CHL1   H2A16372   6.154   2.357   4.233  0.3484  0.3199  0.7190
  137CHL1   H2B16373   5.994   2.443   4.243  0.2546  1.1027  1.1761
  137CHL1   C2016374   5.853   2.157   5.185 -0.1726  0.3042  0.2142
  137CHL1   H2016375   5.759   2.215   5.190 -0.4690  0.0040 -1.5363
  137CHL1   C2116376   5.975   2.246   5.223 -0.9353 -0.3235 -0.4563
  137CHL1  H21A16377   5.965   2.273   5.330  1.3310 -0.5998 -0.1234
  137CHL1  H21B16378   5.972   2.341   5.165  0.7407  0.5900  0.8774
  137CHL1  H21C16379   6.077   2.206   5.201 -0.1354  0.8533  0.9560
  137CHL1   C2216380   5.844   2.053   5.294  0.1320 -0.1882  0.1486
  137CHL1  H22A16381   5.758   1.987   5.266  0.0882 -0.0006 -0.1653
  137CHL1  H22B16382   5.938   1.994   5.290  0.0339 -0.3756  0.5858
  137CHL1   C2316383   5.823   2.093   5.438 -0.3295 -0.1485 -0.8177
  137CHL1  H23A16384   5.915   2.117   5.495 -2.7460  1.5746  2.7549
  137CHL1  H23B16385   5.756   2.181   5.451 -0.6363 -0.3861 -0.7912
  137CHL1   C2416386   5.758   1.970   5.509  0.0363 -0.2491  0.1878
  137CHL1  H24A16387   5.656   1.981   5.466  0.8346  0.3583 -1.6663
  137CHL1  H24B16388   5.802   1.874   5.477 -2.9549 -1.3436 -1.0041
  137CHL1   C2516389   5.746   1.964   5.666 -0.0647  0.2644  0.3050
  137CHL1   H2516390   5.688   2.047   5.713 -1.2251 -0.9101  1.0140
  137CHL1   C2616391   5.687   1.827   5.698  0.0720 -0.1269 -0.3972
  137CHL1  H26A16392   5.750   1.744   5.656  0.5783  0.9077 -1.7725
  137CHL1  H26B16393   5.678   1.823   5.808  1.4517 -0.7220 -0.2823
  137CHL1  H26C16394   5.584   1.813   5.660  0.4395  1.5988 -2.1999
  137CHL1   C2716395   5.871   1.983   5.742  0.3346 -0.4697  0.2391
  137CHL1  H27A16396   5.849   1.975   5.851  2.3287  0.1401  0.7312
  137CHL1  H27B16397   5.956   1.912   5.731 -2.4313 -4.6633  3.0001
  137CHL1  H27C16398   5.901   2.089   5.726  0.0947 -0.4749 -0.2572
  138CHL1    C316399   6.042   1.833   4.248 -0.2041 -0.1715  0.9215
  138CHL1    H316400   5.973   1.910   4.288 -1.9025 -1.5773  0.7916
  138CHL1    O316401   6.054   1.853   4.110 -0.5096  0.5822 -0.0582
  138CHL1   H3'16402   6.109   1.781   4.081 -0.6581  0.1964  0.5877
  138CHL1    C416403   6.176   1.844   4.318  1.2291 -0.4697  0.0039
  138CHL1   H4A16404   6.236   1.766   4.268 -1.9034 -2.1757 -1.3786
  138CHL1   H4B16405   6.204   1.949   4.293  1.2782 -0.7819 -1.2771
  138CHL1    C516406   6.165   1.816   4.469  0.2907  0.2144  0.2432
  138CHL1    C616407   6.205   1.910   4.554  0.1009  0.4787 -0.2205
  138CHL1    H616408   6.256   1.997   4.511  1.7510  0.3508  1.3744
  138CHL1    C716409   6.193   1.892   4.706 -0.4634  0.3163 -0.0622
  138CHL1   H7A16410   6.289   1.916   4.756 -1.1929  0.1680  1.4666
  138CHL1   H7B16411   6.113   1.967   4.726 -2.9022 -1.9404 -0.7201
  138CHL1    C816412   6.146   1.753   4.754 -0.0207  0.6250 -0.2424
  138CHL1    H816413   6.231   1.681   4.745 -0.4646  0.0551  0.0724
  138CHL1   C1416414   6.096   1.751   4.900  0.2817 -0.4788  0.3600
  138CHL1   H1416415   6.008   1.818   4.908  2.0116  2.0385 -0.2974
  138CHL1   C1516416   6.188   1.807   5.006  0.5798 -0.1063 -0.1164
  138CHL1  H15A16417   6.296   1.792   4.983  0.6535  1.5391 -1.0411
  138CHL1  H15B16418   6.188   1.918   5.014 -1.0605 -0.1713  1.1088
  138CHL1   C1616419   6.150   1.741   5.135 -0.0114 -0.0303  0.0239
  138CHL1  H16A16420   6.243   1.694   5.173  0.0866  0.6219  0.5978
  138CHL1  H16B16421   6.107   1.807   5.213  2.5535 -0.5861  2.0384
  138CHL1   C1716422   6.045   1.631   5.095 -0.4294 -0.6928 -0.0987
  138CHL1   H1716423   5.950   1.688   5.098 -0.0255  0.0022 -0.2413
  138CHL1   C1316424   6.059   1.607   4.940  0.9652  0.1150 -0.3644
  138CHL1   C1816425   6.176   1.512   4.927  0.0594 -0.1771  0.0552
  138CHL1  H18A16426   6.234   1.502   4.833  1.2661 -0.7063  0.8179
  138CHL1  H18B16427   6.242   1.545   5.011 -3.0801  1.1814  2.1748
  138CHL1  H18C16428   6.138   1.410   4.949 -0.0579  0.2206  1.8428
  138CHL1   C1216429   5.935   1.567   4.858  0.6232  0.3133 -0.0838
  138CHL1  H12A16430   5.903   1.465   4.890  0.7455  0.3056  0.0129
  138CHL1  H12B16431   5.850   1.635   4.877  0.8498  1.4143 -2.6470
  138CHL1   C1116432   5.966   1.564   4.712 -0.0338  0.2102 -0.5862
  138CHL1  H11A16433   6.029   1.476   4.683 -1.5777 -0.9491 -0.5417
  138CHL1  H11B16434   5.877   1.538   4.651 -0.5195 -0.9842  0.5851
  138CHL1    C916435   6.041   1.697   4.661 -0.5481  0.7682 -0.3868
  138CHL1    H916436   5.967   1.779   4.662  0.9237  2.1759  1.2634
  138CHL1   C1016437   6.088   1.691   4.505  0.0801  0.2125 -0.4812
  138CHL1   C1916438   6.187   1.575   4.473 -0.8683 -0.3717 -0.4021
  138CHL1  H19A16439   6.140   1.479   4.503  0.0671 -1.6115 -2.6163
  138CHL1  H19B16440   6.191   1.559   4.363  1.3356 -0.2973 -0.3769
  138CHL1  H19C16441   6.287   1.594   4.517 -1.2480  0.7477  0.0236
  138CHL1    C116442   5.966   1.676   4.420 -0.2552  0.3551  0.1464
  138CHL1   H1A16443   5.922   1.574   4.429  2.6271 -1.0816 -0.7690
  138CHL1   H1B16444   5.883   1.738   4.459  1.4884  2.6543  0.4205
  138CHL1    C216445   5.985   1.694   4.271 -0.0693 -0.7821 -0.1733
  138CHL1   H2A16446   5.890   1.687   4.214  0.2003 -0.4963 -0.6622
  138CHL1   H2B16447   6.047   1.612   4.230  1.7874 -0.0521  1.0062
  138CHL1   C2016448   6.023   1.522   5.204 -0.6313 -0.1233 -0.3986
  138CHL1   H2016449   6.107   1.453   5.182  0.1743  0.8979 -0.5998
  138CHL1   C2116450   5.890   1.451   5.178 -0.0568 -0.1339 -0.5141
  138CHL1  H21A16451   5.901   1.383   5.090 -0.3257 -2.3013  1.0621
  138CHL1  H21B16452   5.801   1.517   5.168 -1.4234 -1.4496  2.0784
  138CHL1  H21C16453   5.867   1.383   5.262 -0.3354 -0.5443 -0.9151
  138CHL1   C2216454   6.034   1.576   5.351 -0.0591  0.2558  0.0608
  138CHL1  H22A16455   6.135   1.617   5.374 -0.4038  0.4261  1.3854
  138CHL1  H22B16456   5.965   1.663   5.358 -0.8001 -0.2642 -0.6760
  138CHL1   C2316457   5.992   1.476   5.465  0.0056  0.4432 -0.6571
  138CHL1  H23A16458   5.882   1.491   5.470  0.3120  2.6599  1.3100
  138CHL1  H23B16459   6.013   1.370   5.440 -2.3594  0.0138 -1.0479
  138CHL1   C2416460   6.058   1.512   5.601 -0.1273  0.0187 -0.1320
  138CHL1  H24A16461   6.165   1.485   5.596 -0.9461 -3.6965 -0.9563
  138CHL1  H24B16462   6.038   1.618   5.626  0.4623  0.3929 -1.1814
  138CHL1   C2516463   5.999   1.429   5.719  0.7501 -0.3501  0.3975
  138CHL1   H2516464   6.012   1.322   5.693 -1.9716 -0.9559  1.1855
  138CHL1   C2616465   6.088   1.444   5.840  0.1008  0.1725  0.0054
  138CHL1  H26A16466   6.188   1.402   5.818  0.5815  2.3621 -2.5666
  138CHL1  H26B16467   6.107   1.548   5.876  2.5337  0.1715 -1.0595
  138CHL1  H26C16468   6.055   1.377   5.922  2.2225 -0.5639  0.3364
  138CHL1   C2716469   5.847   1.459   5.743 -0.0103 -0.0478  0.0535
  138CHL1  H27A16470   5.795   1.434   5.648 -3.2677  2.0590  1.1427
  138CHL1  H27B16471   5.824   1.408   5.839  1.3369  1.0330  1.0074
  138CHL1  H27C16472   5.825   1.568   5.753  1.9146  0.1885  3.4157
  139CHL1    C316473   1.525   6.639   3.860 -0.1089  0.0443 -0.2026
  139CHL1    H316474   1.584   6.732   3.844  0.1323 -0.3953 -2.1662
  139CHL1    O316475   1.526   6.559   3.744  0.1317  0.5483  0.0111
  139CHL1   H3'16476   1.463   6.488   3.756  2.0694 -1.0769  1.3685
  139CHL1    C416477   1.583   6.550   3.972  0.1767 -0.4670  0.8177
  139CHL1   H4A16478   1.531   6.452   3.962 -1.2841  0.3753 -0.2805
  139CHL1   H4B16479   1.691   6.535   3.950  0.0951 -0.5930  0.5071
  139CHL1    C516480   1.559   6.603   4.106  0.1968 -0.7941  0.5480
  139CHL1    C616481   1.658   6.612   4.194 -0.1422 -0.5369 -0.1217
  139CHL1    H616482   1.762   6.579   4.176 -0.0759 -0.4511  0.0973
  139CHL1    C716483   1.635   6.642   4.338  0.1295 -0.5141  0.0379
  139CHL1   H7A16484   1.688   6.576   4.410  1.8547  2.2040  1.4619
  139CHL1   H7B16485   1.678   6.743   4.358  1.4002 -0.7807 -1.2455
  139CHL1    C816486   1.484   6.649   4.383  0.1008  0.3516  1.0906
  139CHL1    H816487   1.461   6.541   4.396 -0.0121  0.5554  2.8556
  139CHL1   C1416488   1.453   6.712   4.521  0.1835 -0.0689  0.7955
  139CHL1   H1416489   1.482   6.818   4.503 -0.5263  0.3651  2.0639
  139CHL1   C1516490   1.543   6.664   4.640 -0.2163  0.7198  1.0077
  139CHL1  H15A16491   1.549   6.554   4.635 -0.7250  0.7359 -0.5216
  139CHL1  H15B16492   1.643   6.709   4.621 -0.4409 -0.3815 -4.2483
  139CHL1   C1616493   1.471   6.730   4.763 -0.7650  0.3547  0.1904
  139CHL1  H16A16494   1.448   6.644   4.829  1.6612  0.3494  1.1343
  139CHL1  H16B16495   1.549   6.793   4.811 -0.1789  0.6371 -1.0879
  139CHL1   C1716496   1.337   6.783   4.715  0.5022  0.3016  0.5040
  139CHL1   H1716497   1.364   6.889   4.692 -0.9630  0.5832 -0.0216
  139CHL1   C1316498   1.313   6.714   4.577 -0.1533  0.2821 -0.3474
  139CHL1   C1816499   1.266   6.562   4.600  0.3238 -0.1119 -0.0074
  139CHL1  H18A16500   1.323   6.513   4.681  0.2763 -1.0385 -0.5185
  139CHL1  H18B16501   1.157   6.545   4.618  0.0934 -0.3544 -1.4615
  139CHL1  H18C16502   1.290   6.515   4.502 -0.1567  1.4622 -0.9216
  139CHL1   C1216503   1.236   6.783   4.470 -0.2747 -0.3562 -0.0220
  139CHL1  H12A16504   1.131   6.797   4.503 -0.0865  2.5022 -0.4380
  139CHL1  H12B16505   1.263   6.890   4.464 -1.7483 -0.0372 -2.1268
  139CHL1   C1116506   1.241   6.717   4.333 -0.0313 -0.5107  0.0270
  139CHL1  H11A16507   1.189   6.619   4.335  1.3530 -1.3439 -1.9107
  139CHL1  H11B16508   1.175   6.773   4.263 -1.6926 -1.5130  0.7197
  139CHL1    C916509   1.389   6.702   4.274 -0.7313 -0.4313  0.5228
  139CHL1    H916510   1.425   6.805   4.257 -0.5504 -0.7585 -1.3020
  139CHL1   C1016511   1.409   6.639   4.132 -0.3818 -0.7045 -0.7409
  139CHL1   C1916512   1.325   6.501   4.145 -0.5684 -0.0007 -0.8678
  139CHL1  H19A16513   1.219   6.531   4.137 -0.3312  0.5268 -2.2805
  139CHL1  H19B16514   1.348   6.429   4.063 -0.5017  0.1785 -1.0069
  139CHL1  H19C16515   1.348   6.436   4.232  0.3596  0.4525 -0.7662
  139CHL1    C116516   1.352   6.730   4.018  0.0744 -0.0242 -0.1246
  139CHL1   H1A16517   1.243   6.756   4.020  0.3384  1.2851  2.7749
  139CHL1   H1B16518   1.407   6.825   4.036  0.8240 -0.4973  0.0824
  139CHL1    C216519   1.379   6.672   3.878  1.1564  0.3150 -0.2658
  139CHL1   H2A16520   1.347   6.750   3.806  1.8649 -0.1600 -1.1201
  139CHL1   H2B16521   1.326   6.575   3.868  0.1304  0.7060  1.0313
  139CHL1   C2016522   1.229   6.772   4.823  0.2369  1.1886  0.3407
  139CHL1   H2016523   1.213   6.668   4.860  0.9806  0.6697 -0.7574
  139CHL1   C2116524   1.092   6.817   4.773 -0.5031 -0.2421  0.5492
  139CHL1  H21A16525   1.013   6.805   4.851 -1.7226 -0.6513 -0.6967
  139CHL1  H21B16526   1.068   6.746   4.690  1.8399  0.0016 -0.4006
  139CHL1  H21C16527   1.095   6.920   4.731 -2.5582 -0.4018 -0.1342
  139CHL1   C2216528   1.258   6.861   4.944  0.3494  0.1374 -0.0323
  139CHL1  H22A16529   1.354   6.825   4.986  0.1987 -0.2674 -0.0224
  139CHL1  H22B16530   1.272   6.966   4.913  0.3951  0.6119  1.5236
  139CHL1   C2316531   1.159   6.863   5.060  0.9168  0.4598 -0.3668
  139CHL1  H23A16532   1.057   6.900   5.037 -0.6633 -2.4219  1.5122
  139CHL1  H23B16533   1.142   6.759   5.093 -1.5597  0.7260 -0.6427
  139CHL1   C2416534   1.218   6.934   5.187  0.6222 -0.2730 -0.4433
  139CHL1  H24A16535   1.321   6.894   5.201  0.6212 -0.1808 -0.1617
  139CHL1  H24B16536   1.219   7.041   5.155 -3.4298 -0.2250 -0.8946
  139CHL1   C2516537   1.133   6.916   5.312 -0.7722  0.3505 -0.6058
  139CHL1   H2516538   1.147   6.809   5.338  1.8704  0.7178 -0.2518
  139CHL1   C2616539   1.181   6.996   5.439 -1.0447 -0.1997  0.1579
  139CHL1  H26A16540   1.185   7.102   5.407  0.4611 -0.7135 -1.4973
  139CHL1  H26B16541   1.118   6.978   5.529  0.0573  0.4663  1.0925
  139CHL1  H26C16542   1.282   6.974   5.479  0.3362  1.4130 -2.2206
  139CHL1   C2716543   0.983   6.935   5.301  0.4452  0.5859 -0.3102
  139CHL1  H27A16544   0.929   6.895   5.389  0.3814  0.8581 -0.2247
  139CHL1  H27B16545   0.952   7.042   5.292  1.7742  1.1422  1.3262
  139CHL1  H27C16546   0.941   6.875   5.218  0.1847  0.4257 -0.0654
  140CHL1    C316547   0.396   0.803   4.029 -0.3213  0.7262  0.5556
  140CHL1    H316548   0.333   0.721   4.069  0.1725  0.4220  0.7261
  140CHL1    O316549   0.433   0.786   3.895 -0.0548 -0.6927 -0.0932
  140CHL1   H3'16550   0.470   0.698   3.905  0.1590 -0.6398 -0.4251
  140CHL1    C416551   0.322   0.933   4.026  0.5811 -0.0616 -0.4719
  140CHL1   H4A16552   0.377   1.013   3.971 -1.9787  2.0060 -0.2084
  140CHL1   H4B16553   0.236   0.912   3.959  1.9114 -3.7185 -1.2601
  140CHL1    C516554   0.285   0.982   4.164 -0.2029  0.3843  0.1402
  140CHL1    C616555   0.158   0.993   4.196 -0.4842  0.3721  0.1042
  140CHL1    H616556   0.080   0.988   4.120 -2.2540  1.2583  1.7718
  140CHL1    C716557   0.112   1.046   4.332 -0.5938  0.0853  0.0690
  140CHL1   H7A16558   0.059   1.142   4.313  0.9404  1.1280  0.8379
  140CHL1   H7B16559   0.050   0.968   4.381 -1.3545  1.4168  1.3146
  140CHL1    C816560   0.227   1.074   4.429 -0.3694  0.0371 -0.1033
  140CHL1    H816561   0.257   1.179   4.410  2.2195  0.2227  3.7602
  140CHL1   C1416562   0.179   1.070   4.575  0.5659 -0.3439  0.1264
  140CHL1   H1416563   0.159   0.964   4.602  0.3810 -0.0495  1.1850
  140CHL1   C1516564   0.048   1.142   4.595 -0.0979 -0.3383 -0.7867
  140CHL1  H15A16565   0.037   1.232   4.531 -1.3428 -0.3067 -0.5483
  140CHL1  H15B16566  -0.030   1.064   4.578  0.6223 -0.5488 -3.5503
  140CHL1   C1616567   0.059   1.177   4.751  0.2539 -0.4911 -0.2626
  140CHL1  H16A16568   0.071   1.287   4.759 -1.9599 -0.2380  0.0961
  140CHL1  H16B16569  -0.032   1.141   4.802  0.1569  1.4333  1.0329
  140CHL1   C1716570   0.193   1.111   4.803  0.2000 -0.4771 -0.2121
  140CHL1   H1716571   0.168   1.003   4.812  3.1773 -1.2115  0.1459
  140CHL1   C1316572   0.280   1.116   4.675  0.0478  0.9275 -0.5573
  140CHL1   C1816573   0.324   1.259   4.655 -0.4497 -0.5224 -0.1511
  140CHL1  H18A16574   0.240   1.327   4.628  0.3292 -0.0837 -1.6117
  140CHL1  H18B16575   0.386   1.312   4.731 -0.5645  0.2851 -0.5995
  140CHL1  H18C16576   0.401   1.265   4.575  1.3135  1.3023  1.5646
  140CHL1   C1216577   0.400   1.021   4.667  0.0969  0.0387 -0.5834
  140CHL1  H12A16578   0.490   1.060   4.718  0.6462  0.5760 -1.9064
  140CHL1  H12B16579   0.373   0.924   4.714  2.4457  0.1545  1.1847
  140CHL1   C1116580   0.452   1.007   4.526  0.6801 -0.6040  0.2161
  140CHL1  H11A16581   0.514   1.096   4.503  1.3558 -1.5514 -1.8326
  140CHL1  H11B16582   0.526   0.925   4.538  0.5824 -0.4135  2.7179
  140CHL1    C916583   0.350   0.984   4.415  0.0576 -0.0671  0.1525
  140CHL1    H916584   0.303   0.885   4.430 -0.4162  0.0242 -0.6787
  140CHL1   C1016585   0.404   0.983   4.270 -0.5589  0.6665  0.1961
  140CHL1   C1916586   0.494   1.104   4.249 -0.6218  0.5625  0.0568
  140CHL1  H19A16587   0.591   1.087   4.301 -0.0153  2.6206 -0.3090
  140CHL1  H19B16588   0.517   1.110   4.140 -1.6308  0.3692 -0.1778
  140CHL1  H19C16589   0.460   1.203   4.287  0.8598  1.2807 -0.3710
  140CHL1    C116590   0.488   0.853   4.255  0.5874 -0.5781 -0.4758
  140CHL1   H1A16591   0.577   0.862   4.321 -1.8871  0.7795  2.9751
  140CHL1   H1B16592   0.420   0.770   4.286  0.1688 -0.2465 -0.4963
  140CHL1    C216593   0.522   0.813   4.114  0.3853  0.9381 -0.7591
  140CHL1   H2A16594   0.567   0.711   4.113 -0.0928  0.6831  0.8946
  140CHL1   H2B16595   0.587   0.881   4.055  0.1484  2.4737  0.6902
  140CHL1   C2016596   0.241   1.177   4.938 -0.0462  0.2012 -0.1041
  140CHL1   H2016597   0.264   1.282   4.911  0.4082 -0.4196 -2.3654
  140CHL1   C2116598   0.370   1.103   4.985 -0.5545  0.6015  1.1059
  140CHL1  H21A16599   0.343   0.996   4.998 -1.4196  0.9657  2.7200
  140CHL1  H21B16600   0.417   1.140   5.079  0.4027  0.1076  0.8333
  140CHL1  H21C16601   0.448   1.117   4.908 -1.5840 -1.1231 -0.3204
  140CHL1   C2216602   0.128   1.165   5.041 -0.4533 -0.0614 -0.3798
  140CHL1  H22A16603   0.034   1.206   4.998 -0.0956 -0.1095 -1.2232
  140CHL1  H22B16604   0.121   1.056   5.063  0.9646  0.3781  2.7435
  140CHL1   C2316605   0.157   1.231   5.173  0.4627  0.2579  0.3424
  140CHL1  H23A16606   0.254   1.194   5.212  0.2315 -2.4861 -1.4438
  140CHL1  H23B16607   0.160   1.340   5.153 -1.2225  0.4338  0.8554
  140CHL1   C2416608   0.048   1.196   5.280  0.2521  0.1393 -0.3392
  140CHL1  H24A16609  -0.056   1.223   5.252 -0.1287 -0.8068  0.0993
  140CHL1  H24B16610   0.061   1.086   5.280 -1.3207 -0.2081  3.6173
  140CHL1   C2516611   0.074   1.232   5.428 -1.1713  0.4273 -0.0900
  140CHL1   H2516612   0.167   1.174   5.446  0.2602  2.8410  0.8443
  140CHL1   C2616613  -0.027   1.187   5.530  0.1591 -0.1057 -0.7587
  140CHL1  H26A16614  -0.044   1.078   5.531 -0.6176 -0.1251  3.5822
  140CHL1  H26B16615   0.011   1.221   5.629  1.0729  0.2199 -1.2065
  140CHL1  H26C16616  -0.126   1.234   5.515  0.5423  0.6019 -1.1476
  140CHL1   C2716617   0.101   1.380   5.451  0.1113 -0.0464  0.2355
  140CHL1  H27A16618   0.132   1.398   5.557 -0.9345  2.5680  0.1776
  140CHL1  H27B16619   0.186   1.421   5.393 -0.9990  0.2008 -1.2884
  140CHL1  H27C16620   0.012   1.435   5.413  0.7053  1.5077  0.9937
  141DOPC     N16621   5.206   4.407   8.571  0.2205  0.1561  0.5672
  141DOPC   C1216622   5.270   4.541   8.551 -0.2563  0.4623 -0.1271
  141DOPC  H12A16623   5.375   4.532   8.578 -0.7832  1.6572  2.6065
  141DOPC  H12B16624   5.228   4.600   8.631  0.1087  2.3661 -1.2683
  141DOPC   C1316625   5.221   4.353   8.714 -0.3034  0.6699  0.4994
  141DOPC  H13A16626   5.157   4.399   8.788 -1.1871 -1.9482  1.4767
  141DOPC  H13B16627   5.191   4.250   8.724  0.4878  0.6511  3.7713
  141DOPC  H13C16628   5.324   4.357   8.744 -0.4089 -0.6548  1.0730
  141DOPC   C1416629   5.263   4.311   8.473  0.2849 -0.3454  0.0815
  141DOPC  H14A16630   5.367   4.289   8.488  0.0371 -2.3610 -0.7797
  141DOPC  H14B16631   5.198   4.225   8.469  1.2090 -1.0290 -0.4108
  141DOPC  H14C16632   5.269   4.359   8.376  1.6783  0.6843  0.6601
  141DOPC   C1516633   5.060   4.408   8.544  0.9028 -0.1530 -0.3080
  141DOPC  H15A16634   5.009   4.313   8.548  1.5663 -0.4971  0.2811
  141DOPC  H15B16635   5.046   4.458   8.449 -2.0491 -2.6638 -1.3585
  141DOPC  H15C16636   5.008   4.467   8.618  1.9905  1.1731 -0.5567
  141DOPC   C1116637   5.257   4.608   8.412 -0.0905 -0.5899 -0.2900
  141DOPC  H11A16638   5.147   4.614   8.394  0.0964  2.5916 -0.7901
  141DOPC  H11B16639   5.278   4.716   8.425 -3.0036  0.0036  0.2978
  141DOPC     P16640   5.479   4.578   8.268  0.0829 -0.1140  0.0237
  141DOPC   O1316641   5.548   4.449   8.248 -0.5591 -0.3291  0.3556
  141DOPC   O1416642   5.554   4.666   8.369  0.0663  0.3282 -0.7388
  141DOPC   O1216643   5.328   4.544   8.308 -0.0066 -0.2404 -0.3825
  141DOPC   O1116644   5.470   4.662   8.134 -0.2641 -0.1426  0.2238
  141DOPC    C116645   5.335   4.681   8.072  0.2729 -0.3642 -0.4671
  141DOPC    HA16646   5.275   4.757   8.126  0.9123  1.7814 -2.5384
  141DOPC    HB16647   5.274   4.590   8.085 -0.8225  0.3653 -0.3993
  141DOPC    C216648   5.343   4.738   7.923 -0.4709  0.4775  0.3148
  141DOPC    HS16649   5.380   4.842   7.925  1.1346 -0.0105  3.6730
  141DOPC   O2116650   5.212   4.722   7.871  0.1139 -0.0773 -0.7475
  141DOPC   C2116651   5.188   4.768   7.751  0.2741 -0.3061  0.3104
  141DOPC   O2216652   5.272   4.828   7.684 -0.0057  0.4803  0.0715
  141DOPC   C2216653   5.044   4.771   7.724 -0.0278  0.1562  0.2817
  141DOPC   H2R16654   4.993   4.803   7.817 -1.3803  1.2806 -0.8098
  141DOPC   H2S16655   5.001   4.672   7.695  1.3808  0.2542 -2.4655
  141DOPC    C316656   5.438   4.641   7.850 -0.4881  0.8388 -1.2982
  141DOPC    HX16657   5.379   4.548   7.837  0.6120 -0.1792  0.5604
  141DOPC    HY16658   5.518   4.603   7.916 -0.3163  0.6556 -1.6104
  141DOPC   O3116659   5.486   4.679   7.723 -0.7895  0.3104  0.2030
  141DOPC   C3116660   5.582   4.774   7.734 -0.1977  0.1049  0.1987
  141DOPC   O3216661   5.632   4.820   7.835 -0.0023  0.6473  0.6035
  141DOPC   C3216662   5.639   4.810   7.588  0.2261 -0.3172 -0.6852
  141DOPC   H2X16663   5.643   4.921   7.588  0.2215 -0.3149 -0.1277
  141DOPC   H2Y16664   5.746   4.778   7.585 -0.5149 -2.9904 -0.9461
  141DOPC   C2316665   5.007   4.866   7.610 -0.3403  0.3617 -0.3837
  141DOPC   H3R16666   5.043   4.827   7.513  0.0864  0.4368 -0.2599
  141DOPC   H3S16667   5.063   4.961   7.621  4.3931 -1.7412 -2.9940
  141DOPC   C2416668   4.853   4.886   7.600  0.0179 -0.1419 -0.0860
  141DOPC   H4R16669   4.807   4.912   7.697  0.0998 -1.1408  0.2346
  141DOPC   H4S16670   4.806   4.793   7.560 -0.2866 -0.2943  0.6230
  141DOPC   C2516671   4.817   4.998   7.496 -0.3349  0.4621  0.3311
  141DOPC   H5R16672   4.863   5.093   7.530 -2.4455  0.4975  3.4104
  141DOPC   H5S16673   4.707   5.015   7.491 -0.6826 -1.7470 -1.7781
  141DOPC   C2616674   4.861   4.970   7.352  1.2327 -0.2508 -0.8302
  141DOPC   H6R16675   4.841   4.864   7.325 -2.4520 -0.2390  1.1838
  141DOPC   H6S16676   4.971   4.979   7.350  1.3776 -0.8313  1.8075
  141DOPC   C2716677   4.789   5.069   7.251 -0.3440 -0.0607 -0.4754
  141DOPC   H7R16678   4.789   5.175   7.284 -0.1262 -0.1789 -0.0850
  141DOPC   H7S16679   4.684   5.035   7.256  0.3954 -2.3511  1.4171
  141DOPC   C2816680   4.835   5.052   7.106  0.1220 -0.2535  0.3743
  141DOPC   H8R16681   4.813   4.944   7.090  1.0530 -0.5109  0.7796
  141DOPC   H8S16682   4.945   5.064   7.097  0.1296 -0.2658  0.4529
  141DOPC   C2916683   4.771   5.150   7.010 -0.7702 -0.7862 -0.6050
  141DOPC   H9R16684   4.773   5.252   7.052 -0.8393 -1.1261  0.2444
  141DOPC  C21016685   4.719   5.122   6.895 -0.8287 -0.5974  0.0779
  141DOPC  H10R16686   4.672   5.203   6.838  0.5390  0.9388  1.0378
  141DOPC  C21116687   4.722   4.992   6.826  0.5383 -0.6086  0.0923
  141DOPC  H11R16688   4.662   4.916   6.879  0.8025 -0.5960  0.4114
  141DOPC  H11S16689   4.825   4.950   6.831  0.8115  0.1782  1.7815
  141DOPC  C21216690   4.681   5.011   6.678 -0.4758 -0.2855  0.6160
  141DOPC  H12R16691   4.731   5.098   6.631 -0.6224 -0.1333  0.7411
  141DOPC  H12S16692   4.572   5.031   6.674 -0.6430 -1.3373 -1.1869
  141DOPC  C21316693   4.703   4.879   6.608 -0.0779 -0.0959  0.2416
  141DOPC  H13R16694   4.810   4.849   6.617  0.5151  1.6288 -0.6339
  141DOPC  H13S16695   4.690   4.900   6.499 -2.4318  0.1020  0.5154
  141DOPC  C21416696   4.625   4.752   6.638  0.3963  0.0260 -0.3186
  141DOPC  H14R16697   4.522   4.750   6.598 -0.0609 -1.9626  0.8532
  141DOPC  H14S16698   4.620   4.742   6.748  1.2426 -1.0093 -0.3631
  141DOPC  C21516699   4.700   4.623   6.596 -0.1241 -0.6011 -0.1059
  141DOPC  H15R16700   4.773   4.600   6.676  1.1837 -1.7651 -1.5571
  141DOPC  H15S16701   4.752   4.635   6.499 -1.6121 -3.8701 -1.4757
  141DOPC  C21616702   4.603   4.506   6.575 -0.0773  0.5975  0.1153
  141DOPC  H16R16703   4.525   4.513   6.496  0.7894  0.1537 -0.8072
  141DOPC  H16S16704   4.545   4.497   6.669 -3.2285  1.1082 -1.6391
  141DOPC  C21716705   4.677   4.369   6.549 -0.8294 -0.0481 -0.3523
  141DOPC  H17R16706   4.733   4.336   6.639  1.0665  3.0467 -0.2643
  141DOPC  H17S16707   4.747   4.383   6.464  1.1959  0.9654  1.3755
  141DOPC  C21816708   4.582   4.259   6.515  0.5622  0.1107 -0.0188
  141DOPC  H18R16709   4.516   4.232   6.600 -0.3203  2.3278  0.0801
  141DOPC  H18S16710   4.623   4.169   6.465 -1.9084 -0.5604 -0.9545
  141DOPC  H18T16711   4.517   4.303   6.437 -0.4728 -0.7897  0.3235
  141DOPC   C3316712   5.550   4.781   7.466 -0.7534  0.7557 -0.2545
  141DOPC   H3X16713   5.463   4.849   7.460 -0.9296  0.4125 -2.8010
  141DOPC   H3Y16714   5.529   4.673   7.483  1.1990 -0.0062 -2.2548
  141DOPC   C3416715   5.625   4.795   7.331 -0.0496  0.3434 -0.2386
  141DOPC   H4X16716   5.569   4.737   7.255 -1.4542  0.0550  0.9715
  141DOPC   H4Y16717   5.728   4.754   7.343  0.4181  2.0103  2.1447
  141DOPC   C3516718   5.626   4.936   7.279 -0.3069  0.7457 -0.3875
  141DOPC   H5X16719   5.692   4.999   7.342 -0.8942  0.6348  0.3580
  141DOPC   H5Y16720   5.528   4.986   7.267 -0.0055  1.2984 -0.5835
  141DOPC   C3616721   5.689   4.934   7.137  0.2406 -0.1086  0.0176
  141DOPC   H6X16722   5.723   5.035   7.108  1.2480 -0.9443 -1.9310
  141DOPC   H6Y16723   5.783   4.875   7.142  1.1331  1.1647 -1.0169
  141DOPC   C3716724   5.602   4.894   7.025 -0.5030  0.2670 -1.1939
  141DOPC   H7X16725   5.552   4.797   7.046 -0.3858  0.5841  0.7230
  141DOPC   H7Y16726   5.519   4.967   7.019 -0.8107 -0.0959 -1.3606
  141DOPC   C3816727   5.668   4.879   6.890  0.4240 -1.1005  0.3526
  141DOPC   H8X16728   5.741   4.962   6.875  1.4765 -2.3283 -1.7763
  141DOPC   H8Y16729   5.588   4.887   6.813  1.8737 -0.6358 -1.1510
  141DOPC   C3916730   5.737   4.748   6.860 -0.2967  0.0365  0.7705
  141DOPC   H9X16731   5.769   4.696   6.951  2.5143  0.7281  0.2670
  141DOPC  C31016732   5.760   4.693   6.738 -0.5271  0.8605  0.2618
  141DOPC  H10X16733   5.843   4.621   6.728  1.2017  2.7604  0.1569
  141DOPC  C31116734   5.741   4.772   6.613  0.4259  0.0332 -0.3642
  141DOPC  H11X16735   5.664   4.851   6.625  1.1003  0.6579 -0.0234
  141DOPC  H11Y16736   5.694   4.702   6.541 -0.2769 -0.7379  0.8085
  141DOPC  C31216737   5.870   4.829   6.555  0.0686 -0.0332 -0.7369
  141DOPC  H12X16738   5.947   4.749   6.559  0.7974  0.6818 -0.3847
  141DOPC  H12Y16739   5.916   4.902   6.624  1.4149  0.2730 -1.9136
  141DOPC  C31316740   5.857   4.888   6.412  0.0765 -0.2023  0.7908
  141DOPC  H13X16741   5.953   4.938   6.388 -1.7582  2.5507 -1.4824
  141DOPC  H13Y16742   5.834   4.814   6.332  1.4231 -1.3986  1.4798
  141DOPC  C31416743   5.754   5.006   6.405 -0.3785 -0.5776 -0.0861
  141DOPC  H14X16744   5.655   4.956   6.404  0.5750 -2.5659 -0.5031
  141DOPC  H14Y16745   5.756   5.084   6.484 -0.6613  0.0789 -0.7106
  141DOPC  C31516746   5.770   5.082   6.274 -0.2212  0.7475  0.1912
  141DOPC  H15X16747   5.745   5.022   6.184  0.1782  0.2444  0.4099
  141DOPC  H15Y16748   5.875   5.114   6.253 -0.7825  2.4171 -0.2624
  141DOPC  C31616749   5.664   5.197   6.265 -0.0764 -0.2780 -0.5815
  141DOPC  H16X16750   5.668   5.268   6.349 -1.0476  0.9657 -1.5480
  141DOPC  H16Y16751   5.696   5.259   6.179 -0.0514  0.2568 -0.1879
  141DOPC  C31716752   5.520   5.143   6.240  0.4388  0.3633 -0.8636
  141DOPC  H17X16753   5.522   5.076   6.151  1.0488 -2.0266  0.8493
  141DOPC  H17Y16754   5.495   5.080   6.328  0.5101  2.7446  0.9486
  141DOPC  C31816755   5.417   5.256   6.236 -0.2327 -0.1275 -0.9215
  141DOPC  H18X16756   5.314   5.217   6.248 -0.5377  1.1456  1.3000
  141DOPC  H18Y16757   5.429   5.322   6.325 -1.5486 -2.5025  1.1436
  141DOPC  H18Z16758   5.420   5.313   6.141 -0.4777  0.3776 -0.6355
  142DOPC     N16759   5.989   4.532   8.009  0.2742  0.3602  0.0372
  142DOPC   C1216760   6.001   4.384   8.034 -0.1820  0.5042 -0.2216
  142DOPC  H12A16761   6.040   4.333   7.947  0.5497 -0.5448  0.6866
  142DOPC  H12B16762   5.905   4.344   8.063 -0.0475  0.5424  0.2813
  142DOPC   C1316763   5.868   4.567   7.918  0.2633  0.7587 -0.1606
  142DOPC  H13A16764   5.777   4.521   7.953 -0.1943  1.1638 -0.7925
  142DOPC  H13B16765   5.861   4.671   7.889  0.8419  0.6306 -0.7603
  142DOPC  H13C16766   5.883   4.504   7.832  0.3051  1.2218 -0.4984
  142DOPC   C1416767   6.116   4.574   7.944 -0.4364 -0.0462 -0.1815
  142DOPC  H14A16768   6.134   4.522   7.852  0.3617  1.8701 -1.1599
  142DOPC  H14B16769   6.114   4.676   7.909 -2.8884 -0.3174 -0.9867
  142DOPC  H14C16770   6.199   4.541   8.005  0.1322  0.0573 -0.8894
  142DOPC   C1516771   5.970   4.608   8.134  0.4779  0.1429 -0.2004
  142DOPC  H15A16772   5.881   4.568   8.180 -0.9618  2.4267 -0.8331
  142DOPC  H15B16773   5.935   4.709   8.119 -1.8111 -0.1141  2.4783
  142DOPC  H15C16774   6.058   4.606   8.197  0.8330  3.2425 -0.4536
  142DOPC   C1116775   6.098   4.343   8.151 -0.4247  0.4080  0.2410
  142DOPC  H11A16776   6.065   4.373   8.253  0.8558  2.0040  0.2342
  142DOPC  H11B16777   6.084   4.233   8.155 -0.7859  0.4848  1.6197
  142DOPC     P16778   6.347   4.294   8.083  0.6301  0.2631 -0.2378
  142DOPC   O1316779   6.326   4.258   7.944 -0.0952 -0.4192  0.1706
  142DOPC   O1416780   6.342   4.184   8.183 -0.0362  0.5299 -0.0395
  142DOPC   O1216781   6.233   4.393   8.123  0.8669  0.6913 -0.2366
  142DOPC   O1116782   6.478   4.385   8.103 -0.1930  0.0171  0.0218
  142DOPC    C116783   6.513   4.511   8.041 -0.3883 -0.7693 -0.0122
  142DOPC    HA16784   6.570   4.575   8.112 -1.2064  0.1766 -0.1886
  142DOPC    HB16785   6.426   4.575   8.016  1.7095  1.8328 -1.0716
  142DOPC    C216786   6.597   4.491   7.909  0.7425 -0.3401 -0.3248
  142DOPC    HS16787   6.625   4.595   7.880 -2.4119  0.3633 -1.2399
  142DOPC   O2116788   6.518   4.431   7.811 -0.2247  0.3590 -0.6014
  142DOPC   C2116789   6.457   4.517   7.732 -0.3009  0.2114 -0.4504
  142DOPC   O2216790   6.470   4.641   7.735  0.3940  0.0873 -0.5237
  142DOPC   C2216791   6.379   4.438   7.627 -0.5909 -0.8215  0.4111
  142DOPC   H2R16792   6.278   4.483   7.622  0.0884  0.7579  0.4873
  142DOPC   H2S16793   6.373   4.331   7.658  0.9939 -0.5135  1.9503
  142DOPC    C316794   6.725   4.403   7.949  0.7522 -0.1640  0.9126
  142DOPC    HX16795   6.703   4.311   8.008  0.3042 -0.1639  0.7523
  142DOPC    HY16796   6.788   4.468   8.014  0.8189 -0.8763  1.5733
  142DOPC   O3116797   6.808   4.375   7.831  0.7371 -0.3063 -0.1175
  142DOPC   C3116798   6.775   4.255   7.777 -0.1534  0.1616  0.7311
  142DOPC   O3216799   6.685   4.183   7.813 -0.5090  0.0441 -0.7484
  142DOPC   C3216800   6.885   4.221   7.680  0.5873 -0.1437 -0.0939
  142DOPC   H2X16801   6.981   4.257   7.721  1.4722 -2.6784  0.2589
  142DOPC   H2Y16802   6.895   4.110   7.683  2.2967 -0.0372 -0.7064
  142DOPC   C2316803   6.449   4.440   7.486 -0.7893 -0.6632  0.4699
  142DOPC   H3R16804   6.549   4.402   7.515 -0.8690 -0.8801  0.4660
  142DOPC   H3S16805   6.450   4.546   7.453  0.0993 -0.7823  0.0923
  142DOPC   C2416806   6.384   4.350   7.384 -0.0918  0.5031  0.2470
  142DOPC   H4R16807   6.290   4.398   7.350 -1.1039 -2.3472 -1.2609
  142DOPC   H4S16808   6.345   4.255   7.426  0.1884 -0.0365 -0.6829
  142DOPC   C2516809   6.470   4.321   7.260  0.3308 -0.7943  0.2600
  142DOPC   H5R16810   6.448   4.217   7.228 -0.2356 -1.6431  3.1708
  142DOPC   H5S16811   6.574   4.323   7.299  0.2096 -1.3272  0.6075
  142DOPC   C2616812   6.443   4.419   7.139  0.3485 -0.4547  0.1658
  142DOPC   H6R16813   6.446   4.523   7.179 -1.3650  0.0893 -0.9959
  142DOPC   H6S16814   6.342   4.408   7.094  0.9998 -1.7013 -1.0400
  142DOPC   C2716815   6.547   4.414   7.030  0.5585 -0.2856  0.2459
  142DOPC   H7R16816   6.640   4.445   7.082  1.2951 -1.4234 -0.3487
  142DOPC   H7S16817   6.526   4.491   6.953 -0.9049 -1.0357 -0.1370
  142DOPC   C2816818   6.566   4.275   6.964 -0.0202 -0.5862  0.3160
  142DOPC   H8R16819   6.570   4.194   7.039  1.4079 -1.9465 -1.1494
  142DOPC   H8S16820   6.666   4.268   6.916 -0.2137  0.1922 -0.2191
  142DOPC   C2916821   6.459   4.246   6.866  0.1435 -0.5547 -0.1387
  142DOPC   H9R16822   6.370   4.200   6.910  0.0471 -1.0433 -0.8260
  142DOPC  C21016823   6.460   4.281   6.738  0.1578  0.1036 -0.1785
  142DOPC  H10R16824   6.389   4.235   6.668 -0.2453  0.4033  0.0285
  142DOPC  C21116825   6.572   4.347   6.672 -0.6702  0.3591 -0.1685
  142DOPC  H11R16826   6.640   4.399   6.743  0.9146  1.2111 -2.1878
  142DOPC  H11S16827   6.535   4.423   6.600 -2.2168 -0.0982  0.1003
  142DOPC  C21216828   6.660   4.253   6.583 -0.2122  0.1306  0.5243
  142DOPC  H12R16829   6.598   4.190   6.516 -0.6684  1.2900 -0.1888
  142DOPC  H12S16830   6.705   4.181   6.654  1.2106  0.3133 -0.1514
  142DOPC  C21316831   6.784   4.311   6.522 -0.1217  0.5100  0.6859
  142DOPC  H13R16832   6.839   4.365   6.602  1.9847  2.3917 -1.8740
  142DOPC  H13S16833   6.756   4.381   6.441 -0.3651 -2.2418 -1.8077
  142DOPC  C21416834   6.879   4.204   6.465  0.3024 -0.2630 -0.1047
  142DOPC  H14R16835   6.835   4.159   6.373  0.3972 -0.4672 -0.0508
  142DOPC  H14S16836   6.902   4.132   6.546 -2.5296 -1.9092 -0.6596
  142DOPC  C21516837   7.015   4.263   6.433 -0.5780 -0.4793  0.1112
  142DOPC  H15R16838   7.062   4.300   6.527 -0.3471  1.0663 -0.5792
  142DOPC  H15S16839   6.989   4.342   6.360 -0.8681 -1.8197 -1.2914
  142DOPC  C21616840   7.102   4.174   6.350  0.4724  0.0715 -0.1703
  142DOPC  H16R16841   7.048   4.158   6.255  1.4913  0.8782 -0.9019
  142DOPC  H16S16842   7.119   4.080   6.406  0.6936  0.4579  0.4224
  142DOPC  C21716843   7.241   4.230   6.332 -0.5803 -0.4035 -0.1452
  142DOPC  H17R16844   7.285   4.233   6.434 -1.3100 -1.0882  0.2066
  142DOPC  H17S16845   7.238   4.333   6.293  1.1385 -1.0740 -2.2325
  142DOPC  C21816846   7.331   4.137   6.245 -0.0278 -0.1911  0.5315
  142DOPC  H18R16847   7.326   4.032   6.282  1.3730 -0.9598 -1.2856
  142DOPC  H18S16848   7.441   4.156   6.247 -0.2074  1.0321 -0.4165
  142DOPC  H18T16849   7.311   4.142   6.136  2.8008  1.9026 -0.0138
  142DOPC   C3316850   6.849   4.272   7.547 -0.6160 -0.5151 -0.0161
  142DOPC   H3X16851   6.750   4.253   7.500  0.7032 -0.3505 -3.1485
  142DOPC   H3Y16852   6.928   4.235   7.478  0.4366  1.6696 -0.0680
  142DOPC   C3416853   6.871   4.429   7.540 -0.6175  0.2006  1.0074
  142DOPC   H4X16854   6.978   4.442   7.566 -0.1640 -0.0519 -0.6132
  142DOPC   H4Y16855   6.799   4.472   7.613 -0.4281  1.7490  0.3250
  142DOPC   C3516856   6.856   4.474   7.388 -0.7470  0.6616  0.4751
  142DOPC   H5X16857   6.781   4.407   7.341 -0.3674  0.5411  0.0461
  142DOPC   H5Y16858   6.951   4.461   7.332 -0.0421 -2.2014  2.1607
  142DOPC   C3616859   6.820   4.620   7.376 -0.1361 -0.6537  1.0673
  142DOPC   H6X16860   6.731   4.648   7.436 -0.4847  1.0258 -0.1347
  142DOPC   H6Y16861   6.905   4.668   7.429  0.1605 -0.8028  0.7325
  142DOPC   C3716862   6.805   4.675   7.226  0.3252  0.2570 -0.0683
  142DOPC   H7X16863   6.732   4.603   7.184  0.4949  0.1095 -0.1074
  142DOPC   H7Y16864   6.759   4.772   7.257 -0.1110 -0.8263  2.9974
  142DOPC   C3816865   6.935   4.695   7.141  0.5966  0.4047 -0.8284
  142DOPC   H8X16866   6.962   4.596   7.100 -1.1214 -0.5140  0.1029
  142DOPC   H8Y16867   7.015   4.723   7.212 -0.3999  0.5299  0.2924
  142DOPC   C3916868   6.931   4.804   7.030 -0.2370 -0.2445 -0.1972
  142DOPC   H9X16869   6.877   4.899   7.043  0.9764  0.5808 -1.0358
  142DOPC  C31016870   6.970   4.781   6.904 -0.0416  0.4099  0.1390
  142DOPC  H10X16871   6.971   4.857   6.824 -1.8394  0.4135  0.0759
  142DOPC  C31116872   7.033   4.658   6.856 -0.1635 -0.1914  0.1684
  142DOPC  H11X16873   7.086   4.595   6.932  0.2633 -0.7287 -0.5663
  142DOPC  H11Y16874   7.107   4.696   6.783 -0.5003  0.5267  0.1996
  142DOPC  C31216875   6.928   4.570   6.788 -0.2187 -0.4814 -0.0235
  142DOPC  H12X16876   6.853   4.544   6.866  0.2627 -0.3724  0.4853
  142DOPC  H12Y16877   6.972   4.471   6.761 -0.6549 -0.4509 -0.8596
  142DOPC  C31316878   6.857   4.637   6.671 -0.3630  0.0004 -0.0097
  142DOPC  H13X16879   6.795   4.561   6.619  1.5339 -0.3599 -1.8991
  142DOPC  H13Y16880   6.790   4.713   6.717 -0.3684 -0.2682  0.4350
  142DOPC  C31416881   6.946   4.699   6.561 -0.4521 -0.4632 -0.7561
  142DOPC  H14X16882   7.005   4.778   6.613  2.7687 -3.2168  0.1437
  142DOPC  H14Y16883   7.025   4.627   6.530  2.5460  0.8893  2.8811
  142DOPC  C31516884   6.868   4.765   6.447  0.6077  0.1273 -0.3002
  142DOPC  H15X16885   6.819   4.852   6.494  0.0690  0.4103 -1.3518
  142DOPC  H15Y16886   6.789   4.688   6.430  1.3322 -0.5235 -0.8263
  142DOPC  C31616887   6.957   4.811   6.336 -0.1009 -0.0377 -0.2797
  142DOPC  H16X16888   6.895   4.858   6.257  0.0866 -0.9748 -1.0034
  142DOPC  H16Y16889   7.021   4.892   6.377 -0.5928  0.5606 -0.6762
  142DOPC  C31716890   7.017   4.688   6.265  0.6374  1.2622  0.5848
  142DOPC  H17X16891   7.097   4.638   6.325  0.7415  1.0584  0.2732
  142DOPC  H17Y16892   6.933   4.616   6.257 -0.2369  2.2267  0.8201
  142DOPC  C31816893   7.070   4.703   6.117 -0.3286 -0.1167  0.3142
  142DOPC  H18X16894   6.997   4.756   6.051  2.3247  1.6290 -1.4248
  142DOPC  H18Y16895   7.162   4.765   6.117 -1.0160  1.0366 -1.9867
  142DOPC  H18Z16896   7.085   4.604   6.069 -4.3348 -0.5892 -0.2845
  143DOPC     N16897   3.292   3.955   9.068 -0.0495 -0.5248  0.2153
  143DOPC   C1216898   3.272   3.951   8.918 -0.1161 -1.0287  1.0185
  143DOPC  H12A16899   3.190   3.881   8.910 -1.4673  0.7051 -1.9415
  143DOPC  H12B16900   3.359   3.901   8.877 -0.2650  0.4297 -1.2621
  143DOPC   C1316901   3.302   3.815   9.122 -0.1655 -0.1876  0.4810
  143DOPC  H13A16902   3.237   3.753   9.061  1.1579  1.3135 -2.6938
  143DOPC  H13B16903   3.398   3.775   9.095 -0.8379 -0.0939 -2.3922
  143DOPC  H13C16904   3.286   3.810   9.228  1.4896  2.8634  0.9696
  143DOPC   C1416905   3.168   4.015   9.145 -0.9148  0.2459  0.4977
  143DOPC  H14A16906   3.146   4.108   9.095  1.1895  0.8687  0.6244
  143DOPC  H14B16907   3.081   3.951   9.138  0.2213 -1.2850 -0.2844
  143DOPC  H14C16908   3.205   4.043   9.242  1.0641  0.0063 -0.1522
  143DOPC   C1516909   3.412   4.033   9.109 -0.0438  0.5824 -0.5766
  143DOPC  H15A16910   3.390   4.138   9.097  1.8154  0.7732 -3.4653
  143DOPC  H15B16911   3.500   4.009   9.050 -0.3024  0.5551 -0.9523
  143DOPC  H15C16912   3.438   4.009   9.211 -1.1595  1.2154 -0.1306
  143DOPC   C1116913   3.222   4.078   8.845  0.1579 -0.6023  0.0952
  143DOPC  H11A16914   3.299   4.156   8.862  2.7025 -2.3020 -2.7064
  143DOPC  H11B16915   3.211   4.070   8.735 -0.2845 -0.7883  0.1481
  143DOPC     P16916   2.957   4.101   8.833  0.0754 -0.5836 -0.1407
  143DOPC   O1316917   2.855   4.197   8.889 -0.1819 -0.3306  0.5894
  143DOPC   O1416918   2.923   3.959   8.847  0.1313  0.8501 -0.6468
  143DOPC   O1216919   3.094   4.128   8.903 -0.2158 -0.4518  0.1943
  143DOPC   O1116920   2.987   4.131   8.678 -0.0275 -0.3860 -0.2932
  143DOPC    C116921   3.005   4.266   8.630  0.1628 -0.2618  0.4908
  143DOPC    HA16922   3.099   4.310   8.667  0.5086  0.3425 -1.0520
  143DOPC    HB16923   2.923   4.334   8.661 -0.5081 -0.5545 -0.5701
  143DOPC    C216924   3.019   4.261   8.474  0.8534  0.0627  0.1972
  143DOPC    HS16925   2.943   4.190   8.435  0.6225  1.3211 -1.7803
  143DOPC   O2116926   3.151   4.216   8.448 -0.2898 -0.1016 -0.2770
  143DOPC   C2116927   3.174   4.161   8.337 -0.2162 -0.5112  0.0932
  143DOPC   O2216928   3.095   4.127   8.252  0.3333 -0.4677 -0.2099
  143DOPC   C2216929   3.329   4.155   8.331  0.4958  0.2071 -0.4481
  143DOPC   H2R16930   3.355   4.060   8.382 -0.3970  0.5988  0.7802
  143DOPC   H2S16931   3.379   4.235   8.390  0.8806  0.5385 -1.2160
  143DOPC    C316932   2.990   4.405   8.407  0.5002 -0.2158  0.4681
  143DOPC    HX16933   3.067   4.472   8.452 -0.0005  1.1605 -0.6601
  143DOPC    HY16934   2.891   4.443   8.439  0.3288 -0.3856  0.1311
  143DOPC   O3116935   3.005   4.413   8.258 -0.2179  0.6297 -0.2001
  143DOPC   C3116936   2.901   4.363   8.195 -1.2793 -0.2770 -0.1335
  143DOPC   O3216937   2.800   4.328   8.243  0.4640 -0.0473  0.0569
  143DOPC   C3216938   2.928   4.365   8.043  0.8493 -1.2477  0.0616
  143DOPC   H2X16939   2.890   4.459   7.997  0.4474 -1.2073  0.4658
  143DOPC   H2Y16940   3.038   4.369   8.027  0.5665 -0.9877 -2.1661
  143DOPC   C2316941   3.384   4.149   8.190 -1.1373  0.4435 -0.2993
  143DOPC   H3R16942   3.316   4.085   8.129 -0.9704  1.2769 -1.3722
  143DOPC   H3S16943   3.489   4.112   8.196 -1.3539 -0.0591  0.7466
  143DOPC   C2416944   3.393   4.285   8.130  0.1547  0.2139 -0.1879
  143DOPC   H4R16945   3.490   4.330   8.161 -1.2380  2.2854  1.3835
  143DOPC   H4S16946   3.321   4.351   8.181 -1.0370  0.1205 -1.6894
  143DOPC   C2516947   3.364   4.291   7.978  0.2808 -0.6082 -0.3645
  143DOPC   H5R16948   3.293   4.371   7.948  1.4547  1.2191  1.4560
  143DOPC   H5S16949   3.320   4.193   7.950 -0.5017 -0.7227  1.1651
  143DOPC   C2616950   3.487   4.318   7.892  0.1407 -0.5759 -0.7247
  143DOPC   H6R16951   3.564   4.244   7.921  0.8028  0.8610  1.4031
  143DOPC   H6S16952   3.527   4.420   7.910 -0.7685 -0.1889 -0.8280
  143DOPC   C2716953   3.469   4.292   7.740 -0.8799 -0.1456 -0.9366
  143DOPC   H7R16954   3.382   4.355   7.711 -0.2131  2.4009  2.0059
  143DOPC   H7S16955   3.440   4.187   7.720 -1.6432 -0.9767  3.4351
  143DOPC   C2816956   3.590   4.331   7.656  0.3333  0.5221  0.0603
  143DOPC   H8R16957   3.669   4.257   7.682 -1.2618 -1.2243  0.1793
  143DOPC   H8S16958   3.615   4.438   7.671 -0.5493  0.5441  1.6606
  143DOPC   C2916959   3.562   4.310   7.506  0.1081  0.9739  0.3052
  143DOPC   H9R16960   3.586   4.207   7.475  1.7357  1.0121  1.3507
  143DOPC  C21016961   3.527   4.395   7.412  0.1149 -0.2590  0.3820
  143DOPC  H10R16962   3.521   4.355   7.310 -1.4148 -1.5872  0.9312
  143DOPC  C21116963   3.490   4.540   7.432  0.4102 -0.4512  0.2378
  143DOPC  H11R16964   3.570   4.611   7.402  0.0934 -0.1654  0.0526
  143DOPC  H11S16965   3.466   4.559   7.539 -0.1331  0.8916 -0.1001
  143DOPC  C21216966   3.364   4.579   7.344  0.0342 -0.0355 -0.5538
  143DOPC  H12R16967   3.273   4.523   7.373 -1.5424  2.4301 -0.4745
  143DOPC  H12S16968   3.388   4.554   7.238  0.8750 -0.6701 -0.2247
  143DOPC  C21316969   3.315   4.724   7.350  0.1180 -0.2752 -0.5731
  143DOPC  H13R16970   3.219   4.747   7.298 -0.2986  1.0833  0.7198
  143DOPC  H13S16971   3.391   4.793   7.305  0.4702 -0.6326 -0.5262
  143DOPC  C21416972   3.288   4.776   7.492  0.2861  0.1732  0.8159
  143DOPC  H14R16973   3.253   4.881   7.481  0.2207 -0.1635 -4.3864
  143DOPC  H14S16974   3.381   4.776   7.553 -1.0027  1.6881  2.9089
  143DOPC  C21516975   3.194   4.695   7.585 -0.0632  0.0165 -0.0400
  143DOPC  H15R16976   3.226   4.589   7.596  2.9952  0.7754 -0.6724
  143DOPC  H15S16977   3.093   4.694   7.539  0.5723  1.7446 -1.6221
  143DOPC  C21616978   3.172   4.749   7.726  0.3795 -0.5977 -0.4011
  143DOPC  H16R16979   3.077   4.709   7.765  0.5179  1.3690  2.2354
  143DOPC  H16S16980   3.172   4.859   7.712  0.9260 -0.3538  1.2979
  143DOPC  C21716981   3.293   4.716   7.821 -0.4257 -0.0573 -0.0305
  143DOPC  H17R16982   3.391   4.736   7.773  0.5011 -0.7682  1.4765
  143DOPC  H17S16983   3.291   4.606   7.833 -0.1082 -0.1938 -1.1393
  143DOPC  C21816984   3.275   4.779   7.957  0.4788  0.4338  0.2302
  143DOPC  H18R16985   3.355   4.741   8.024 -0.3464 -0.3519  0.7814
  143DOPC  H18S16986   3.174   4.752   7.993 -0.4939 -0.1519 -2.7049
  143DOPC  H18T16987   3.281   4.890   7.945 -0.1919  0.3087 -1.5001
  143DOPC   C3316988   2.861   4.245   7.975 -0.5765 -0.0679  0.0727
  143DOPC   H3X16989   2.758   4.253   8.016 -0.1079  0.2694  1.2175
  143DOPC   H3Y16990   2.911   4.151   8.007 -3.9439 -2.2022 -0.3317
  143DOPC   C3416991   2.863   4.246   7.817 -0.2184  0.5551 -0.2316
  143DOPC   H4X16992   2.792   4.329   7.797 -0.6072  0.9529  2.3678
  143DOPC   H4Y16993   2.809   4.156   7.781 -1.0075  0.2437  1.5727
  143DOPC   C3516994   2.993   4.269   7.748  0.5807  0.3023  0.2101
  143DOPC   H5X16995   3.074   4.202   7.784 -0.2940 -0.0673  1.5380
  143DOPC   H5Y16996   3.030   4.374   7.760  1.1726 -0.0524  1.6912
  143DOPC   C3616997   2.987   4.243   7.594 -0.2257  0.3260  0.3847
  143DOPC   H6X16998   2.973   4.135   7.575 -1.6061  0.5855 -0.1894
  143DOPC   H6Y16999   2.899   4.296   7.550  1.2942 -0.0329 -3.4527
  143DOPC   C3717000   3.118   4.289   7.527  0.2346 -0.1983  0.2494
  143DOPC   H7X17001   3.147   4.395   7.538 -2.0160  0.3660  1.2553
  143DOPC   H7Y17002   3.199   4.224   7.567  0.4309 -0.3875 -0.4247
  143DOPC   C3817003   3.130   4.269   7.372  0.6254 -0.1658  0.6901
  143DOPC   H8X17004   3.138   4.159   7.355  2.3283  0.1051 -0.5333
  143DOPC   H8Y17005   3.231   4.301   7.339  1.5574 -0.1779  3.3339
  143DOPC   C3917006   3.010   4.327   7.293 -0.2489 -0.2482  0.0778
  143DOPC   H9X17007   2.913   4.309   7.340 -1.8985 -1.6762 -3.5277
  143DOPC  C31017008   3.021   4.414   7.188  0.2336  0.1107 -0.4069
  143DOPC  H10X17009   2.928   4.446   7.138 -0.6928  0.4533  1.4402
  143DOPC  C31117010   3.149   4.458   7.115 -0.0161  0.3280 -0.4718
  143DOPC  H11X17011   3.240   4.417   7.164 -1.2810 -2.5640 -0.3292
  143DOPC  H11Y17012   3.159   4.568   7.129 -2.4279  0.5021  0.3143
  143DOPC  C31217013   3.134   4.415   6.972 -0.2687 -0.5830 -0.0126
  143DOPC  H12X17014   3.056   4.483   6.931  0.7673  1.6740  1.5480
  143DOPC  H12Y17015   3.095   4.311   6.964 -0.4441 -0.5593  0.5087
  143DOPC  C31317016   3.274   4.426   6.894 -0.2139  0.1071  0.2885
  143DOPC  H13X17017   3.353   4.361   6.937  1.0164 -0.8870 -3.1793
  143DOPC  H13Y17018   3.260   4.394   6.789  0.1406  1.3572 -0.1548
  143DOPC  C31417019   3.337   4.566   6.910  0.0695 -0.1973  0.0497
  143DOPC  H14X17020   3.346   4.581   7.020 -0.5552  0.1255  0.0628
  143DOPC  H14Y17021   3.439   4.552   6.868  0.3008 -0.8095  0.7905
  143DOPC  C31517022   3.265   4.686   6.852 -0.2869  0.2216  0.0313
  143DOPC  H15X17023   3.189   4.721   6.925 -0.8574  0.2429 -0.5653
  143DOPC  H15Y17024   3.225   4.651   6.755  1.2171  0.1013 -0.5771
  143DOPC  C31617025   3.354   4.814   6.822  0.1203  0.1606 -0.5737
  143DOPC  H16X17026   3.406   4.789   6.726 -0.4814  0.2388 -0.9235
  143DOPC  H16Y17027   3.280   4.892   6.798 -1.2208 -0.1954  2.0738
  143DOPC  C31717028   3.458   4.859   6.928 -0.8823 -0.5281  0.1758
  143DOPC  H17X17029   3.407   4.900   7.018  0.1882  0.1344  0.5063
  143DOPC  H17Y17030   3.518   4.769   6.955 -0.4695 -0.2297  0.2753
  143DOPC  C31817031   3.554   4.974   6.884  0.3666 -0.5154  1.1960
  143DOPC  H18X17032   3.602   4.945   6.788 -0.3959 -0.0918  0.6785
  143DOPC  H18Y17033   3.500   5.070   6.867  1.6490  0.6625  3.3599
  143DOPC  H18Z17034   3.631   4.979   6.963 -0.4303  2.1753  1.9186
  144DOPC     N17035   4.433   4.509   9.494 -0.1221  0.0408  0.4200
  144DOPC   C1217036   4.554   4.435   9.427 -0.0103 -0.1093  0.7807
  144DOPC  H12A17037   4.614   4.378   9.497  0.7871 -0.6214 -0.2810
  144DOPC  H12B17038   4.620   4.507   9.382  1.1491 -1.2477  0.5822
  144DOPC   C1317039   4.338   4.413   9.560 -0.1709 -0.7678  0.3374
  144DOPC  H13A17040   4.397   4.364   9.637  1.2101  0.6595  0.2415
  144DOPC  H13B17041   4.249   4.456   9.602 -1.1195 -0.8713 -1.4763
  144DOPC  H13C17042   4.299   4.332   9.500  0.1181 -1.1318  0.6279
  144DOPC   C1417043   4.368   4.591   9.393  0.2131 -0.6941 -0.1225
  144DOPC  H14A17044   4.269   4.615   9.430  0.2127  0.6835 -0.9469
  144DOPC  H14B17045   4.418   4.686   9.382 -1.2095 -0.0373 -1.1787
  144DOPC  H14C17046   4.343   4.531   9.307 -0.1784 -1.6668  0.6443
  144DOPC   C1517047   4.478   4.603   9.599  0.1286 -0.0985 -0.3578
  144DOPC  H15A17048   4.518   4.691   9.551  2.1046 -0.9306 -0.3360
  144DOPC  H15B17049   4.553   4.566   9.668  0.8125 -0.0769 -1.0755
  144DOPC  H15C17050   4.399   4.639   9.663 -0.0464 -0.3510 -0.4293
  144DOPC   C1117051   4.510   4.332   9.317 -0.2945 -0.2134 -0.5257
  144DOPC  H11A17052   4.598   4.266   9.299  0.3731  0.5910 -0.2767
  144DOPC  H11B17053   4.423   4.274   9.355 -0.0394 -0.5382 -0.4280
  144DOPC     P17054   4.571   4.430   9.084 -0.2059 -0.1051  0.3401
  144DOPC   O1317055   4.552   4.320   8.982 -0.3498 -0.0256  0.5158
  144DOPC   O1417056   4.703   4.444   9.146  0.6445 -0.3656  0.2590
  144DOPC   O1217057   4.473   4.405   9.200 -0.3298  0.8528 -0.1694
  144DOPC   O1117058   4.514   4.572   9.030  0.3790  0.3918 -0.7491
  144DOPC    C117059   4.381   4.591   8.982  0.1655 -0.3308 -0.4208
  144DOPC    HA17060   4.342   4.684   9.027  1.1060  0.4585 -1.2001
  144DOPC    HB17061   4.312   4.509   9.012 -1.1472  1.4163  1.5974
  144DOPC    C217062   4.378   4.615   8.823  0.2198 -0.1500 -0.0361
  144DOPC    HS17063   4.271   4.626   8.799  0.7567  0.3463 -2.4499
  144DOPC   O2117064   4.452   4.519   8.745 -0.1664 -0.3244 -0.4617
  144DOPC   C2117065   4.403   4.394   8.745 -0.4740  0.3956  0.0865
  144DOPC   O2217066   4.303   4.355   8.802 -0.3572 -0.0615 -0.6814
  144DOPC   C2217067   4.494   4.315   8.650  0.2123 -0.0674 -0.8630
  144DOPC   H2R17068   4.535   4.232   8.712 -0.4354  1.3537  1.6102
  144DOPC   H2S17069   4.576   4.378   8.610  0.2783 -0.3513 -1.1775
  144DOPC    C317070   4.450   4.754   8.795 -0.6619 -0.2934  0.3998
  144DOPC    HX17071   4.556   4.763   8.828 -0.4392  2.6009 -0.7582
  144DOPC    HY17072   4.406   4.831   8.862 -3.1539 -1.6144  0.4019
  144DOPC   O3117073   4.420   4.799   8.661 -0.5242 -0.1507 -0.0131
  144DOPC   C3117074   4.510   4.783   8.574  1.2776  0.0429  0.6119
  144DOPC   O3217075   4.614   4.725   8.593 -0.0965 -0.4627 -0.3756
  144DOPC   C3217076   4.465   4.834   8.438  0.8518  0.0697  0.1743
  144DOPC   H2X17077   4.367   4.784   8.422  1.8685 -2.7038  1.7780
  144DOPC   H2Y17078   4.454   4.941   8.412  1.3773  0.2472  0.6590
  144DOPC   C2317079   4.427   4.255   8.527  0.4455 -0.4680  0.2914
  144DOPC   H3R17080   4.322   4.229   8.551  0.1117  0.4116 -0.1655
  144DOPC   H3S17081   4.481   4.161   8.502  1.0455  0.4380 -2.1200
  144DOPC   C2417082   4.431   4.347   8.406  0.4290 -0.7502 -0.6278
  144DOPC   H4R17083   4.537   4.375   8.390  0.5799 -1.6679 -1.3574
  144DOPC   H4S17084   4.390   4.450   8.416  0.2254 -0.4063 -3.8565
  144DOPC   C2517085   4.374   4.290   8.281 -0.0108 -0.2451  0.1093
  144DOPC   H5R17086   4.265   4.280   8.301 -0.3243  1.8777 -0.2678
  144DOPC   H5S17087   4.425   4.192   8.268 -1.6094 -1.2285  0.9414
  144DOPC   C2617088   4.403   4.374   8.157 -0.2429  0.4601 -0.6364
  144DOPC   H6R17089   4.510   4.403   8.160  0.3544 -1.6652  0.4270
  144DOPC   H6S17090   4.339   4.464   8.169 -1.1468 -0.3286  0.7165
  144DOPC   C2717091   4.383   4.297   8.031  0.2993  0.5451 -0.0090
  144DOPC   H7R17092   4.285   4.247   8.047  0.8179 -1.1838 -1.8028
  144DOPC   H7S17093   4.467   4.225   8.028 -0.8775 -0.9016  0.2193
  144DOPC   C2817094   4.393   4.385   7.895 -0.1373 -0.0554  0.7173
  144DOPC   H8R17095   4.491   4.437   7.897 -0.6221  0.9007  3.9492
  144DOPC   H8S17096   4.323   4.471   7.891  0.2589  0.2666  0.6365
  144DOPC   C2917097   4.378   4.313   7.765  0.6387  0.4346  0.0899
  144DOPC   H9R17098   4.284   4.257   7.756 -0.2851  1.7743  0.9366
  144DOPC  C21017099   4.462   4.307   7.658 -0.3216  0.9241 -0.0710
  144DOPC  H10R17100   4.424   4.250   7.572 -0.7393 -2.2006  2.0253
  144DOPC  C21117101   4.584   4.395   7.642  0.1289  0.2269  0.3238
  144DOPC  H11R17102   4.622   4.425   7.742 -0.8939 -1.4240  1.2664
  144DOPC  H11S17103   4.553   4.479   7.577 -2.9597 -1.8861 -1.1938
  144DOPC  C21217104   4.701   4.313   7.590  0.0177 -0.4889 -0.4469
  144DOPC  H12R17105   4.728   4.242   7.672  1.4077  0.0899 -0.3596
  144DOPC  H12S17106   4.789   4.380   7.579 -1.4800  1.2922 -2.4314
  144DOPC  C21317107   4.696   4.242   7.458  0.5149  0.6412  0.6017
  144DOPC  H13R17108   4.612   4.170   7.457  0.9545 -0.0130 -3.1657
  144DOPC  H13S17109   4.788   4.180   7.447  0.5061  0.6599  0.4219
  144DOPC  C21417110   4.664   4.329   7.343  0.1731 -0.3296  0.2076
  144DOPC  H14R17111   4.746   4.405   7.350 -0.6778  0.4960  1.8345
  144DOPC  H14S17112   4.570   4.386   7.356  0.8818  0.6655  1.2785
  144DOPC  C21517113   4.682   4.255   7.202  1.2891 -0.4739 -0.8853
  144DOPC  H15R17114   4.586   4.202   7.185  1.0350 -0.6447  0.8248
  144DOPC  H15S17115   4.767   4.184   7.198  1.0051 -0.8118 -0.9435
  144DOPC  C21617116   4.712   4.361   7.088  0.2568  0.5197 -0.6697
  144DOPC  H16R17117   4.816   4.399   7.098  0.6774 -0.6785 -0.1945
  144DOPC  H16S17118   4.652   4.454   7.093  1.4389  1.2486  0.8931
  144DOPC  C21717119   4.704   4.305   6.948  0.3071 -0.3829  0.1412
  144DOPC  H17R17120   4.701   4.390   6.877  0.3693 -0.3062  0.2308
  144DOPC  H17S17121   4.607   4.253   6.930  0.6081 -1.2177  0.8952
  144DOPC  C21817122   4.829   4.226   6.911 -0.0996  0.0668  0.5313
  144DOPC  H18R17123   4.830   4.230   6.800 -1.2553  0.0620  0.5055
  144DOPC  H18S17124   4.822   4.115   6.916 -1.0520  0.0172 -1.2619
  144DOPC  H18T17125   4.929   4.268   6.936  0.0549 -0.0694  0.1421
  144DOPC   C3317126   4.555   4.778   8.325  0.0674  0.1096  0.0318
  144DOPC   H3X17127   4.566   4.668   8.341 -0.3390  0.2315  1.2084
  144DOPC   H3Y17128   4.657   4.823   8.324  0.3551 -0.5053  0.8153
  144DOPC   C3417129   4.473   4.780   8.191 -0.1967 -0.2356 -0.5504
  144DOPC   H4X17130   4.428   4.882   8.184 -0.5808 -0.4584 -1.5772
  144DOPC   H4Y17131   4.396   4.700   8.192 -0.9467  0.4209  1.8568
  144DOPC   C3517132   4.566   4.751   8.069 -0.4238  0.6795  0.0493
  144DOPC   H5X17133   4.604   4.646   8.064 -3.9703 -0.7190 -0.3648
  144DOPC   H5Y17134   4.652   4.821   8.064 -0.4969  0.6871 -1.7961
  144DOPC   C3617135   4.486   4.771   7.935  1.0121 -0.6295  0.1426
  144DOPC   H6X17136   4.397   4.706   7.947 -0.0073  0.8769  1.2769
  144DOPC   H6Y17137   4.455   4.878   7.941  1.6072 -0.4739  0.4778
  144DOPC   C3717138   4.564   4.746   7.807 -0.2047  0.2290 -0.4879
  144DOPC   H7X17139   4.658   4.804   7.810  0.8128 -1.4010  0.0929
  144DOPC   H7Y17140   4.590   4.638   7.804 -1.6468 -0.1551  0.0391
  144DOPC   C3817141   4.493   4.770   7.671 -0.1131 -1.2141  0.3059
  144DOPC   H8X17142   4.567   4.776   7.588 -0.5869 -0.1606 -0.0568
  144DOPC   H8Y17143   4.464   4.876   7.685 -0.9466 -1.4887  0.7518
  144DOPC   C3917144   4.377   4.697   7.627 -0.2085 -0.2844  0.2076
  144DOPC   H9X17145   4.339   4.630   7.705 -2.7277 -0.1861 -0.8322
  144DOPC  C31017146   4.313   4.711   7.506  0.3901  0.5638  0.0706
  144DOPC  H10X17147   4.220   4.657   7.484 -1.0637  2.6023  0.8277
  144DOPC  C31117148   4.350   4.817   7.402  0.3435 -0.0322  0.6312
  144DOPC  H11X17149   4.412   4.891   7.456 -1.5405  0.7276  1.8233
  144DOPC  H11Y17150   4.260   4.869   7.363  1.1051  1.1279  0.3778
  144DOPC  C31217151   4.422   4.750   7.282  0.1890 -0.2818  0.0486
  144DOPC  H12X17152   4.500   4.679   7.318  0.6564  1.8811  3.7907
  144DOPC  H12Y17153   4.468   4.835   7.228  0.2447 -0.8144 -0.7475
  144DOPC  C31317154   4.320   4.673   7.200  0.5285  0.4759  0.0223
  144DOPC  H13X17155   4.251   4.613   7.264  1.9720 -0.5064  0.6920
  144DOPC  H13Y17156   4.253   4.751   7.156 -2.2363 -1.9453 -0.3645
  144DOPC  C31417157   4.384   4.581   7.087  0.2948 -0.9497 -0.1706
  144DOPC  H14X17158   4.453   4.645   7.027 -1.6682  2.3101  0.7449
  144DOPC  H14Y17159   4.455   4.503   7.121  0.1512 -0.8046  0.4699
  144DOPC  C31517160   4.284   4.510   6.993  0.0097  0.0049  0.0834
  144DOPC  H15X17161   4.233   4.587   6.932  0.8576  0.3052 -0.2608
  144DOPC  H15Y17162   4.207   4.468   7.060 -1.5005  1.6672 -0.5408
  144DOPC  C31617163   4.355   4.395   6.922 -0.3374 -0.0731 -0.6039
  144DOPC  H16X17164   4.444   4.433   6.867 -0.5007  0.2467 -0.6540
  144DOPC  H16Y17165   4.394   4.314   6.987 -0.3158 -1.9846 -2.8388
  144DOPC  C31717166   4.274   4.340   6.808  0.0659  0.1657 -0.1500
  144DOPC  H17X17167   4.267   4.416   6.728 -1.6746  1.2678  0.9798
  144DOPC  H17Y17168   4.333   4.257   6.763 -1.0355  1.4134 -4.3164
  144DOPC  C31817169   4.127   4.286   6.835  0.5343 -0.6881  1.3147
  144DOPC  H18X17170   4.127   4.185   6.879 -0.9154 -0.7466  1.2422
  144DOPC  H18Y17171   4.077   4.361   6.900  0.9073 -0.1002  0.9400
  144DOPC  H18Z17172   4.056   4.280   6.749 -3.2145  0.8346  4.0303
  145DOPC     N17173   3.541   6.099   9.389  0.5052 -0.4165 -0.0807
  145DOPC   C1217174   3.610   6.126   9.252  0.3542 -0.2544  0.5383
  145DOPC  H12A17175   3.707   6.167   9.277  0.4388  0.0345 -0.2366
  145DOPC  H12B17176   3.549   6.193   9.194  0.2332 -0.1033  0.8350
  145DOPC   C1317177   3.398   6.048   9.363  0.0882 -0.1804 -0.1771
  145DOPC  H13A17178   3.391   5.970   9.288  0.6392  0.6019 -1.0549
  145DOPC  H13B17179   3.355   5.996   9.448 -0.5967 -1.3184 -1.1914
  145DOPC  H13C17180   3.333   6.128   9.332 -3.7346 -4.1014 -3.7255
  145DOPC   C1417181   3.533   6.229   9.477  0.1830  0.1945  0.6840
  145DOPC  H14A17182   3.474   6.304   9.428  0.6509 -0.0926 -0.3434
  145DOPC  H14B17183   3.485   6.209   9.572  1.1055 -2.3861  0.6894
  145DOPC  H14C17184   3.634   6.266   9.486  1.0451 -1.6360 -0.7325
  145DOPC   C1517185   3.619   5.997   9.467  0.0105  0.2250 -0.4082
  145DOPC  H15A17186   3.725   6.011   9.455 -0.0451  0.8742 -0.1620
  145DOPC  H15B17187   3.598   5.898   9.430  2.3271 -0.9834  1.2490
  145DOPC  H15C17188   3.597   5.992   9.573  0.6656  1.4507 -0.2015
  145DOPC   C1117189   3.642   6.009   9.156  0.0771  0.1647 -0.1882
  145DOPC  H11A17190   3.548   5.955   9.133 -0.5901  0.9068  0.7050
  145DOPC  H11B17191   3.675   6.042   9.055 -0.1951  0.3561 -0.2163
  145DOPC     P17192   3.886   5.956   9.210 -0.4613  0.1555 -0.1090
  145DOPC   O1317193   3.977   5.842   9.247  0.4917 -0.2219 -0.1839
  145DOPC   O1417194   3.905   6.083   9.290 -0.0175  0.0544  0.1122
  145DOPC   O1217195   3.738   5.920   9.208 -0.2819 -0.1665 -0.1835
  145DOPC   O1117196   3.907   6.002   9.053 -0.6210  0.2064 -0.5743
  145DOPC    C117197   3.980   6.127   9.032  0.2888  1.2217 -0.4838
  145DOPC    HA17198   4.074   6.125   9.091 -0.7979 -1.0222  1.3601
  145DOPC    HB17199   3.920   6.215   9.064 -1.2845  0.5053 -1.3260
  145DOPC    C217200   4.008   6.148   8.874 -0.4820  0.0063 -0.0827
  145DOPC    HS17201   4.092   6.221   8.878  1.5646 -2.2465  0.4465
  145DOPC   O2117202   3.895   6.192   8.796  0.5251 -0.1614  0.1941
  145DOPC   C2117203   3.880   6.321   8.787  0.4228 -0.1632  0.1567
  145DOPC   O2217204   3.948   6.406   8.842 -0.1764 -0.0914  0.5530
  145DOPC   C2217205   3.779   6.364   8.675  0.3809  0.6346  0.0816
  145DOPC   H2R17206   3.714   6.443   8.719 -1.0812 -1.7673  2.5673
  145DOPC   H2S17207   3.709   6.280   8.657  2.2887 -1.4039  1.5465
  145DOPC    C317208   4.081   6.031   8.800 -0.1171 -0.9696 -0.5978
  145DOPC    HX17209   4.016   5.941   8.803  2.3032 -2.8340 -1.3058
  145DOPC    HY17210   4.167   6.000   8.864  1.9359 -0.7334 -3.1075
  145DOPC   O3117211   4.124   6.061   8.666  0.2026  0.3037 -0.6825
  145DOPC   C3117212   4.245   6.110   8.660  0.1094 -0.7385  0.4761
  145DOPC   O3217213   4.327   6.113   8.751  0.6347  0.3729 -0.1057
  145DOPC   C3217214   4.282   6.164   8.519 -0.4967 -0.3176 -0.4772
  145DOPC   H2X17215   4.374   6.223   8.539 -0.4930 -0.8298  1.1609
  145DOPC   H2Y17216   4.296   6.072   8.458 -0.5270 -0.9403  0.4385
  145DOPC   C2317217   3.843   6.407   8.545  0.0312 -0.4935  0.4164
  145DOPC   H3R17218   3.875   6.313   8.496 -1.1656 -0.7571  0.1287
  145DOPC   H3S17219   3.925   6.476   8.575  1.0377 -0.0098 -2.9977
  145DOPC   C2417220   3.765   6.488   8.440 -0.3349  0.4528  0.9218
  145DOPC   H4R17221   3.846   6.509   8.367 -1.1521  1.4269  0.2591
  145DOPC   H4S17222   3.728   6.582   8.486 -3.8173 -0.5732  0.4818
  145DOPC   C2517223   3.649   6.418   8.372 -0.4850 -0.3142 -0.4441
  145DOPC   H5R17224   3.586   6.493   8.320 -1.4378  1.1623  2.5762
  145DOPC   H5S17225   3.581   6.373   8.449  2.3523 -0.7014  2.0203
  145DOPC   C2617226   3.697   6.306   8.280  0.7836  1.1926  0.0913
  145DOPC   H6R17227   3.717   6.212   8.336  0.6485 -1.3609 -3.7301
  145DOPC   H6S17228   3.792   6.327   8.226  1.3472 -0.8609  0.1776
  145DOPC   C2717229   3.583   6.269   8.173 -0.0051 -0.2607  0.1888
  145DOPC   H7R17230   3.488   6.241   8.223 -0.9480  1.6878 -0.4145
  145DOPC   H7S17231   3.625   6.191   8.106 -0.1790 -0.5237  0.3858
  145DOPC   C2817232   3.541   6.381   8.081  1.0987  0.3552 -0.1042
  145DOPC   H8R17233   3.512   6.470   8.140  0.5228  0.5062 -0.6067
  145DOPC   H8S17234   3.458   6.337   8.022 -0.3682  1.0337  1.4036
  145DOPC   C2917235   3.645   6.407   7.970 -0.0610 -0.4750 -0.8068
  145DOPC   H9R17236   3.652   6.342   7.882 -0.1790  0.1974 -1.3177
  145DOPC  C21017237   3.724   6.515   7.969 -0.5719  0.3596  0.4638
  145DOPC  H10R17238   3.790   6.536   7.883 -1.4403 -0.1364 -0.3532
  145DOPC  C21117239   3.740   6.627   8.071  0.3289 -0.1959 -0.4401
  145DOPC  H11R17240   3.845   6.658   8.090  0.7448 -2.1064  0.5377
  145DOPC  H11S17241   3.698   6.596   8.168 -0.6807  3.0406  0.2999
  145DOPC  C21217242   3.667   6.762   8.035 -0.1059  0.0946 -0.0211
  145DOPC  H12R17243   3.709   6.784   7.934 -1.0525  0.1706 -0.4126
  145DOPC  H12S17244   3.707   6.837   8.106 -1.1899 -1.5081  2.4107
  145DOPC  C21317245   3.514   6.764   8.048 -0.7568 -0.9200  0.1310
  145DOPC  H13R17246   3.483   6.755   8.154  1.1089 -0.7180  0.7254
  145DOPC  H13S17247   3.469   6.683   7.985  1.8862  0.7149 -4.3505
  145DOPC  C21417248   3.444   6.901   7.997 -0.5863  0.5601 -0.0632
  145DOPC  H14R17249   3.497   6.972   8.065 -0.3294  0.2743  0.0393
  145DOPC  H14S17250   3.335   6.914   8.017 -0.9810  1.6328 -2.5424
  145DOPC  C21517251   3.473   6.942   7.855 -0.1994 -0.0296  0.3898
  145DOPC  H15R17252   3.584   6.949   7.849  0.0158 -2.1318  1.0528
  145DOPC  H15S17253   3.430   7.044   7.842  2.7772  1.4527  1.3105
  145DOPC  C21617254   3.411   6.846   7.753  0.1431 -0.7651 -0.0250
  145DOPC  H16R17255   3.307   6.822   7.781  0.5527 -1.1766  1.2018
  145DOPC  H16S17256   3.467   6.750   7.750 -0.1344 -0.9224 -0.1997
  145DOPC  C21717257   3.439   6.906   7.619 -0.0307  0.1084  0.0292
  145DOPC  H17R17258   3.548   6.902   7.599  0.1537  1.7779  0.5353
  145DOPC  H17S17259   3.394   7.007   7.629 -1.9890 -0.9106  3.1448
  145DOPC  C21817260   3.368   6.834   7.504 -0.3672  0.2411 -0.5569
  145DOPC  H18R17261   3.404   6.730   7.495  1.4804  0.8073 -0.1985
  145DOPC  H18S17262   3.376   6.895   7.412 -1.2314 -0.0115 -0.8107
  145DOPC  H18T17263   3.259   6.824   7.527 -0.0557 -0.3130  0.7541
  145DOPC   C3317264   4.174   6.254   8.456  0.2589  0.3000 -0.7216
  145DOPC   H3X17265   4.154   6.351   8.507 -0.5502  1.1031 -2.4663
  145DOPC   H3Y17266   4.081   6.194   8.468  0.2601  0.6202  1.0766
  145DOPC   C3417267   4.204   6.283   8.307 -0.2427  0.8336 -0.1134
  145DOPC   H4X17268   4.283   6.214   8.268 -0.5528 -0.8940  2.1334
  145DOPC   H4Y17269   4.245   6.386   8.296  0.6792  0.3118 -2.2225
  145DOPC   C3517270   4.076   6.268   8.222 -0.3620  0.3142 -0.3764
  145DOPC   H5X17271   4.008   6.350   8.254 -2.5721 -1.2207 -0.8818
  145DOPC   H5Y17272   4.027   6.171   8.244  0.7187  0.0435  0.9787
  145DOPC   C3617273   4.112   6.274   8.078 -0.5808 -0.0089 -0.2340
  145DOPC   H6X17274   4.157   6.370   8.045  0.0181 -0.9393 -2.3443
  145DOPC   H6Y17275   4.195   6.200   8.071  0.8624  1.2021  2.5710
  145DOPC   C3717276   4.001   6.221   7.986  0.3289 -0.4033 -0.6906
  145DOPC   H7X17277   3.964   6.124   8.024  0.0913  1.2551  4.0792
  145DOPC   H7Y17278   3.914   6.288   8.005 -0.3846 -1.6199  0.4591
  145DOPC   C3817279   4.037   6.208   7.833 -0.7878 -0.9859 -0.1326
  145DOPC   H8X17280   4.115   6.131   7.820 -0.6502 -1.0415  0.8793
  145DOPC   H8Y17281   4.084   6.303   7.800  0.9000 -2.0577 -0.9370
  145DOPC   C3917282   3.919   6.163   7.743 -0.1463 -0.7034 -0.1775
  145DOPC   H9X17283   3.873   6.066   7.766 -1.4338 -0.5504 -1.8801
  145DOPC  C31017284   3.862   6.241   7.649  0.3926  0.9188 -0.4090
  145DOPC  H10X17285   3.778   6.197   7.592  0.9995 -0.1475 -0.5053
  145DOPC  C31117286   3.907   6.368   7.585  1.2211 -0.4508 -0.8266
  145DOPC  H11X17287   3.977   6.432   7.642 -1.8411  1.2527  1.3267
  145DOPC  H11Y17288   3.817   6.432   7.568  0.1960 -1.3898  0.8796
  145DOPC  C31217289   3.968   6.334   7.445 -0.8913 -0.1792  0.0502
  145DOPC  H12X17290   4.052   6.264   7.466  0.0491  1.0505  0.4656
  145DOPC  H12Y17291   4.014   6.427   7.407  0.8767 -0.4610  1.3457
  145DOPC  C31317292   3.867   6.281   7.339  0.0160 -0.1953 -0.6883
  145DOPC  H13X17293   3.927   6.225   7.264  1.1198  0.1972 -0.1356
  145DOPC  H13Y17294   3.797   6.215   7.393 -0.3991 -0.1632 -1.1804
  145DOPC  C31417295   3.781   6.385   7.271 -0.0298 -0.2774  0.1979
  145DOPC  H14X17296   3.696   6.327   7.230 -0.5436  0.4526  0.2003
  145DOPC  H14Y17297   3.729   6.461   7.334 -0.0248  0.7415 -0.9780
  145DOPC  C31517298   3.851   6.451   7.149 -0.0635  0.3780 -0.4995
  145DOPC  H15X17299   3.874   6.382   7.065 -0.0907 -0.7307  0.3957
  145DOPC  H15Y17300   3.952   6.495   7.166  0.0414 -0.3953  0.9917
  145DOPC  C31617301   3.763   6.567   7.092  0.2535 -1.2546  0.2327
  145DOPC  H16X17302   3.802   6.597   6.993 -0.2681  1.2739  0.7341
  145DOPC  H16Y17303   3.661   6.523   7.082 -1.8294  3.3708 -1.5244
  145DOPC  C31717304   3.762   6.700   7.179  0.2579  0.3475  0.5512
  145DOPC  H17X17305   3.733   6.667   7.281  0.7918 -0.1661  0.5426
  145DOPC  H17Y17306   3.866   6.739   7.184  0.0455  0.9596  0.2155
  145DOPC  C31817307   3.671   6.799   7.110  0.5792 -0.0269 -0.2018
  145DOPC  H18X17308   3.714   6.821   7.010  0.1999  0.0375 -0.3543
  145DOPC  H18Y17309   3.562   6.779   7.099  0.7960 -0.4266 -1.7532
  145DOPC  H18Z17310   3.682   6.897   7.162  3.2686  0.4068 -1.4137
  146DOPC     N17311   0.017   3.959   8.272  0.4543 -0.1474 -0.2491
  146DOPC   C1217312   0.017   4.047   8.156  0.5353 -0.0832 -0.9003
  146DOPC  H12A17313   0.033   4.149   8.188 -3.6597  0.4249  0.1032
  146DOPC  H12B17314  -0.086   4.044   8.125 -1.9619  1.3322  5.7437
  146DOPC   C1317315   0.150   3.943   8.333 -0.2834  0.3601  0.1836
  146DOPC  H13A17316   0.148   3.851   8.388  1.3172 -0.5761 -1.2196
  146DOPC  H13B17317   0.223   3.928   8.255 -1.1458  0.5334 -0.6811
  146DOPC  H13C17318   0.165   4.029   8.397 -1.3804  0.4578  0.3221
  146DOPC   C1417319  -0.037   3.826   8.224  0.0213 -0.7130 -0.1916
  146DOPC  H14A17320  -0.138   3.834   8.187 -0.0871 -1.1069  0.0179
  146DOPC  H14B17321   0.027   3.775   8.153 -1.5101  0.3759 -2.5093
  146DOPC  H14C17322  -0.045   3.750   8.300 -1.6955 -0.2846  0.1085
  146DOPC   C1517323  -0.071   4.011   8.381  0.1937  0.0300 -0.3239
  146DOPC  H15A17324  -0.045   4.115   8.392  0.2378  0.1354 -1.2920
  146DOPC  H15B17325  -0.054   3.957   8.473 -1.8005 -0.7377 -0.3468
  146DOPC  H15C17326  -0.175   3.998   8.356  0.3131 -1.0383 -0.3240
  146DOPC   C1117327   0.115   4.008   8.049  0.4198 -0.2731 -0.1595
  146DOPC  H11A17328   0.107   3.901   8.018 -3.3262  0.3228 -1.8289
  146DOPC  H11B17329   0.089   4.060   7.954  1.4108  0.8543  0.1546
  146DOPC     P17330   0.300   4.186   8.072 -0.1149  0.5362  0.2615
  146DOPC   O1317331   0.422   4.180   8.158  0.4376 -0.2289 -0.0467
  146DOPC   O1417332   0.204   4.289   8.103  0.6850  0.9032  0.1850
  146DOPC   O1217333   0.244   4.035   8.081  0.2304  0.3632 -0.4605
  146DOPC   O1117334   0.342   4.188   7.919  0.2707  0.4218 -0.0921
  146DOPC    C117335   0.400   4.076   7.850 -0.2184  0.3770 -0.3578
  146DOPC    HA17336   0.386   4.084   7.741 -0.3723 -2.1604 -0.5918
  146DOPC    HB17337   0.343   3.984   7.876  0.5929 -0.0209  0.0752
  146DOPC    C217338   0.554   4.065   7.891  0.3450 -0.6101 -0.6770
  146DOPC    HS17339   0.544   4.046   8.000 -0.4677 -0.4349 -0.7113
  146DOPC   O2117340   0.611   4.198   7.872  0.2278 -0.0586 -0.0958
  146DOPC   C2117341   0.731   4.217   7.931  0.0115  0.2380  0.7596
  146DOPC   O2217342   0.791   4.128   7.986 -0.7260 -0.4151  0.2489
  146DOPC   C2217343   0.779   4.349   7.888  0.5230 -0.6695  0.3209
  146DOPC   H2R17344   0.799   4.405   7.982  0.7158 -0.4489  0.1508
  146DOPC   H2S17345   0.704   4.398   7.823 -0.3779 -4.2542 -1.5928
  146DOPC    C317346   0.626   3.949   7.814 -0.2853  0.2655  0.3277
  146DOPC    HX17347   0.574   3.854   7.837  0.7549 -0.3021  0.3955
  146DOPC    HY17348   0.730   3.944   7.852 -0.8934  1.0080  2.2114
  146DOPC   O3117349   0.632   3.980   7.676 -0.0232 -0.1468  0.1787
  146DOPC   C3117350   0.615   3.910   7.569  0.3421  0.5393  0.7741
  146DOPC   O3217351   0.598   3.789   7.561  0.3273 -0.3087 -0.0617
  146DOPC   C3217352   0.595   4.008   7.439 -0.2594 -0.3799 -0.2774
  146DOPC   H2X17353   0.566   4.105   7.485  0.4157 -0.4044  0.2068
  146DOPC   H2Y17354   0.686   4.027   7.379  1.7394 -0.8738  2.4289
  146DOPC   C2317355   0.913   4.341   7.811  0.1352  0.5109  0.1829
  146DOPC   H3R17356   0.919   4.256   7.739  2.0568 -1.2541  2.2772
  146DOPC   H3S17357   0.991   4.307   7.882  1.4762 -0.9691 -1.8803
  146DOPC   C2417358   0.951   4.479   7.751 -0.1007 -0.5260  0.1784
  146DOPC   H4R17359   1.061   4.492   7.742  0.2038  0.1611  3.5119
  146DOPC   H4S17360   0.931   4.561   7.824  0.9480 -0.1449  0.0517
  146DOPC   C2517361   0.884   4.525   7.622 -0.4600 -0.9234  0.1358
  146DOPC   H5R17362   0.928   4.622   7.589  1.2170 -2.0435 -1.0473
  146DOPC   H5S17363   0.776   4.550   7.635 -0.0597 -0.3345  2.9106
  146DOPC   C2617364   0.896   4.421   7.508 -0.2128  0.2737  0.5102
  146DOPC   H6R17365   0.874   4.475   7.413 -2.2870  2.7491  2.2337
  146DOPC   H6S17366   0.818   4.347   7.534  0.8183 -0.1942  2.5016
  146DOPC   C2717367   1.038   4.358   7.488  0.0643  0.0984 -0.2139
  146DOPC   H7R17368   1.064   4.278   7.561  0.5416  1.6772  1.4418
  146DOPC   H7S17369   1.117   4.432   7.515 -0.0701  0.1917 -0.0726
  146DOPC   C2817370   1.066   4.310   7.345 -0.8667 -0.6965 -0.4094
  146DOPC   H8R17371   1.165   4.260   7.349  0.4354  1.7840  0.3772
  146DOPC   H8S17372   1.080   4.405   7.289 -1.4654 -0.9840 -1.0623
  146DOPC   C2917373   0.971   4.213   7.287  0.6738  0.0139 -0.5680
  146DOPC   H9R17374   0.953   4.135   7.363 -0.2736  1.1808  0.4358
  146DOPC  C21017375   0.924   4.195   7.162 -0.1706 -0.3294  0.2055
  146DOPC  H10R17376   0.855   4.112   7.138  2.1328 -1.9530 -1.1382
  146DOPC  C21117377   0.952   4.301   7.059  0.4551  0.3521 -0.5352
  146DOPC  H11R17378   1.059   4.326   7.074  1.1653 -2.3585 -0.4983
  146DOPC  H11S17379   0.883   4.384   7.086  0.3215  0.2310 -0.5017
  146DOPC  C21217380   0.944   4.270   6.906 -0.1054  0.4441 -0.0866
  146DOPC  H12R17381   0.837   4.245   6.890 -0.6608  0.4647  3.0182
  146DOPC  H12S17382   1.009   4.183   6.882 -0.6408  0.2826 -0.9789
  146DOPC  C21317383   0.968   4.379   6.806  0.0868  0.3163 -0.3018
  146DOPC  H13R17384   1.072   4.417   6.818  0.4580 -0.0942 -1.9336
  146DOPC  H13S17385   0.906   4.472   6.810  0.3634  0.6002 -1.7733
  146DOPC  C21417386   0.970   4.328   6.664 -0.4447 -0.4951 -0.0859
  146DOPC  H14R17387   0.877   4.276   6.635  0.1223  0.0671 -3.3596
  146DOPC  H14S17388   1.047   4.253   6.637  0.4219  0.6085 -0.8093
  146DOPC  C21517389   0.995   4.446   6.571  0.5947 -0.4072  0.5600
  146DOPC  H15R17390   1.089   4.500   6.597  1.5253 -1.7171 -0.0044
  146DOPC  H15S17391   0.909   4.516   6.577 -1.2066 -2.1117 -2.6844
  146DOPC  C21617392   0.995   4.415   6.423  0.4343 -0.5305  0.0015
  146DOPC  H16R17393   1.069   4.337   6.394 -0.8594 -0.8664 -2.8141
  146DOPC  H16S17394   1.042   4.502   6.373 -0.0237  0.4384  1.2129
  146DOPC  C21717395   0.855   4.398   6.356  0.0457 -0.0386  0.1355
  146DOPC  H17R17396   0.779   4.448   6.420 -0.0977  1.1773 -0.9376
  146DOPC  H17S17397   0.832   4.290   6.358  2.2532 -0.5433  1.6849
  146DOPC  C21817398   0.833   4.449   6.208  0.5380 -0.3647 -0.1149
  146DOPC  H18R17399   0.730   4.430   6.170  0.8056 -1.5124 -0.3085
  146DOPC  H18S17400   0.912   4.408   6.142  1.5292 -1.2462  1.5542
  146DOPC  H18T17401   0.860   4.557   6.207  0.8367 -0.4030  1.4771
  146DOPC   C3317402   0.477   3.965   7.336  0.2032 -0.6586  0.4908
  146DOPC   H3X17403   0.435   4.053   7.284  3.1205 -0.6288 -2.1378
  146DOPC   H3Y17404   0.396   3.901   7.376 -1.1042 -1.0499 -2.5157
  146DOPC   C3417405   0.539   3.882   7.216 -0.1749 -0.5444  0.0131
  146DOPC   H4X17406   0.626   3.819   7.242  2.4966  2.7165 -0.3701
  146DOPC   H4Y17407   0.581   3.958   7.147  0.5444 -1.2336 -0.3349
  146DOPC   C3517408   0.428   3.792   7.150 -0.3943 -0.6794  0.3588
  146DOPC   H5X17409   0.346   3.861   7.119  0.6212  1.1580  1.5959
  146DOPC   H5Y17410   0.393   3.731   7.235 -1.2952  0.8042  1.0930
  146DOPC   C3617411   0.472   3.698   7.040 -0.7511  0.1174  0.2590
  146DOPC   H6X17412   0.536   3.758   6.971 -1.1247  0.3069  0.0757
  146DOPC   H6Y17413   0.528   3.612   7.082  0.1658  0.2691 -0.6078
  146DOPC   C3717414   0.354   3.644   6.959 -0.5990  0.3918 -0.7440
  146DOPC   H7X17415   0.284   3.597   7.031  1.9780 -0.1117  1.6069
  146DOPC   H7Y17416   0.302   3.731   6.913 -0.3301  0.5476 -0.7616
  146DOPC   C3817417   0.395   3.533   6.856  0.2622 -0.1726  0.7737
  146DOPC   H8X17418   0.297   3.487   6.832  0.4236 -0.4910  0.7299
  146DOPC   H8Y17419   0.453   3.462   6.919 -0.2400 -1.7587 -0.4845
  146DOPC   C3917420   0.475   3.584   6.733  0.4061  0.4183 -0.2317
  146DOPC   H9X17421   0.560   3.644   6.767  0.0623 -0.0781  1.6249
  146DOPC  C31017422   0.438   3.578   6.605  0.1146  0.1679  0.1748
  146DOPC  H10X17423   0.512   3.619   6.534 -1.8635  1.9565 -1.0097
  146DOPC  C31117424   0.320   3.510   6.539  0.2010  0.2243  0.6110
  146DOPC  H11X17425   0.279   3.438   6.612  0.2700  1.8078  2.2868
  146DOPC  H11Y17426   0.353   3.452   6.450 -1.0126 -0.8563  0.8395
  146DOPC  C31217427   0.209   3.604   6.490 -0.6315  0.6422 -0.2417
  146DOPC  H12X17428   0.183   3.668   6.578  1.5445  0.1918  0.7839
  146DOPC  H12Y17429   0.118   3.540   6.480  0.2152 -0.5725 -0.3242
  146DOPC  C31317430   0.241   3.691   6.370  0.7312  0.3556  0.1540
  146DOPC  H13X17431   0.145   3.746   6.355 -0.0655 -0.8454  0.7065
  146DOPC  H13Y17432   0.323   3.765   6.382  0.0259  2.0598 -3.9115
  146DOPC  C31417433   0.253   3.614   6.238  0.1133 -0.2682  0.0507
  146DOPC  H14X17434   0.346   3.555   6.229 -0.7671 -1.5291 -1.2423
  146DOPC  H14Y17435   0.183   3.527   6.247 -0.7971  0.3348 -1.0429
  146DOPC  C31517436   0.219   3.699   6.118  0.4126  0.0436  0.7836
  146DOPC  H15X17437   0.111   3.722   6.102  0.6494  1.0986  0.6246
  146DOPC  H15Y17438   0.239   3.635   6.029 -3.5948  0.1225 -0.3802
  146DOPC  C31617439   0.288   3.830   6.122  0.3722 -0.6408  0.2548
  146DOPC  H16X17440   0.251   3.889   6.209  3.2225 -0.3676  1.3866
  146DOPC  H16Y17441   0.394   3.810   6.151  0.7412 -0.8482 -1.1868
  146DOPC  C31717442   0.272   3.922   5.999  0.0124 -0.0358  0.2010
  146DOPC  H17X17443   0.164   3.949   6.005 -0.2561 -0.6797 -1.3491
  146DOPC  H17Y17444   0.331   4.016   6.010  1.1425 -0.5266 -1.3966
  146DOPC  C31817445   0.311   3.846   5.868 -0.2183  0.5485 -0.8788
  146DOPC  H18X17446   0.234   3.772   5.838  1.1668 -1.4805  0.3455
  146DOPC  H18Y17447   0.338   3.911   5.782  0.4856  0.1323 -0.9731
  146DOPC  H18Z17448   0.400   3.787   5.899 -1.6941 -1.1059  0.3806
  147DOPC     N17449   2.265   2.552   9.077  0.2657  0.2555  0.6404
  147DOPC   C1217450   2.376   2.539   8.970  0.2122 -0.3997 -1.1534
  147DOPC  H12A17451   2.469   2.519   9.020 -1.3354  1.2141  2.7851
  147DOPC  H12B17452   2.388   2.640   8.932 -2.6286  0.0381 -1.1029
  147DOPC   C1317453   2.317   2.658   9.176  0.7014  0.5858 -0.0601
  147DOPC  H13A17454   2.293   2.643   9.280 -1.2442  0.5518 -0.4590
  147DOPC  H13B17455   2.422   2.682   9.175  0.4682  1.6537 -0.1027
  147DOPC  H13C17456   2.260   2.744   9.143 -2.0493 -0.9261  0.3614
  147DOPC   C1417457   2.240   2.423   9.145  0.2054 -0.8679  0.3177
  147DOPC  H14A17458   2.219   2.344   9.074  0.8786  2.1452 -3.5427
  147DOPC  H14B17459   2.330   2.392   9.197  1.7848  0.0129 -1.7648
  147DOPC  H14C17460   2.170   2.429   9.227  1.7232  0.2867  1.5994
  147DOPC   C1517461   2.139   2.608   9.012 -0.5509 -0.0448  0.2222
  147DOPC  H15A17462   2.151   2.712   8.986 -2.4418 -0.6659 -3.8763
  147DOPC  H15B17463   2.054   2.592   9.078 -0.0368  0.8868  1.1385
  147DOPC  H15C17464   2.134   2.563   8.914  1.1470 -0.2809  0.2101
  147DOPC   C1117465   2.356   2.447   8.850 -0.2152  0.2267 -0.4374
  147DOPC  H11A17466   2.260   2.483   8.808  0.5900  1.4908 -1.2959
  147DOPC  H11B17467   2.436   2.468   8.775  0.8594  1.1416  0.9153
  147DOPC     P17468   2.501   2.237   8.907 -0.2009  0.1469 -0.7145
  147DOPC   O1317469   2.475   2.100   8.961 -0.2583  0.0805  0.1582
  147DOPC   O1417470   2.600   2.314   8.983 -0.2702  0.2612 -0.5937
  147DOPC   O1217471   2.360   2.309   8.896 -0.5195  0.0239  0.3218
  147DOPC   O1117472   2.560   2.224   8.761 -0.4052  0.0722  0.2379
  147DOPC    C117473   2.490   2.174   8.650  0.8793  0.1269 -0.1868
  147DOPC    HA17474   2.390   2.222   8.642  1.4485  1.6095  1.2170
  147DOPC    HB17475   2.460   2.070   8.677  0.3299  0.1372 -0.7243
  147DOPC    C217476   2.569   2.179   8.523  0.2268 -0.6164 -0.5355
  147DOPC    HS17477   2.668   2.130   8.527  0.6408  0.0550 -1.8402
  147DOPC   O2117478   2.595   2.323   8.487 -0.1509  0.9327 -0.4542
  147DOPC   C2117479   2.716   2.366   8.508 -1.2716  0.0131 -0.8117
  147DOPC   O2217480   2.813   2.297   8.534  0.0618  0.0634 -0.1620
  147DOPC   C2217481   2.723   2.520   8.500  0.2338  0.0564  0.0460
  147DOPC   H2R17482   2.762   2.554   8.598  0.1691  0.6383 -0.1307
  147DOPC   H2S17483   2.617   2.551   8.494  0.9774  2.5940 -1.1675
  147DOPC    C317484   2.500   2.108   8.409  0.0629  0.2370 -0.1392
  147DOPC    HX17485   2.419   2.176   8.375  1.7655  2.4203  0.0060
  147DOPC    HY17486   2.447   2.015   8.439  0.4834 -0.2009 -0.7292
  147DOPC   O3117487   2.590   2.086   8.309  0.1063  0.1231  0.3277
  147DOPC   C3117488   2.526   2.053   8.193  0.5993 -0.2471 -0.2548
  147DOPC   O3217489   2.405   2.016   8.193 -0.5067 -0.2078 -0.3833
  147DOPC   C3217490   2.630   2.069   8.081  0.2875 -0.2492  0.2036
  147DOPC   H2X17491   2.656   2.177   8.073 -0.1424 -0.1401  0.2774
  147DOPC   H2Y17492   2.719   2.009   8.111  0.6044 -0.4121 -1.0193
  147DOPC   C2317493   2.807   2.573   8.384 -0.5245  0.2513  0.6144
  147DOPC   H3R17494   2.907   2.531   8.409 -0.3136  0.4515  0.1163
  147DOPC   H3S17495   2.806   2.684   8.373  2.8007  0.5353  2.0988
  147DOPC   C2417496   2.780   2.509   8.247  0.5972  0.3051 -0.0168
  147DOPC   H4R17497   2.682   2.539   8.204  1.2494  0.8004 -1.2197
  147DOPC   H4S17498   2.789   2.399   8.255  1.6989  0.4138  0.4843
  147DOPC   C2517499   2.882   2.560   8.151 -0.1004  0.5317 -0.6838
  147DOPC   H5R17500   2.983   2.541   8.193 -0.9748 -1.1478  0.8164
  147DOPC   H5S17501   2.870   2.670   8.140 -0.4967  0.6511  0.8001
  147DOPC   C2617502   2.874   2.483   8.019  0.0058  0.6014  0.1928
  147DOPC   H6R17503   2.769   2.479   7.981 -0.0857  0.5414  0.4443
  147DOPC   H6S17504   2.921   2.383   8.018  0.0883  0.6246  0.8684
  147DOPC   C2717505   2.962   2.552   7.912  0.3980 -0.6955 -0.5835
  147DOPC   H7R17506   3.066   2.549   7.952  0.8085  1.0387 -1.4127
  147DOPC   H7S17507   2.934   2.659   7.897  1.6169 -0.4413 -1.1734
  147DOPC   C2817508   2.963   2.479   7.789 -0.7056  0.6826 -0.0563
  147DOPC   H8R17509   2.859   2.456   7.758  0.3943 -0.3043 -3.3715
  147DOPC   H8S17510   3.009   2.379   7.803 -2.1005  0.1850  1.2433
  147DOPC   C2917511   3.032   2.556   7.680 -0.3372  0.3003 -0.3186
  147DOPC   H9R17512   3.085   2.643   7.721  0.7219  0.4478 -1.8988
  147DOPC  C21017513   3.038   2.522   7.547 -0.6502  0.3541  0.0887
  147DOPC  H10R17514   3.096   2.577   7.472  0.8482 -0.2555  0.7712
  147DOPC  C21117515   2.969   2.399   7.502 -0.0828  0.2294  0.4715
  147DOPC  H11R17516   2.864   2.422   7.471  0.1558  0.4074 -0.2183
  147DOPC  H11S17517   2.956   2.320   7.579  0.3439  1.4920  1.8869
  147DOPC  C21217518   3.047   2.329   7.387  0.4372 -0.2312 -0.4938
  147DOPC  H12R17519   2.985   2.240   7.363  0.0164 -0.6010  1.7225
  147DOPC  H12S17520   3.148   2.296   7.418 -0.2813 -0.1782  2.1549
  147DOPC  C21317521   3.048   2.401   7.252 -0.1469 -0.3047  0.2777
  147DOPC  H13R17522   3.137   2.466   7.237  0.0915 -0.3028  1.5801
  147DOPC  H13S17523   2.950   2.453   7.246 -0.2684 -0.4185  1.1378
  147DOPC  C21417524   3.039   2.299   7.130 -0.7407  0.2471 -0.1776
  147DOPC  H14R17525   2.959   2.222   7.138 -0.9494  0.3623 -1.0186
  147DOPC  H14S17526   3.132   2.240   7.122 -1.2091 -0.4977 -0.2542
  147DOPC  C21517527   3.018   2.369   6.999  0.3207 -0.0451  0.5428
  147DOPC  H15R17528   3.089   2.453   6.983 -2.0581  2.5654  2.4166
  147DOPC  H15S17529   2.923   2.427   7.007  0.7240  0.4391  2.1999
  147DOPC  C21617530   2.993   2.277   6.876  0.2515  0.6032 -0.6193
  147DOPC  H16R17531   2.946   2.184   6.915 -1.7701  1.8659  0.1080
  147DOPC  H16S17532   3.086   2.256   6.819  0.2883 -0.1390 -0.3014
  147DOPC  C21717533   2.893   2.327   6.771  0.1686  0.0224 -0.3029
  147DOPC  H17R17534   2.931   2.419   6.722  1.0301  0.8529  1.8285
  147DOPC  H17S17535   2.791   2.348   6.809  0.9751  0.4132  1.7797
  147DOPC  C21817536   2.890   2.219   6.662 -0.2112  0.4241 -0.7477
  147DOPC  H18R17537   2.837   2.250   6.570  2.0567 -2.0466 -3.0539
  147DOPC  H18S17538   2.851   2.122   6.700 -1.7385  1.6570  1.0197
  147DOPC  H18T17539   2.985   2.196   6.610 -0.4964 -1.8763 -0.3652
  147DOPC   C3317540   2.579   2.007   7.949  0.0496  0.1541 -0.3077
  147DOPC   H3X17541   2.512   2.082   7.901  0.6068  1.5104  0.9570
  147DOPC   H3Y17542   2.521   1.914   7.967 -1.8381  1.5108  1.1941
  147DOPC   C3417543   2.699   1.985   7.852  0.0048 -0.1747 -0.0335
  147DOPC   H4X17544   2.772   1.913   7.896 -0.9811 -1.7626 -0.9053
  147DOPC   H4Y17545   2.750   2.083   7.840  0.5587 -0.2878  1.1917
  147DOPC   C3517546   2.653   1.929   7.712  0.1252  0.1494  0.2694
  147DOPC   H5X17547   2.583   2.000   7.662  1.0855  0.8460 -0.1272
  147DOPC   H5Y17548   2.611   1.830   7.737  1.7475 -0.3734  1.0447
  147DOPC   C3617549   2.768   1.904   7.612  0.0138  0.5328  1.0068
  147DOPC   H6X17550   2.819   2.001   7.593  0.0646  0.0111 -1.9154
  147DOPC   H6Y17551   2.842   1.838   7.662  0.2064 -0.4167 -0.4696
  147DOPC   C3717552   2.725   1.833   7.483  0.6838  0.1619 -0.3703
  147DOPC   H7X17553   2.659   1.750   7.517 -1.4085  1.8875  0.0350
  147DOPC   H7Y17554   2.659   1.907   7.432 -0.7727 -0.2665  0.8353
  147DOPC   C3817555   2.841   1.794   7.398 -1.0991  0.1308 -0.1182
  147DOPC   H8X17556   2.809   1.712   7.331  0.8337 -0.0693 -0.8633
  147DOPC   H8Y17557   2.916   1.742   7.461  0.9891  2.0900 -0.8143
  147DOPC   C3917558   2.916   1.910   7.329 -0.4627  0.5080 -0.2352
  147DOPC   H9X17559   2.920   1.998   7.395 -0.8495  0.7046 -0.4644
  147DOPC  C31017560   2.959   1.925   7.201  0.7330 -0.2239 -0.2599
  147DOPC  H10X17561   3.002   2.023   7.177  1.8376 -0.0176  2.1986
  147DOPC  C31117562   2.948   1.820   7.093 -0.0672 -0.3907  0.1762
  147DOPC  H11X17563   2.858   1.756   7.103 -3.1355  3.7011  1.2972
  147DOPC  H11Y17564   3.038   1.756   7.103 -1.0996 -1.5436  3.3484
  147DOPC  C31217565   2.943   1.887   6.949  0.3302 -0.0848  0.4902
  147DOPC  H12X17566   3.041   1.938   6.934 -1.5309  3.7573  0.2290
  147DOPC  H12Y17567   2.859   1.957   6.930  0.1839 -0.8236 -1.9815
  147DOPC  C31317568   2.936   1.791   6.828  0.0565  0.1452  0.7073
  147DOPC  H13X17569   3.022   1.721   6.832 -0.0284 -0.0771 -0.7319
  147DOPC  H13Y17570   2.843   1.730   6.821 -0.0837  0.3795  0.5381
  147DOPC  C31417571   2.952   1.870   6.694  0.6695  1.0322  0.2583
  147DOPC  H14X17572   2.854   1.920   6.678  0.9154  1.4391  0.0036
  147DOPC  H14Y17573   3.036   1.943   6.694  1.7629 -0.1549  1.3994
  147DOPC  C31517574   2.968   1.753   6.585  0.1544  1.0130  0.8558
  147DOPC  H15X17575   2.875   1.694   6.599  0.7530 -0.4314 -0.8656
  147DOPC  H15Y17576   3.056   1.690   6.613 -1.8140 -2.3098  0.0927
  147DOPC  C31617577   2.965   1.808   6.442  0.1270 -0.0185  0.5384
  147DOPC  H16X17578   2.875   1.873   6.428  1.1221  1.2152 -0.3489
  147DOPC  H16Y17579   3.055   1.869   6.421 -0.7470  1.0691 -0.1868
  147DOPC  C31717580   2.951   1.683   6.344 -0.0013  0.0022 -0.4698
  147DOPC  H17X17581   3.022   1.698   6.261  1.4613 -0.1013  0.7154
  147DOPC  H17Y17582   2.987   1.592   6.397 -0.9440  0.6870  1.4627
  147DOPC  C31817583   2.812   1.660   6.280 -0.7174  0.3879 -0.1199
  147DOPC  H18X17584   2.826   1.580   6.203 -0.7155  1.6247 -1.4575
  147DOPC  H18Y17585   2.735   1.631   6.354 -0.1371  1.4676  0.9410
  147DOPC  H18Z17586   2.773   1.750   6.227  0.4728  0.8411 -0.2701
  148DOPC     N17587   2.802   1.310   9.162  0.4688 -0.3553  0.3041
  148DOPC   C1217588   2.750   1.245   9.037 -0.4890 -0.2692  0.0033
  148DOPC  H12A17589   2.648   1.281   9.031  0.0862  1.4221 -0.0946
  148DOPC  H12B17590   2.746   1.137   9.035  2.7033 -0.4673 -0.5908
  148DOPC   C1317591   2.702   1.283   9.271  0.0418  0.4698  1.0507
  148DOPC  H13A17592   2.747   1.321   9.361 -0.0318 -1.8028  2.1285
  148DOPC  H13B17593   2.605   1.330   9.259 -0.2222 -0.3808 -0.4166
  148DOPC  H13C17594   2.693   1.177   9.289  1.4410  0.4711  1.9150
  148DOPC   C1417595   2.802   1.464   9.139  0.1141  0.2578 -0.0918
  148DOPC  H14A17596   2.805   1.518   9.233  1.7784  3.1215 -1.6524
  148DOPC  H14B17597   2.888   1.481   9.076  1.6833  0.1962  1.9021
  148DOPC  H14C17598   2.718   1.494   9.078 -1.2322  1.4174  2.1886
  148DOPC   C1517599   2.938   1.272   9.214  0.1610  0.0607 -0.4319
  148DOPC  H15A17600   2.933   1.166   9.237  0.5624  0.1221 -0.0493
  148DOPC  H15B17601   2.969   1.326   9.303 -1.4708 -1.3735  1.1060
  148DOPC  H15C17602   3.004   1.275   9.129  1.0641 -0.9931  0.2131
  148DOPC   C1117603   2.814   1.293   8.908 -0.5492  0.3800  0.9115
  148DOPC  H11A17604   2.766   1.247   8.818  0.8625  0.8248 -0.1009
  148DOPC  H11B17605   2.797   1.402   8.897 -1.9327  0.4096  2.7454
  148DOPC     P17606   3.020   1.159   8.852  0.3711  0.1153  0.2645
  148DOPC   O1317607   2.960   1.031   8.899 -0.3109  0.3380 -0.1778
  148DOPC   O1417608   3.165   1.171   8.881  0.1065 -0.4061  0.3148
  148DOPC   O1217609   2.951   1.278   8.927  0.3661 -0.1174 -0.0416
  148DOPC   O1117610   3.005   1.175   8.701 -0.0478  0.1120 -0.7962
  148DOPC    C117611   3.026   1.295   8.635  0.4139 -0.3858  0.3021
  148DOPC    HA17612   3.035   1.391   8.689  1.7535 -0.8397  0.9302
  148DOPC    HB17613   2.937   1.310   8.570  1.9929  1.5763 -1.5570
  148DOPC    C217614   3.148   1.274   8.539 -0.4407 -0.3577  0.1605
  148DOPC    HS17615   3.246   1.301   8.584  0.3901 -1.2576 -1.0107
  148DOPC   O2117616   3.133   1.352   8.417  0.7486 -0.1684 -0.6830
  148DOPC   C2117617   3.159   1.479   8.438  0.0985  0.2567 -0.4775
  148DOPC   O2217618   3.185   1.531   8.545 -0.1412 -0.0115 -0.0257
  148DOPC   C2217619   3.159   1.550   8.308 -0.4253 -0.2064  0.0299
  148DOPC   H2R17620   3.238   1.628   8.300  1.2670 -1.8286  0.4061
  148DOPC   H2S17621   3.056   1.589   8.297 -0.2555  0.6832  1.3584
  148DOPC    C317622   3.159   1.128   8.498  0.0080 -0.1884 -0.1044
  148DOPC    HX17623   3.057   1.093   8.473 -0.2557 -1.7425  2.6957
  148DOPC    HY17624   3.191   1.070   8.588  0.1449  1.7903  1.1742
  148DOPC   O3117625   3.238   1.104   8.380  0.4913 -0.0188 -0.5622
  148DOPC   C3117626   3.367   1.127   8.401 -0.0324  0.2740  0.1507
  148DOPC   O3217627   3.414   1.128   8.508 -0.0389 -0.2949 -0.6602
  148DOPC   C3217628   3.449   1.118   8.271  0.5914  0.5100  0.6792
  148DOPC   H2X17629   3.422   1.021   8.226  1.4374 -0.5378  2.3236
  148DOPC   H2Y17630   3.428   1.204   8.203  2.3075 -0.4585 -1.1550
  148DOPC   C2317631   3.180   1.468   8.180  0.0503 -0.2352 -0.0356
  148DOPC   H3R17632   3.098   1.394   8.172  1.0444 -1.2680 -1.1249
  148DOPC   H3S17633   3.276   1.416   8.195 -0.3481 -1.0017 -0.1054
  148DOPC   C2417634   3.186   1.560   8.056  0.6177 -1.1455 -0.1925
  148DOPC   H4R17635   3.222   1.498   7.972  0.5309 -0.1605 -0.9781
  148DOPC   H4S17636   3.251   1.647   8.080 -0.9527  0.0210 -0.0001
  148DOPC   C2517637   3.042   1.615   8.035 -0.3129 -0.2042 -0.3101
  148DOPC   H5R17638   3.002   1.683   8.114 -0.3427 -0.2646 -0.2729
  148DOPC   H5S17639   2.974   1.528   8.025  1.6149 -1.7987 -0.1288
  148DOPC   C2617640   3.030   1.693   7.903 -0.5329  0.8001  0.2209
  148DOPC   H6R17641   2.923   1.714   7.881  0.0019  1.3564 -2.2216
  148DOPC   H6S17642   3.057   1.633   7.813 -0.1866 -0.6321  1.2521
  148DOPC   C2717643   3.093   1.828   7.918 -0.7762 -0.0090 -0.5952
  148DOPC   H7R17644   3.194   1.826   7.963 -0.0768  0.6377 -2.0780
  148DOPC   H7S17645   3.036   1.910   7.967 -0.1358  1.9093 -2.8672
  148DOPC   C2817646   3.113   1.896   7.777 -0.0595 -0.0943 -0.5026
  148DOPC   H8R17647   3.013   1.938   7.757 -1.2983 -2.1981  0.8768
  148DOPC   H8S17648   3.130   1.818   7.699 -2.0224 -0.8788 -0.1990
  148DOPC   C2917649   3.215   2.009   7.765 -0.1408 -0.7028  0.3336
  148DOPC   H9R17650   3.181   2.104   7.809  0.7776 -1.0245  1.8237
  148DOPC  C21017651   3.331   2.016   7.690 -0.3168  0.1729 -0.3496
  148DOPC  H10R17652   3.384   2.113   7.685  0.1841 -0.1366 -1.2520
  148DOPC  C21117653   3.399   1.916   7.602  0.4113 -0.4320  0.0122
  148DOPC  H11R17654   3.338   1.824   7.598  0.4108 -0.4472  0.3983
  148DOPC  H11S17655   3.500   1.880   7.632  0.8710  0.2827 -0.6111
  148DOPC  C21217656   3.417   1.982   7.461 -0.1388  0.8432 -0.6942
  148DOPC  H12R17657   3.487   2.068   7.457 -0.3550  0.9786 -3.3444
  148DOPC  H12S17658   3.323   2.019   7.415  0.1575  1.2394 -0.9938
  148DOPC  C21317659   3.488   1.879   7.362  0.4481 -0.2253 -0.1598
  148DOPC  H13R17660   3.431   1.784   7.369  1.6225 -0.9943 -0.7124
  148DOPC  H13S17661   3.587   1.861   7.411  0.0458 -0.6955  0.5007
  148DOPC  C21417662   3.508   1.941   7.225 -0.0767  0.6215  0.1578
  148DOPC  H14R17663   3.567   1.868   7.166  0.3419  2.0877 -1.3104
  148DOPC  H14S17664   3.565   2.034   7.247  0.5854  0.4101 -0.6065
  148DOPC  C21517665   3.374   1.976   7.148 -1.1432  0.7596 -0.1270
  148DOPC  H15R17666   3.314   2.043   7.213 -0.4181  0.5460  0.7753
  148DOPC  H15S17667   3.325   1.878   7.127 -0.2574 -0.2315  2.1539
  148DOPC  C21617668   3.419   2.043   7.020  0.1696  0.4351  0.4341
  148DOPC  H16R17669   3.500   1.986   6.970 -0.6839 -0.7909  0.4160
  148DOPC  H16S17670   3.460   2.145   7.035  0.8007  0.3938 -0.8557
  148DOPC  C21717671   3.305   2.057   6.910 -0.2133  0.2968 -0.4416
  148DOPC  H17R17672   3.212   2.106   6.947 -0.0589  0.1599  0.1417
  148DOPC  H17S17673   3.269   1.955   6.886  1.4685 -0.2527 -0.7405
  148DOPC  C21817674   3.342   2.141   6.792 -0.4947  0.0578 -1.0347
  148DOPC  H18R17675   3.280   2.115   6.703 -0.3630 -0.6202 -0.9314
  148DOPC  H18S17676   3.444   2.120   6.752  0.7799  1.2444  1.4242
  148DOPC  H18T17677   3.333   2.251   6.799  2.1031  0.4999 -2.9018
  148DOPC   C3317678   3.604   1.122   8.293  0.0094  0.0865  0.2930
  148DOPC   H3X17679   3.631   1.050   8.374 -1.6476  0.4650  1.2173
  148DOPC   H3Y17680   3.623   1.227   8.325 -0.8397  0.5543 -0.6969
  148DOPC   C3417681   3.680   1.094   8.162 -0.5951  0.0440  0.1044
  148DOPC   H4X17682   3.659   0.986   8.142  1.4750 -0.1404 -1.4676
  148DOPC   H4Y17683   3.788   1.109   8.184 -0.3610  0.0653 -0.9664
  148DOPC   C3517684   3.630   1.175   8.038  0.7490  0.1967 -0.2793
  148DOPC   H5X17685   3.520   1.161   8.028  1.0392 -1.4315 -1.5657
  148DOPC   H5Y17686   3.664   1.128   7.944 -1.1812 -2.0194  0.0338
  148DOPC   C3617687   3.662   1.320   8.058 -0.5109 -0.7801 -0.6773
  148DOPC   H6X17688   3.620   1.353   8.156  1.6031 -0.8394  0.3006
  148DOPC   H6Y17689   3.772   1.332   8.056 -0.4197 -1.3409  0.2423
  148DOPC   C3717690   3.587   1.410   7.958 -0.0104  0.1371 -0.1418
  148DOPC   H7X17691   3.478   1.389   7.954  0.0612 -0.5144  0.9452
  148DOPC   H7Y17692   3.603   1.513   7.996  1.4388  0.1628 -0.7794
  148DOPC   C3817693   3.642   1.409   7.812  0.9544 -0.2626 -0.1976
  148DOPC   H8X17694   3.595   1.322   7.762 -1.0947  0.1712  0.8646
  148DOPC   H8Y17695   3.750   1.389   7.832  0.2676 -0.9353  3.6757
  148DOPC   C3917696   3.598   1.534   7.742 -0.5390 -0.8240 -0.1592
  148DOPC   H9X17697   3.493   1.564   7.757 -0.5958 -1.3201  0.4681
  148DOPC  C31017698   3.674   1.619   7.669 -0.0126  0.7404 -0.1444
  148DOPC  H10X17699   3.622   1.697   7.613 -0.1516  1.5740  1.1026
  148DOPC  C31117700   3.827   1.615   7.639  0.2135  0.1741  0.0182
  148DOPC  H11X17701   3.870   1.513   7.648  4.5430  1.7958 -0.1162
  148DOPC  H11Y17702   3.877   1.672   7.720 -0.4263  0.7221  0.0441
  148DOPC  C31217703   3.869   1.674   7.506 -0.4089  0.6855  0.1632
  148DOPC  H12X17704   3.979   1.674   7.498 -0.3394  1.0230  0.9760
  148DOPC  H12Y17705   3.840   1.782   7.507  1.1332  1.1132  0.5884
  148DOPC  C31317706   3.813   1.610   7.378  0.2725  0.8518 -0.1951
  148DOPC  H13X17707   3.826   1.500   7.384 -2.4213  0.5128  1.0465
  148DOPC  H13Y17708   3.703   1.620   7.365 -0.0160 -2.7678 -1.5572
  148DOPC  C31417709   3.892   1.669   7.257 -0.0013 -0.4258 -0.3869
  148DOPC  H14X17710   3.902   1.779   7.271 -0.6935 -0.7014  3.1551
  148DOPC  H14Y17711   3.993   1.622   7.262  0.1557 -0.7971 -4.1709
  148DOPC  C31517712   3.831   1.637   7.122 -0.3466 -1.0307  0.4255
  148DOPC  H15X17713   3.732   1.681   7.096  0.6340  1.1866  0.1304
  148DOPC  H15Y17714   3.829   1.527   7.107 -0.1684 -0.8935 -0.7200
  148DOPC  C31617715   3.926   1.681   7.006 -0.4027  0.5568  0.5244
  148DOPC  H16X17716   3.946   1.791   7.007  0.2492  0.4500  1.6731
  148DOPC  H16Y17717   4.019   1.624   7.022 -1.0068 -0.3083  1.0205
  148DOPC  C31717718   3.858   1.641   6.870 -0.2033 -0.2457  0.2574
  148DOPC  H17X17719   3.942   1.584   6.824  1.8452  0.5047  2.8364
  148DOPC  H17Y17720   3.773   1.570   6.885 -0.7990 -0.2833 -2.6547
  148DOPC  C31817721   3.827   1.762   6.796  0.4285 -0.1327  0.2390
  148DOPC  H18X17722   3.751   1.816   6.857  1.0029  1.7557 -0.6575
  148DOPC  H18Y17723   3.914   1.830   6.787  1.0057 -0.3702  3.0068
  148DOPC  H18Z17724   3.789   1.737   6.695  0.1808 -0.1323  0.3306
  149DOPC     N17725   3.059   4.975   9.154 -0.7711 -0.6878 -0.4915
  149DOPC   C1217726   3.087   4.890   9.279 -0.8051  0.6481 -0.2831
  149DOPC  H12A17727   3.034   4.932   9.363  0.3411  0.2207  0.6910
  149DOPC  H12B17728   3.187   4.909   9.316 -0.2746 -2.2574 -0.0115
  149DOPC   C1317729   3.096   5.124   9.191 -0.0538  0.5145  0.2085
  149DOPC  H13A17730   3.204   5.131   9.200 -0.0110 -0.2976  0.3994
  149DOPC  H13B17731   3.052   5.188   9.116  0.6128  0.3762 -0.3148
  149DOPC  H13C17732   3.059   5.149   9.289  1.6788  0.3960  0.9365
  149DOPC   C1417733   2.920   4.971   9.124 -0.0230  0.1313  0.0674
  149DOPC  H14A17734   2.894   4.870   9.094  0.4835  0.0673 -0.1699
  149DOPC  H14B17735   2.871   4.987   9.219  1.8066 -0.9197  1.2527
  149DOPC  H14C17736   2.890   5.044   9.051  2.6617  0.1502 -1.1422
  149DOPC   C1517737   3.139   4.940   9.036  0.4892  0.4010  0.4884
  149DOPC  H15A17738   3.244   4.963   9.052  0.4662  0.8066  0.0764
  149DOPC  H15B17739   3.116   4.986   8.942 -0.2809  0.0734  0.5151
  149DOPC  H15C17740   3.128   4.833   9.026 -1.9164  0.6352  0.0003
  149DOPC   C1117741   3.077   4.739   9.277  0.8315  0.0015  0.7365
  149DOPC  H11A17742   3.085   4.702   9.381 -2.4114  2.3646  2.0005
  149DOPC  H11B17743   2.975   4.722   9.238  0.4834  0.8956  1.2250
  149DOPC     P17744   3.314   4.669   9.246  0.1612 -0.3880 -0.0855
  149DOPC   O1317745   3.318   4.558   9.343  0.5410 -0.0076  0.2955
  149DOPC   O1417746   3.355   4.808   9.296 -0.2876 -0.2649 -0.4138
  149DOPC   O1217747   3.164   4.679   9.185  0.3325  0.3564 -0.0360
  149DOPC   O1117748   3.409   4.628   9.123  0.4276  0.4713 -0.0518
  149DOPC    C117749   3.461   4.730   9.041 -0.3187  0.3737  0.2260
  149DOPC    HA17750   3.515   4.806   9.101 -0.1232  1.0789 -0.8069
  149DOPC    HB17751   3.380   4.786   8.989  0.9647  1.0839 -1.0914
  149DOPC    C217752   3.543   4.682   8.922 -0.1547 -0.4582 -0.1837
  149DOPC    HS17753   3.575   4.782   8.887  0.1562 -0.1044  1.0667
  149DOPC   O2117754   3.475   4.600   8.827 -0.0108 -0.7456  0.1250
  149DOPC   C2117755   3.391   4.667   8.746  0.3919 -0.6819  0.2465
  149DOPC   O2217756   3.369   4.785   8.737 -0.3669  0.9240 -0.2935
  149DOPC   C2217757   3.326   4.577   8.642 -0.4801 -0.2364 -0.1140
  149DOPC   H2R17758   3.219   4.582   8.672 -0.3940 -1.5353  0.4714
  149DOPC   H2S17759   3.354   4.470   8.650  0.1366 -0.1019 -0.4113
  149DOPC    C317760   3.680   4.614   8.970  0.4248  0.2556 -0.5104
  149DOPC    HX17761   3.658   4.507   8.991  0.6270  0.2740 -0.1805
  149DOPC    HY17762   3.702   4.667   9.065  3.4797  1.1889 -1.6067
  149DOPC   O3117763   3.786   4.641   8.880  0.0362  0.0372  0.2933
  149DOPC   C3117764   3.832   4.537   8.814 -0.1142 -0.1037 -0.0985
  149DOPC   O3217765   3.794   4.427   8.828  0.1176  0.5503 -0.1450
  149DOPC   C3217766   3.939   4.585   8.716 -0.4488  0.1861 -0.3292
  149DOPC   H2X17767   3.894   4.665   8.654 -0.8615  0.4848  0.3481
  149DOPC   H2Y17768   4.027   4.630   8.767  0.8040 -0.7413 -1.5853
  149DOPC   C2317769   3.353   4.613   8.497  0.0058 -0.1021 -0.2750
  149DOPC   H3R17770   3.324   4.720   8.491 -1.1845 -0.3840  0.2017
  149DOPC   H3S17771   3.299   4.545   8.427  1.4304  0.7968 -2.3431
  149DOPC   C2417772   3.498   4.594   8.464 -0.2827  0.0867  0.0338
  149DOPC   H4R17773   3.517   4.484   8.472 -0.3114  0.1522  1.1268
  149DOPC   H4S17774   3.560   4.662   8.526 -0.6230 -0.3030  0.8168
  149DOPC   C2517775   3.540   4.642   8.325  0.3101 -0.6754  0.2464
  149DOPC   H5R17776   3.537   4.752   8.313 -0.5207 -0.7851 -0.7799
  149DOPC   H5S17777   3.470   4.594   8.253  1.0415 -1.1822 -0.1413
  149DOPC   C2617778   3.673   4.588   8.276 -0.5098  0.4839  0.7847
  149DOPC   H6R17779   3.669   4.477   8.289  1.9909  0.0676 -1.3351
  149DOPC   H6S17780   3.757   4.635   8.331 -1.9567  3.8264  0.3454
  149DOPC   C2717781   3.680   4.622   8.123 -0.0593  0.7811 -0.5715
  149DOPC   H7R17782   3.732   4.719   8.108  1.4576  0.1336  0.2510
  149DOPC   H7S17783   3.579   4.624   8.079  0.3580 -0.8609 -1.6738
  149DOPC   C2817784   3.758   4.516   8.043 -0.9605  0.7862  1.1460
  149DOPC   H8R17785   3.738   4.539   7.936  2.9178 -0.2394  0.0381
  149DOPC   H8S17786   3.712   4.418   8.065 -1.4876  0.1630 -2.1576
  149DOPC   C2917787   3.910   4.503   8.056  0.0408 -0.3972  0.2892
  149DOPC   H9R17788   3.953   4.554   8.143 -1.3886  0.9710  0.2466
  149DOPC  C21017789   3.992   4.447   7.968  0.3722  0.1839 -0.7122
  149DOPC  H10R17790   4.098   4.466   7.991 -0.1453  0.5496  1.7281
  149DOPC  C21117791   3.961   4.370   7.842 -0.3347  0.7230  0.3981
  149DOPC  H11R17792   3.852   4.364   7.822 -0.0400 -1.2170 -0.9437
  149DOPC  H11S17793   4.001   4.267   7.860 -2.1135  0.0031  0.4181
  149DOPC  C21217794   4.024   4.422   7.711  0.0003  0.4514  0.3027
  149DOPC  H12R17795   4.135   4.420   7.715  0.0832 -1.4539 -1.1133
  149DOPC  H12S17796   3.983   4.525   7.701  0.1504  0.5441  0.6447
  149DOPC  C21317797   3.989   4.340   7.580  0.1487 -0.6146 -0.7006
  149DOPC  H13R17798   3.881   4.358   7.559 -0.1153 -1.4046 -0.0868
  149DOPC  H13S17799   4.010   4.234   7.605  2.4388 -0.0955 -0.2067
  149DOPC  C21417800   4.068   4.380   7.460 -0.8699  0.0404  0.1860
  149DOPC  H14R17801   4.166   4.327   7.457  0.1882  1.9395 -0.6390
  149DOPC  H14S17802   4.090   4.489   7.456  0.5064 -0.1373  1.8033
  149DOPC  C21517803   4.013   4.335   7.321  0.0562 -0.5096 -0.0552
  149DOPC  H15R17804   4.005   4.224   7.314 -0.9485 -0.3807 -1.5226
  149DOPC  H15S17805   4.091   4.372   7.252  0.8874 -0.3897  0.9250
  149DOPC  C21617806   3.875   4.401   7.282 -0.5993 -0.3253 -0.2429
  149DOPC  H16R17807   3.873   4.503   7.326  1.7750 -0.1491 -0.4317
  149DOPC  H16S17808   3.793   4.345   7.332 -0.6632  1.4378  1.7442
  149DOPC  C21717809   3.856   4.403   7.130  0.4026  0.6322 -0.3703
  149DOPC  H17R17810   3.866   4.300   7.087  0.5237 -0.4092  2.0077
  149DOPC  H17S17811   3.942   4.464   7.094  0.1974  1.0705 -0.1214
  149DOPC  C21817812   3.719   4.466   7.092 -0.4977  0.3139 -0.5995
  149DOPC  H18R17813   3.634   4.400   7.122  1.3515 -0.8016  2.6581
  149DOPC  H18S17814   3.702   4.486   6.984 -2.8676 -1.3484 -0.6262
  149DOPC  H18T17815   3.710   4.551   7.163 -1.9438 -0.0093 -0.3600
  149DOPC   C3317816   4.002   4.473   8.626 -0.0003 -0.3381 -0.2140
  149DOPC   H3X17817   4.034   4.390   8.693  0.3756 -0.9022 -1.0748
  149DOPC   H3Y17818   4.091   4.505   8.567 -0.0352 -0.9022 -0.5784
  149DOPC   C3417819   3.903   4.408   8.520  0.1255 -0.1758 -0.4530
  149DOPC   H4X17820   3.878   4.493   8.452  1.9145  0.5216 -0.3140
  149DOPC   H4Y17821   3.813   4.377   8.576  0.1242 -0.4239 -0.5945
  149DOPC   C3517822   3.952   4.283   8.446  0.2092  0.2097 -0.6676
  149DOPC   H5X17823   3.966   4.198   8.517  0.8740  1.3737  0.6350
  149DOPC   H5Y17824   4.045   4.296   8.386  0.6739  0.2279  0.0465
  149DOPC   C3617825   3.835   4.245   8.353 -0.5059  0.0378 -0.0887
  149DOPC   H6X17826   3.745   4.219   8.412  0.5713  0.5954  1.9001
  149DOPC   H6Y17827   3.803   4.327   8.286 -1.7999 -0.9099 -0.6777
  149DOPC   C3717828   3.884   4.118   8.279 -0.6562  0.2886 -0.1756
  149DOPC   H7X17829   3.943   4.147   8.189  2.0519 -3.4822  0.1596
  149DOPC   H7Y17830   3.945   4.048   8.341 -1.2309 -0.5868 -0.5763
  149DOPC   C3817831   3.763   4.037   8.232  0.1559 -0.2607  0.0650
  149DOPC   H8X17832   3.722   4.089   8.142  1.4103 -0.5351 -0.6967
  149DOPC   H8Y17833   3.677   4.034   8.302  0.5447 -1.6090  0.5105
  149DOPC   C3917834   3.796   3.891   8.203 -0.0133  0.2542  0.5193
  149DOPC   H9X17835   3.843   3.835   8.286 -1.3409 -0.4100  0.8432
  149DOPC  C31017836   3.770   3.815   8.095 -0.1152 -0.2088 -0.1239
  149DOPC  H10X17837   3.779   3.705   8.104  0.6043 -0.2912 -1.5195
  149DOPC  C31117838   3.716   3.868   7.963  0.6300 -0.3542 -0.4102
  149DOPC  H11X17839   3.673   3.969   7.982 -1.4622 -1.3787  0.6541
  149DOPC  H11Y17840   3.634   3.802   7.929 -0.6416  0.1743  1.4833
  149DOPC  C31217841   3.829   3.881   7.860  0.4937 -0.9245  0.0291
  149DOPC  H12X17842   3.871   3.778   7.855 -3.4580 -2.6435 -1.7353
  149DOPC  H12Y17843   3.897   3.953   7.911 -0.2833 -1.2957  1.6696
  149DOPC  C31317844   3.782   3.937   7.722 -0.3127 -0.0697  0.1869
  149DOPC  H13X17845   3.705   3.863   7.690 -0.6638  0.0239  0.8225
  149DOPC  H13Y17846   3.721   4.029   7.731 -2.2337 -1.4067  1.7577
  149DOPC  C31417847   3.885   3.942   7.608  0.3061 -0.1429  0.6716
  149DOPC  H14X17848   3.951   4.030   7.624  0.4336  0.1215 -1.1227
  149DOPC  H14Y17849   3.950   3.854   7.629  0.6139  0.4899  2.5886
  149DOPC  C31517850   3.833   3.941   7.466  0.3773  0.4109 -0.5908
  149DOPC  H15X17851   3.776   4.036   7.458 -0.1125  0.2243  0.4659
  149DOPC  H15Y17852   3.756   3.861   7.458  1.4380 -0.7312  0.3012
  149DOPC  C31617853   3.950   3.923   7.367  0.1413 -0.2908 -0.2418
  149DOPC  H16X17854   4.018   4.009   7.383  0.0045  0.0123 -1.2616
  149DOPC  H16Y17855   3.997   3.824   7.385  0.5113  0.4645  3.9024
  149DOPC  C31717856   3.894   3.933   7.225 -0.0844  0.2596  0.0226
  149DOPC  H17X17857   3.822   3.850   7.208 -1.6297  1.0462  2.2746
  149DOPC  H17Y17858   3.834   4.026   7.217 -1.1607 -0.3150  1.0903
  149DOPC  C31817859   4.003   3.927   7.115  0.3980  0.2608 -0.3236
  149DOPC  H18X17860   3.954   3.947   7.017 -0.0879 -0.3678 -0.2180
  149DOPC  H18Y17861   4.081   4.004   7.131 -0.2747  0.6164  1.4933
  149DOPC  H18Z17862   4.047   3.825   7.114  1.1078  0.5025  1.6076
  150DOPC     N17863   0.044   6.070   8.793  0.3390  0.4528 -0.6445
  150DOPC   C1217864  -0.081   6.055   8.883 -0.0717  0.3181 -0.2086
  150DOPC  H12A17865  -0.130   6.152   8.882  1.6901  1.2536 -0.3091
  150DOPC  H12B17866  -0.056   6.036   8.986 -2.6400 -0.0206  0.4148
  150DOPC   C1317867   0.147   6.164   8.855  0.0286  0.3274  0.6688
  150DOPC  H13A17868   0.236   6.171   8.795  0.7173 -0.2793  1.5948
  150DOPC  H13B17869   0.105   6.263   8.859 -0.6077  0.0364  1.4159
  150DOPC  H13C17870   0.170   6.130   8.955 -2.0780  0.7349  1.3375
  150DOPC   C1417871   0.012   6.114   8.657  0.5935 -0.4150  0.2527
  150DOPC  H14A17872  -0.048   6.204   8.660 -2.3041 -2.1894 -0.3619
  150DOPC  H14B17873   0.099   6.120   8.594 -1.5721  2.1252 -2.8068
  150DOPC  H14C17874  -0.047   6.034   8.615 -3.0714  1.8810  0.6032
  150DOPC   C1517875   0.103   5.925   8.778 -0.1287 -0.2020  0.1818
  150DOPC  H15A17876   0.027   5.861   8.736 -0.0720 -0.0811 -0.1100
  150DOPC  H15B17877   0.134   5.891   8.876  1.5065  0.2682 -0.1463
  150DOPC  H15C17878   0.188   5.924   8.711 -0.5500 -1.6545 -0.3548
  150DOPC   C1117879  -0.198   5.957   8.853  0.2784  0.1174  0.2507
  150DOPC  H11A17880  -0.155   5.855   8.848  1.2484  0.5311  0.0843
  150DOPC  H11B17881  -0.270   5.961   8.938 -0.1057  0.0570 -0.0688
  150DOPC     P17882  -0.348   5.890   8.656  0.3676  0.4389  0.2116
  150DOPC   O1317883  -0.478   5.874   8.730  0.3410 -0.3587 -0.3244
  150DOPC   O1417884  -0.265   5.768   8.630  0.1428 -0.3269  0.0218
  150DOPC   O1217885  -0.264   5.997   8.731 -0.1526  0.1306 -0.4660
  150DOPC   O1117886  -0.378   5.969   8.521 -0.0042  0.4256 -0.5916
  150DOPC    C117887  -0.462   5.900   8.425 -0.0240 -0.4173  0.2432
  150DOPC    HA17888  -0.531   5.969   8.373  1.4633 -0.4095 -1.8774
  150DOPC    HB17889  -0.513   5.809   8.464 -0.5861  0.0450  0.5916
  150DOPC    C217890  -0.364   5.856   8.306 -0.1462  1.0209 -0.2143
  150DOPC    HS17891  -0.277   5.798   8.343 -0.2431  0.4462 -0.8577
  150DOPC   O2117892  -0.327   5.965   8.222  0.0954  0.3652  0.0450
  150DOPC   C2117893  -0.198   5.957   8.180  0.0462 -0.4719 -0.3272
  150DOPC   O2217894  -0.108   5.889   8.227 -0.3574  0.1232  0.6407
  150DOPC   C2217895  -0.177   6.052   8.068  0.4730 -0.5993  0.3455
  150DOPC   H2R17896  -0.237   6.144   8.080 -1.8924 -2.1604  1.2887
  150DOPC   H2S17897  -0.225   6.005   7.980 -3.3508  1.4203  1.1215
  150DOPC    C317898  -0.432   5.740   8.225 -0.3657  0.1278 -0.0575
  150DOPC    HX17899  -0.521   5.783   8.174  1.2698  1.5028 -1.9278
  150DOPC    HY17900  -0.467   5.663   8.297 -0.6277 -0.6373 -0.9837
  150DOPC   O3117901  -0.336   5.693   8.123  0.5347 -0.5784  0.1924
  150DOPC   C3117902  -0.266   5.588   8.147  0.2725  0.1784 -0.4735
  150DOPC   O3217903  -0.281   5.503   8.234 -0.0687 -0.6567  0.3663
  150DOPC   C3217904  -0.154   5.597   8.047  0.7733 -0.3171 -0.1339
  150DOPC   H2X17905  -0.089   5.681   8.078  0.4416 -0.7951  2.0060
  150DOPC   H2Y17906  -0.100   5.500   8.044 -1.9688 -2.1829  3.4558
  150DOPC   C2317907  -0.027   6.082   8.034 -0.7123 -0.4215 -0.6432
  150DOPC   H3R17908   0.026   5.985   8.033 -0.4506 -0.2794 -1.4522
  150DOPC   H3S17909   0.008   6.149   8.116 -2.0142 -0.0634 -0.3512
  150DOPC   C2417910  -0.007   6.160   7.901 -0.5756  0.0736  0.1251
  150DOPC   H4R17911   0.095   6.205   7.897 -0.9368  0.8513 -0.7602
  150DOPC   H4S17912  -0.063   6.255   7.890  0.4694  0.6370 -0.4750
  150DOPC   C2517913  -0.006   6.069   7.775 -0.2379 -0.0882  1.1192
  150DOPC   H5R17914  -0.105   6.020   7.764  0.4076 -1.1664 -0.2666
  150DOPC   H5S17915   0.062   5.983   7.791 -1.1141 -1.7359 -2.7405
  150DOPC   C2617916   0.044   6.137   7.649  0.0444 -0.3960 -0.4770
  150DOPC   H6R17917   0.126   6.209   7.669  2.4955 -3.2389  0.5303
  150DOPC   H6S17918  -0.038   6.199   7.609  0.5943 -0.0284 -1.0507
  150DOPC   C2717919   0.079   6.034   7.544 -0.3811  0.2905 -0.9667
  150DOPC   H7R17920  -0.006   5.966   7.522 -0.0988 -0.5700  0.4989
  150DOPC   H7S17921   0.162   5.975   7.586 -0.4131  1.4159  0.7786
  150DOPC   C2817922   0.122   6.107   7.409 -0.4144  0.5841 -1.1060
  150DOPC   H8R17923   0.204   6.044   7.367 -0.7354 -2.0194  1.7905
  150DOPC   H8S17924   0.164   6.204   7.443 -1.3883  1.1635 -1.5112
  150DOPC   C2917925   0.011   6.118   7.304 -0.4942 -0.0094  0.0510
  150DOPC   H9R17926  -0.088   6.134   7.349 -1.1603 -0.5279 -1.1610
  150DOPC  C21017927   0.022   6.096   7.173 -0.5762 -0.1713 -0.3489
  150DOPC  H10R17928  -0.067   6.113   7.111 -0.3027  1.7118 -0.2618
  150DOPC  C21117929   0.152   6.069   7.096  0.0055 -0.3511  0.3423
  150DOPC  H11R17930   0.177   5.961   7.102  1.6622 -0.0923 -1.1156
  150DOPC  H11S17931   0.238   6.126   7.136 -0.1025 -0.3347  0.5544
  150DOPC  C21217932   0.135   6.102   6.944 -0.6910  0.3786  0.4916
  150DOPC  H12R17933   0.090   6.202   6.924 -3.6566 -0.4351  2.4461
  150DOPC  H12S17934   0.049   6.040   6.913 -2.2173  0.6035  3.8212
  150DOPC  C21317935   0.249   6.076   6.841  0.3765 -0.2052 -0.1539
  150DOPC  H13R17936   0.204   6.050   6.743 -1.2591  0.0067  0.4991
  150DOPC  H13S17937   0.295   5.978   6.864 -3.4664 -1.9250  1.1134
  150DOPC  C21417938   0.350   6.192   6.834 -0.0128 -0.1462  0.4789
  150DOPC  H14R17939   0.370   6.213   6.941 -1.2162 -0.8879  0.8730
  150DOPC  H14S17940   0.293   6.283   6.804  1.3117  0.0439 -1.6663
  150DOPC  C21517941   0.459   6.164   6.738 -0.5439 -0.2915  1.1129
  150DOPC  H15R17942   0.519   6.079   6.776 -1.3841 -1.8337 -0.8710
  150DOPC  H15S17943   0.523   6.254   6.727 -2.4532  0.8832 -1.4513
  150DOPC  C21617944   0.403   6.128   6.597 -0.0252 -0.3605  0.3809
  150DOPC  H16R17945   0.315   6.190   6.571  1.7021  2.0304 -0.0855
  150DOPC  H16S17946   0.369   6.022   6.597 -2.8112  0.4404  1.4292
  150DOPC  C21717947   0.511   6.142   6.495 -0.1905 -0.0944 -0.3685
  150DOPC  H17R17948   0.563   6.239   6.500 -1.7816  0.7526  0.6068
  150DOPC  H17S17949   0.447   6.154   6.404  0.9438 -0.8378 -1.2984
  150DOPC  C21817950   0.608   6.026   6.482 -0.2364  0.1600 -0.0251
  150DOPC  H18R17951   0.670   6.009   6.572  2.9617 -1.0103 -2.2450
  150DOPC  H18S17952   0.685   6.047   6.405 -1.1534 -0.4355 -1.1501
  150DOPC  H18T17953   0.548   5.934   6.463  2.0819 -0.8377 -3.4595
  150DOPC   C3317954  -0.204   5.628   7.905 -0.1315  0.3304 -0.2648
  150DOPC   H3X17955  -0.276   5.712   7.908 -0.2177  0.2197  1.3173
  150DOPC   H3Y17956  -0.267   5.540   7.877 -1.1531  0.6558  0.9601
  150DOPC   C3417957  -0.094   5.632   7.801  0.2649 -0.2106 -0.5893
  150DOPC   H4X17958  -0.002   5.680   7.841 -0.5729  0.0476  1.1285
  150DOPC   H4Y17959  -0.117   5.702   7.718 -2.4956 -0.0546  0.2078
  150DOPC   C3517960  -0.070   5.504   7.719 -0.5026 -0.2890 -0.4717
  150DOPC   H5X17961  -0.165   5.482   7.666 -0.5111 -0.5156 -0.3655
  150DOPC   H5Y17962  -0.054   5.417   7.787 -2.2488 -0.8926 -0.7658
  150DOPC   C3617963   0.056   5.522   7.626  0.0389 -0.6000 -0.0942
  150DOPC   H6X17964   0.132   5.573   7.690 -1.9032  3.5791 -0.7763
  150DOPC   H6Y17965   0.088   5.418   7.604  1.9930 -0.7456  2.8190
  150DOPC   C3717966   0.023   5.614   7.501  0.5408 -0.1609  0.1178
  150DOPC   H7X17967  -0.067   5.570   7.453  2.1403 -1.7571 -1.5862
  150DOPC   H7Y17968   0.001   5.719   7.530  0.2329 -0.2228  0.1031
  150DOPC   C3817969   0.132   5.617   7.391  0.1334 -0.0095  0.5582
  150DOPC   H8X17970   0.141   5.513   7.351  2.2071 -0.2995  1.6354
  150DOPC   H8Y17971   0.229   5.646   7.437  0.8210  0.6733 -1.1899
  150DOPC   C3917972   0.084   5.720   7.294  0.2463 -0.7065  0.7261
  150DOPC   H9X17973   0.106   5.823   7.325  1.7672  0.0141 -2.3073
  150DOPC  C31017974   0.034   5.704   7.173  0.0419 -0.2587  0.1939
  150DOPC  H10X17975   0.014   5.794   7.114  0.1645  0.6165  1.4504
  150DOPC  C31117976   0.003   5.580   7.091 -0.2484 -0.4705  0.4057
  150DOPC  H11X17977  -0.092   5.598   7.035  0.3241  0.8274 -0.1972
  150DOPC  H11Y17978  -0.007   5.487   7.151 -0.1090 -0.2044  0.8383
  150DOPC  C31217979   0.116   5.559   6.989 -0.1922 -0.1793 -0.0761
  150DOPC  H12X17980   0.088   5.470   6.929 -0.1768  0.4623 -1.0472
  150DOPC  H12Y17981   0.195   5.524   7.059 -1.2979 -0.9441  0.8359
  150DOPC  C31317982   0.138   5.676   6.892  0.1718  0.2292  0.0415
  150DOPC  H13X17983   0.037   5.710   6.861 -0.0511  1.2308  1.7264
  150DOPC  H13Y17984   0.186   5.758   6.949 -0.8760 -1.1578  3.1314
  150DOPC  C31417985   0.212   5.626   6.764 -0.6367  0.3068  0.0616
  150DOPC  H14X17986   0.298   5.566   6.799  0.1409  0.6422 -1.2299
  150DOPC  H14Y17987   0.163   5.548   6.700  2.4267 -1.0546 -0.8048
  150DOPC  C31517988   0.265   5.727   6.655 -0.4989 -0.5165 -0.0840
  150DOPC  H15X17989   0.337   5.796   6.703 -1.7681  0.6990  0.1341
  150DOPC  H15Y17990   0.177   5.788   6.626  0.0108  0.2144 -0.1226
  150DOPC  C31617991   0.335   5.670   6.529 -0.2357  0.3891  0.1031
  150DOPC  H16X17992   0.365   5.760   6.471  1.7009  0.5305  1.2564
  150DOPC  H16Y17993   0.421   5.607   6.560 -0.3766  0.2634  0.2444
  150DOPC  C31717994   0.237   5.588   6.432 -0.2983  0.2686  0.1945
  150DOPC  H17X17995   0.226   5.492   6.487  1.1935 -1.3064 -2.0826
  150DOPC  H17Y17996   0.144   5.649   6.435 -0.3773  0.5523 -3.4323
  150DOPC  C31817997   0.271   5.562   6.283 -0.6384  0.1312 -0.5967
  150DOPC  H18X17998   0.198   5.490   6.240 -1.0932 -0.7714  1.5428
  150DOPC  H18Y17999   0.263   5.658   6.228 -1.1899  2.6313  3.3900
  150DOPC  H18Z18000   0.370   5.513   6.273 -2.1682 -3.2800 -0.2360
  151DOPC     N18001   0.011   0.628   8.563  0.4086  0.2976 -0.5342
  151DOPC   C1218002  -0.050   0.486   8.553  0.1261 -0.9029 -0.3544
  151DOPC  H12A18003  -0.130   0.498   8.482  1.8381 -0.5477 -2.3434
  151DOPC  H12B18004  -0.092   0.465   8.650  2.0566  0.1972  0.7733
  151DOPC   C1318005  -0.101   0.721   8.597 -0.1930  0.5442 -0.0565
  151DOPC  H13A18006  -0.067   0.822   8.581  3.1452 -0.3875  0.3545
  151DOPC  H13B18007  -0.185   0.692   8.536  0.0449 -2.1090  0.7353
  151DOPC  H13C18008  -0.129   0.712   8.701  1.0841  1.2268  0.3649
  151DOPC   C1418009   0.071   0.672   8.439 -0.4811 -0.7191  0.1381
  151DOPC  H14A18010   0.147   0.602   8.407  2.2721  2.1626 -0.1733
  151DOPC  H14B18011  -0.000   0.676   8.358 -1.0764  0.4358  0.6896
  151DOPC  H14C18012   0.109   0.773   8.449 -1.6802 -0.3047  0.7038
  151DOPC   C1518013   0.113   0.626   8.670  1.0095 -0.4835 -0.1250
  151DOPC  H15A18014   0.064   0.599   8.762 -0.7675  1.9324 -0.2569
  151DOPC  H15B18015   0.167   0.716   8.695 -1.7621  1.1649  0.3776
  151DOPC  H15C18016   0.187   0.553   8.640 -0.3701 -1.8228 -0.4524
  151DOPC   C1118017   0.039   0.367   8.514  0.8449  0.6033  0.6072
  151DOPC  H11A18018   0.114   0.348   8.594  1.7868 -0.6723 -0.5331
  151DOPC  H11B18019  -0.020   0.274   8.499  1.2243  0.5218 -0.4481
  151DOPC     P18020   0.241   0.346   8.345  0.6048  0.1799 -0.0203
  151DOPC   O1318021   0.235   0.201   8.359  0.3463 -0.0038  1.0081
  151DOPC   O1418022   0.348   0.424   8.409 -0.1486 -0.5464  0.4433
  151DOPC   O1218023   0.098   0.395   8.385 -0.2580 -0.2114  0.2022
  151DOPC   O1118024   0.248   0.378   8.188  0.3858  0.3605 -0.3124
  151DOPC    C118025   0.260   0.502   8.123  0.1501  0.7693 -0.1906
  151DOPC    HA18026   0.267   0.580   8.202 -1.5463 -0.0809  0.8669
  151DOPC    HB18027   0.172   0.527   8.059  1.2775  1.7860 -1.4074
  151DOPC    C218028   0.391   0.515   8.043 -0.4414  0.7675 -0.2570
  151DOPC    HS18029   0.423   0.621   8.040 -0.8789  1.0989  2.9782
  151DOPC   O2118030   0.392   0.454   7.912  0.8157 -0.1393  0.5764
  151DOPC   C2118031   0.317   0.515   7.824 -0.9346 -0.5426  0.5825
  151DOPC   O2218032   0.257   0.622   7.841 -0.3236  1.1097  0.2851
  151DOPC   C2218033   0.324   0.425   7.693 -0.0556  0.6976 -0.5345
  151DOPC   H2R18034   0.286   0.328   7.732 -0.0464 -0.1981 -2.6002
  151DOPC   H2S18035   0.432   0.410   7.669 -0.7606  1.0252 -4.7288
  151DOPC    C318036   0.506   0.432   8.112  0.1092 -0.1293  0.3824
  151DOPC    HX18037   0.465   0.329   8.110  0.3733 -0.2360  0.5248
  151DOPC    HY18038   0.503   0.466   8.217  1.2795 -0.0233  0.3892
  151DOPC   O3118039   0.634   0.439   8.052 -0.8578 -0.5893 -0.1119
  151DOPC   C3118040   0.654   0.359   7.946 -0.1841  0.2552 -0.3365
  151DOPC   O3218041   0.572   0.283   7.891  0.0999  0.2880 -0.4248
  151DOPC   C3218042   0.800   0.371   7.913 -0.7235 -0.2922  0.1167
  151DOPC   H2X18043   0.867   0.374   8.001 -2.4170 -1.2226  1.5068
  151DOPC   H2Y18044   0.822   0.281   7.851  0.6711  0.2650 -0.2389
  151DOPC   C2318045   0.253   0.483   7.571  0.1081  0.1402  0.0288
  151DOPC   H3R18046   0.283   0.589   7.559  0.6836  0.1979  1.6327
  151DOPC   H3S18047   0.145   0.463   7.586  0.3110 -2.7350 -1.5586
  151DOPC   C2418048   0.315   0.409   7.459 -0.4746  0.1346  0.3586
  151DOPC   H4R18049   0.285   0.302   7.461  2.0842 -0.6267  1.4435
  151DOPC   H4S18050   0.425   0.427   7.455 -0.4061 -0.3935 -1.1034
  151DOPC   C2518051   0.266   0.466   7.323  0.1200  0.9762 -0.1003
  151DOPC   H5R18052   0.310   0.568   7.317 -0.5495  1.2567 -0.3689
  151DOPC   H5S18053   0.155   0.479   7.316  0.0124 -0.7192 -2.9640
  151DOPC   C2618054   0.312   0.380   7.212  0.3342 -0.1499 -0.5059
  151DOPC   H6R18055   0.272   0.277   7.217  1.4520 -0.5428  1.5317
  151DOPC   H6S18056   0.423   0.384   7.210  0.3476 -0.5691 -0.5425
  151DOPC   C2718057   0.275   0.459   7.086 -0.1005 -0.2436  0.2628
  151DOPC   H7R18058   0.300   0.567   7.085 -1.7713  0.1798 -1.2263
  151DOPC   H7S18059   0.165   0.454   7.074 -0.2716  3.8021 -1.4578
  151DOPC   C2818060   0.358   0.403   6.967 -0.1977 -0.8748 -0.0893
  151DOPC   H8R18061   0.464   0.374   6.981  0.3145 -0.2496 -2.1636
  151DOPC   H8S18062   0.372   0.490   6.899  1.0111 -1.3038 -0.4020
  151DOPC   C2918063   0.300   0.287   6.896 -0.5016  0.2036 -0.7854
  151DOPC   H9R18064   0.275   0.207   6.968 -2.2046  3.8888  3.1383
  151DOPC  C21018065   0.246   0.283   6.779 -0.0433 -0.0398 -0.5581
  151DOPC  H10R18066   0.199   0.184   6.769  1.1029 -0.6439 -0.1740
  151DOPC  C21118067   0.232   0.380   6.673  0.8029 -0.8837  0.1778
  151DOPC  H11R18068   0.264   0.484   6.694 -1.8923  0.6033 -2.3227
  151DOPC  H11S18069   0.127   0.401   6.643  0.8105  0.1850  0.8285
  151DOPC  C21218070   0.301   0.331   6.546  0.0463  0.3126  0.1605
  151DOPC  H12R18071   0.405   0.300   6.571  0.0452  1.7403  2.2335
  151DOPC  H12S18072   0.318   0.407   6.466 -0.2399  0.5412  0.3155
  151DOPC  C21318073   0.222   0.216   6.475 -0.0398 -0.5718 -0.0317
  151DOPC  H13R18074   0.119   0.247   6.445 -0.6257 -1.3908  1.0243
  151DOPC  H13S18075   0.217   0.131   6.546  2.5110 -0.0186  0.9078
  151DOPC  C21418076   0.295   0.170   6.343 -0.9999 -0.4802  0.1159
  151DOPC  H14R18077   0.391   0.129   6.382 -0.5535  1.4098  1.1134
  151DOPC  H14S18078   0.317   0.263   6.287  2.0113 -0.5401  0.9973
  151DOPC  C21518079   0.203   0.094   6.248  0.2655  0.3344 -0.4796
  151DOPC  H15R18080   0.118   0.164   6.233  0.8725  1.6010  1.6274
  151DOPC  H15S18081   0.154   0.006   6.295  0.1038 -0.4099 -1.9859
  151DOPC  C21618082   0.268   0.051   6.119  0.1938 -0.0282  0.6764
  151DOPC  H16R18083   0.360  -0.009   6.139  0.2566  0.5450  2.2864
  151DOPC  H16S18084   0.295   0.139   6.057 -1.3923  0.3365  0.4730
  151DOPC  C21718085   0.174  -0.052   6.045 -0.3029 -0.5141  0.1056
  151DOPC  H17R18086   0.073  -0.005   6.043 -1.4498 -2.3910  3.9487
  151DOPC  H17S18087   0.161  -0.146   6.102  0.6511 -0.6109  0.1810
  151DOPC  C21818088   0.222  -0.103   5.901  0.2488 -0.2652  0.1653
  151DOPC  H18R18089   0.247  -0.019   5.832  2.6375 -0.8039  0.3244
  151DOPC  H18S18090   0.138  -0.151   5.845 -1.1001  0.2095  1.7132
  151DOPC  H18T18091   0.298  -0.183   5.896 -0.1909 -0.6231 -1.7392
  151DOPC   C3318092   0.839   0.495   7.833 -0.8808 -0.1905 -0.1167
  151DOPC   H3X18093   0.948   0.480   7.817 -0.9289 -1.2240  0.4463
  151DOPC   H3Y18094   0.821   0.591   7.885 -0.7018 -0.6273  0.7604
  151DOPC   C3418095   0.779   0.495   7.686  0.5433  0.6471  0.0410
  151DOPC   H4X18096   0.683   0.551   7.686  0.1852  0.0388  0.0643
  151DOPC   H4Y18097   0.764   0.389   7.656 -0.0889  0.2534  1.6641
  151DOPC   C3518098   0.868   0.573   7.593  0.1788  0.1945  0.7373
  151DOPC   H5X18099   0.972   0.538   7.613  0.1862  0.2521  0.7990
  151DOPC   H5Y18100   0.848   0.682   7.593 -1.5223 -0.0918  1.7554
  151DOPC   C3618101   0.849   0.534   7.446 -0.5980  0.5781 -0.3252
  151DOPC   H6X18102   0.839   0.424   7.432 -0.9957  0.6519 -0.6416
  151DOPC   H6Y18103   0.750   0.570   7.411 -0.0169 -0.4344 -3.3528
  151DOPC   C3718104   0.976   0.578   7.362 -0.0025 -0.4814  0.4757
  151DOPC   H7X18105   0.979   0.689   7.366 -1.4757 -0.4456  2.5124
  151DOPC   H7Y18106   1.067   0.537   7.410 -1.5414 -1.5171  2.7061
  151DOPC   C3818107   0.970   0.531   7.216 -0.4405 -0.4635 -0.2509
  151DOPC   H8X18108   0.953   0.422   7.208  2.5217 -0.9753 -0.5754
  151DOPC   H8Y18109   1.069   0.540   7.166  0.8495 -1.4791  1.9649
  151DOPC   C3918110   0.886   0.611   7.122  0.4130 -0.2350  1.1110
  151DOPC   H9X18111   0.908   0.718   7.121  0.4752 -0.2387  1.8331
  151DOPC  C31018112   0.805   0.569   7.021 -0.9124 -0.3471 -0.0368
  151DOPC  H10X18113   0.760   0.652   6.965 -1.3132  1.4165  2.7235
  151DOPC  C31118114   0.776   0.433   6.982 -0.2300 -0.1909 -0.0699
  151DOPC  H11X18115   0.676   0.389   7.002  1.0864 -3.2987  0.2527
  151DOPC  H11Y18116   0.854   0.367   7.026 -1.0895 -1.5894 -0.5733
  151DOPC  C31218117   0.799   0.416   6.831 -0.7314  0.3978 -0.1557
  151DOPC  H12X18118   0.791   0.306   6.815  3.3531 -0.5488  2.5696
  151DOPC  H12Y18119   0.909   0.429   6.819 -0.1259 -0.9463  2.8078
  151DOPC  C31318120   0.711   0.498   6.739  0.2133 -0.3276  0.2675
  151DOPC  H13X18121   0.603   0.488   6.762 -0.0139 -0.3633 -0.7669
  151DOPC  H13Y18122   0.742   0.604   6.747  0.5213 -0.5727  4.2460
  151DOPC  C31418123   0.724   0.455   6.592  0.1723  0.0359  0.7027
  151DOPC  H14X18124   0.828   0.485   6.566  1.1245 -1.8526  2.1300
  151DOPC  H14Y18125   0.705   0.346   6.594 -3.6052  0.4778 -0.8443
  151DOPC  C31518126   0.614   0.527   6.499 -0.4026  1.0514 -0.3125
  151DOPC  H15X18127   0.645   0.628   6.467  0.0800 -0.0301 -3.6507
  151DOPC  H15Y18128   0.515   0.523   6.550 -0.3084 -0.7408 -0.2083
  151DOPC  C31618129   0.603   0.447   6.361  0.4067  0.2083  0.0421
  151DOPC  H16X18130   0.706   0.431   6.325 -0.5367 -2.8554 -1.6692
  151DOPC  H16Y18131   0.560   0.347   6.383  1.1472  0.1204  1.1721
  151DOPC  C31718132   0.521   0.520   6.251 -0.3011 -0.0583 -0.3054
  151DOPC  H17X18133   0.423   0.525   6.304  0.4726 -1.6116  1.3882
  151DOPC  H17Y18134   0.562   0.622   6.231 -3.1190  1.6515  1.8342
  151DOPC  C31818135   0.523   0.435   6.121  0.0624 -0.4702  0.1801
  151DOPC  H18X18136   0.484   0.332   6.138 -0.3042  0.0458  2.9820
  151DOPC  H18Y18137   0.471   0.492   6.041  1.2904 -0.2379 -0.4747
  151DOPC  H18Z18138   0.629   0.431   6.089 -0.3057  0.3547 -1.2356
  152DOPC     N18139   4.496   2.982   8.880 -0.3019  0.4832  0.4548
  152DOPC   C1218140   4.479   3.003   8.731  0.3787  0.0838 -0.1354
  152DOPC  H12A18141   4.572   3.017   8.678 -0.5976  0.8613 -1.7297
  152DOPC  H12B18142   4.426   3.098   8.729  1.7386  1.0660  3.2987
  152DOPC   C1318143   4.571   2.854   8.906 -0.6054  0.3976  0.0530
  152DOPC  H13A18144   4.675   2.861   8.875 -0.4501  1.6546  0.7983
  152DOPC  H13B18145   4.585   2.844   9.013 -0.3075  2.8781  0.3204
  152DOPC  H13C18146   4.525   2.767   8.863 -1.7964  0.1055  1.8410
  152DOPC   C1418147   4.364   2.967   8.950  0.4630  0.3604  0.0888
  152DOPC  H14A18148   4.311   3.060   8.958 -0.8012 -0.3187 -0.2134
  152DOPC  H14B18149   4.304   2.901   8.890  0.8584  1.2359 -1.3247
  152DOPC  H14C18150   4.382   2.926   9.048 -0.4747  0.1006  0.1544
  152DOPC   C1518151   4.574   3.100   8.940 -0.1036  0.4057 -0.3222
  152DOPC  H15A18152   4.520   3.191   8.917 -0.5968 -0.4409 -2.7005
  152DOPC  H15B18153   4.678   3.115   8.913 -0.4440  2.5871 -0.6134
  152DOPC  H15C18154   4.575   3.089   9.048  0.8936  0.0447 -0.3567
  152DOPC   C1118155   4.385   2.905   8.664 -0.0210 -0.1711 -0.2718
  152DOPC  H11A18156   4.404   2.919   8.555 -0.3551 -2.7991 -0.7351
  152DOPC  H11B18157   4.420   2.802   8.687  1.6920  0.0708 -1.5554
  152DOPC     P18158   4.143   3.006   8.632 -0.0126  0.2158  0.3042
  152DOPC   O1318159   4.212   3.117   8.565 -0.3563  0.0978 -0.7215
  152DOPC   O1418160   4.042   3.050   8.730 -0.1271 -0.3522 -0.1152
  152DOPC   O1218161   4.246   2.913   8.704 -0.0896 -0.0957 -0.1266
  152DOPC   O1118162   4.074   2.921   8.515 -0.0895 -0.5118 -0.4246
  152DOPC    C118163   4.079   2.782   8.502  0.2826  0.2899  0.1585
  152DOPC    HA18164   3.973   2.751   8.496 -0.0618  0.9060  2.2459
  152DOPC    HB18165   4.120   2.726   8.588  2.0929 -1.3728 -1.6772
  152DOPC    C218166   4.163   2.749   8.371  0.1455  0.2120 -0.8415
  152DOPC    HS18167   4.265   2.784   8.398  0.5433 -1.6912  0.3534
  152DOPC   O2118168   4.100   2.819   8.269  0.6705 -0.2717 -0.1394
  152DOPC   C2118169   4.182   2.877   8.181 -1.3245  0.1483  0.7375
  152DOPC   O2218170   4.306   2.868   8.186  0.4941  0.4309 -0.4870
  152DOPC   C2218171   4.099   2.968   8.098 -0.8714 -0.6047 -0.0783
  152DOPC   H2R18172   4.122   3.075   8.119 -0.0610 -0.9721  0.9807
  152DOPC   H2S18173   3.991   2.951   8.115 -1.2120  0.8366 -0.5735
  152DOPC    C318174   4.170   2.600   8.337  0.3150 -0.6797  0.2935
  152DOPC    HX18175   4.064   2.568   8.325 -1.0487  3.2690  0.2302
  152DOPC    HY18176   4.207   2.534   8.418  1.1896 -0.9154 -0.2901
  152DOPC   O3118177   4.239   2.568   8.217 -0.0489 -0.6744 -0.0852
  152DOPC   C3118178   4.375   2.583   8.217 -0.0383 -0.3979  0.8737
  152DOPC   O3218179   4.438   2.611   8.314 -0.0415  0.1374 -0.1429
  152DOPC   C3218180   4.429   2.522   8.083  0.3719  0.2583  0.4362
  152DOPC   H2X18181   4.519   2.461   8.107 -1.0579 -1.6650  1.2754
  152DOPC   H2Y18182   4.350   2.450   8.052 -0.6526  1.2501  0.6934
  152DOPC   C2318183   4.111   2.947   7.939  0.3502  0.0684 -0.1263
  152DOPC   H3R18184   4.099   2.838   7.919  0.6647 -0.0406  0.2591
  152DOPC   H3S18185   4.216   2.973   7.916  0.6566  1.1570  2.1637
  152DOPC   C2418186   4.001   3.020   7.862  0.2145 -0.8716 -0.4681
  152DOPC   H4R18187   4.003   3.129   7.887  0.0731 -0.7264 -1.0656
  152DOPC   H4S18188   3.897   2.999   7.895  0.0969  0.9114  0.4501
  152DOPC   C2518189   4.009   3.008   7.711 -0.3580 -0.5077  0.0882
  152DOPC   H5R18190   4.028   2.902   7.684  1.9438  0.2278 -1.5317
  152DOPC   H5S18191   4.103   3.056   7.677 -0.8961  1.2489  0.9760
  152DOPC   C2618192   3.898   3.066   7.626  0.7259 -0.2175 -0.1248
  152DOPC   H6R18193   3.904   3.177   7.619 -2.5422 -0.0569 -2.2667
  152DOPC   H6S18194   3.797   3.039   7.663  1.1801  0.0880  1.4434
  152DOPC   C2718195   3.912   3.022   7.482  0.5475  0.3980 -0.5508
  152DOPC   H7R18196   3.892   2.912   7.476  1.8647  0.1758 -1.3625
  152DOPC   H7S18197   4.017   3.037   7.449  1.4779  0.0870  2.0352
  152DOPC   C2818198   3.814   3.100   7.396  0.2158  0.0948 -0.6907
  152DOPC   H8R18199   3.818   3.207   7.426  0.2180  0.1876 -1.0195
  152DOPC   H8S18200   3.708   3.073   7.417  0.2350  0.3356 -0.2550
  152DOPC   C2918201   3.861   3.076   7.258 -0.1857  0.0207 -0.3404
  152DOPC   H9R18202   3.959   3.121   7.233 -0.5188  0.4489 -0.8756
  152DOPC  C21018203   3.809   3.016   7.155  0.3354  0.5482  0.2354
  152DOPC  H10R18204   3.859   3.008   7.057  1.5962 -0.5254  0.9387
  152DOPC  C21118205   3.675   2.941   7.150  0.0411 -0.3441 -0.4190
  152DOPC  H11R18206   3.621   2.941   7.247 -1.1467 -1.1096 -1.0558
  152DOPC  H11S18207   3.687   2.831   7.154 -2.0998 -0.6253 -0.6663
  152DOPC  C21218208   3.579   2.970   7.035  0.2697 -0.6767 -0.2581
  152DOPC  H12R18209   3.560   3.079   7.042 -1.7576 -0.8539 -1.9058
  152DOPC  H12S18210   3.485   2.911   7.047 -1.5409  1.8441 -1.1249
  152DOPC  C21318211   3.633   2.951   6.893  0.8067 -0.3442  0.6348
  152DOPC  H13R18212   3.637   2.841   6.880 -0.1647 -0.1582 -1.8211
  152DOPC  H13S18213   3.735   2.992   6.879  1.1627 -1.9396 -2.2657
  152DOPC  C21418214   3.542   3.031   6.796 -0.4044 -0.4152 -0.9702
  152DOPC  H14R18215   3.584   3.040   6.694  0.9051 -0.0165 -0.4111
  152DOPC  H14S18216   3.556   3.132   6.839 -1.0862 -0.9698  0.6468
  152DOPC  C21518217   3.400   2.978   6.784  0.2314  0.0221 -0.7863
  152DOPC  H15R18218   3.352   3.008   6.879  0.5243 -0.1547 -0.5812
  152DOPC  H15S18219   3.392   2.867   6.785 -1.5522  0.1197  1.0564
  152DOPC  C21618220   3.323   3.037   6.669  0.9363  0.0367 -0.2187
  152DOPC  H16R18221   3.219   3.011   6.701  1.8361 -0.9092  2.1771
  152DOPC  H16S18222   3.343   2.976   6.578 -1.8007 -1.1579 -0.1281
  152DOPC  C21718223   3.334   3.185   6.631 -1.0272 -0.3995  0.2357
  152DOPC  H17R18224   3.440   3.213   6.651 -0.9098  0.4064 -1.3198
  152DOPC  H17S18225   3.260   3.248   6.684 -3.1988 -0.5491 -2.3794
  152DOPC  C21818226   3.320   3.212   6.482  0.4858  0.0668 -0.5332
  152DOPC  H18R18227   3.380   3.149   6.411  2.4857  0.7305  0.4819
  152DOPC  H18S18228   3.337   3.320   6.463 -3.6285  1.0289  0.3297
  152DOPC  H18T18229   3.214   3.197   6.454  0.2455  1.7486 -0.6050
  152DOPC   C3318230   4.435   2.622   7.964 -0.1884 -0.1060  0.4025
  152DOPC   H3X18231   4.339   2.679   7.959 -0.0707  0.1383  0.8313
  152DOPC   H3Y18232   4.445   2.568   7.868 -0.1462 -0.2765  0.5023
  152DOPC   C3418233   4.546   2.727   7.985  0.5541 -0.0189  0.0098
  152DOPC   H4X18234   4.631   2.692   8.047 -0.5925  1.3878  2.5021
  152DOPC   H4Y18235   4.516   2.803   8.060  1.7375 -0.5566  1.0602
  152DOPC   C3518236   4.596   2.797   7.855 -0.4983 -0.2286  1.5104
  152DOPC   H5X18237   4.666   2.734   7.797  0.6672  1.9087  0.4818
  152DOPC   H5Y18238   4.656   2.887   7.880  0.3356 -0.0933 -0.7782
  152DOPC   C3618239   4.481   2.841   7.772 -0.2788 -0.4428 -0.5224
  152DOPC   H6X18240   4.438   2.751   7.722  0.1067  0.0192 -1.7190
  152DOPC   H6Y18241   4.411   2.901   7.834  1.8975  1.3557  0.3358
  152DOPC   C3718242   4.503   2.933   7.650 -0.1794  0.7600 -0.3509
  152DOPC   H7X18243   4.404   2.954   7.603 -1.4015 -1.5780  0.9774
  152DOPC   H7Y18244   4.542   3.031   7.684  2.1415  0.1146 -0.9455
  152DOPC   C3818245   4.608   2.886   7.557  0.5335  0.5760 -0.4457
  152DOPC   H8X18246   4.701   2.875   7.616 -0.5196  0.4707  1.2864
  152DOPC   H8Y18247   4.628   2.975   7.494 -0.2230  1.4264  0.4844
  152DOPC   C3918248   4.560   2.761   7.487 -0.2551 -0.6724 -0.2497
  152DOPC   H9X18249   4.569   2.673   7.553  2.3423  0.4110  1.0035
  152DOPC  C31018250   4.487   2.754   7.376 -0.1674  0.5400  0.1195
  152DOPC  H10X18251   4.483   2.654   7.332  0.0397  1.0629 -1.1373
  152DOPC  C31118252   4.456   2.869   7.287 -0.0266 -0.5953 -0.6492
  152DOPC  H11X18253   4.461   2.849   7.178  0.0585  0.7111 -0.9099
  152DOPC  H11Y18254   4.517   2.961   7.302 -4.3233  2.3911  0.3905
  152DOPC  C31218255   4.308   2.926   7.307  0.6674  0.3559  0.1258
  152DOPC  H12X18256   4.312   2.976   7.406 -1.0250  2.6044 -0.8632
  152DOPC  H12Y18257   4.235   2.843   7.315  0.1327  0.7661 -0.4759
  152DOPC  C31318258   4.273   3.034   7.200 -0.6968  0.5618  0.1460
  152DOPC  H13X18259   4.212   3.119   7.237 -2.0057  1.1747 -3.1242
  152DOPC  H13Y18260   4.366   3.080   7.163  2.6513 -2.9844  3.2316
  152DOPC  C31418261   4.198   2.977   7.081  0.1043  1.0950  0.2967
  152DOPC  H14X18262   4.264   2.909   7.023 -0.3254  3.7861 -3.7157
  152DOPC  H14Y18263   4.116   2.912   7.118  1.6461  0.3890  2.7343
  152DOPC  C31518264   4.141   3.076   6.980  0.1843  0.3700 -0.8926
  152DOPC  H15X18265   4.224   3.126   6.926  0.4155 -0.2678 -1.1414
  152DOPC  H15Y18266   4.076   3.151   7.030  1.2791 -0.3668  1.7915
  152DOPC  C31618267   4.070   3.000   6.867  0.3141  0.3147 -0.0278
  152DOPC  H16X18268   4.143   2.954   6.797 -2.1730 -1.2185 -1.7412
  152DOPC  H16Y18269   3.990   2.934   6.905 -2.0673  2.2195 -1.4316
  152DOPC  C31718270   3.989   3.093   6.765  0.0313  0.5390  0.5233
  152DOPC  H17X18271   3.930   3.032   6.693  1.0178 -0.0899  0.2137
  152DOPC  H17Y18272   3.914   3.144   6.829 -0.0903  0.2984  0.5733
  152DOPC  C31818273   4.067   3.198   6.690 -0.1451 -0.6083 -0.7709
  152DOPC  H18X18274   4.134   3.251   6.762  0.4028 -0.0584 -1.6661
  152DOPC  H18Y18275   4.126   3.148   6.610 -1.0190 -1.2167 -1.0439
  152DOPC  H18Z18276   4.001   3.275   6.647  0.9321  0.5120 -0.4779
  153DOPC     N18277   0.255   1.601   8.135  0.0320  0.2023 -0.8868
  153DOPC   C1218278   0.228   1.486   8.240 -0.3201  0.0077 -0.2197
  153DOPC  H12A18279   0.206   1.529   8.337  2.1394 -0.4547  0.6242
  153DOPC  H12B18280   0.315   1.422   8.250 -0.3637  0.1632  1.4839
  153DOPC   C1318281   0.136   1.687   8.162  0.2503  0.0138  0.2064
  153DOPC  H13A18282   0.120   1.700   8.268 -1.0914 -2.9531  0.4644
  153DOPC  H13B18283   0.134   1.780   8.108 -0.1768  0.0474  0.2698
  153DOPC  H13C18284   0.043   1.636   8.141 -0.1993  0.8026  0.2413
  153DOPC   C1418285   0.256   1.549   7.997  0.9712  0.6061 -0.5787
  153DOPC  H14A18286   0.215   1.619   7.926  2.9860  0.5884 -1.8531
  153DOPC  H14B18287   0.346   1.505   7.956  0.1901  0.3086 -2.0560
  153DOPC  H14C18288   0.190   1.465   8.014 -0.4683  2.2082  2.5359
  153DOPC   C1518289   0.387   1.669   8.163  0.1255 -0.7212  0.4915
  153DOPC  H15A18290   0.383   1.707   8.264  0.7250  0.1494  0.2071
  153DOPC  H15B18291   0.395   1.753   8.096 -1.4371  0.2611  1.4792
  153DOPC  H15C18292   0.475   1.608   8.149  0.9278  0.5656 -0.3127
  153DOPC   C1118293   0.118   1.377   8.222 -0.1451 -0.1391  0.0616
  153DOPC  H11A18294   0.118   1.312   8.313  0.2920 -1.8409 -1.0969
  153DOPC  H11B18295   0.016   1.419   8.215  0.6818  1.6051 -2.5531
  153DOPC     P18296   0.097   1.154   8.098 -0.3111  0.1369 -0.1076
  153DOPC   O1318297  -0.003   1.128   8.200  0.0352 -0.3404 -0.6139
  153DOPC   O1418298   0.216   1.064   8.104 -0.0193 -0.0420  0.2192
  153DOPC   O1218299   0.136   1.304   8.110 -0.0503  0.2326  0.5498
  153DOPC   O1118300   0.027   1.136   7.955  0.0950  0.3638 -0.3717
  153DOPC    C118301   0.120   1.170   7.848 -0.0166  0.0132 -0.3456
  153DOPC    HA18302   0.215   1.114   7.853 -1.0329 -1.7741  0.0219
  153DOPC    HB18303   0.148   1.277   7.851 -0.4838  0.1756 -1.2787
  153DOPC    C218304   0.069   1.136   7.710 -0.2708  0.3566  0.1106
  153DOPC    HS18305  -0.034   1.177   7.704 -1.2497 -1.7896  1.0266
  153DOPC   O2118306   0.067   0.993   7.699  0.2599 -0.0305  0.2450
  153DOPC   C2118307  -0.035   0.942   7.638 -0.0787 -0.7020 -0.5849
  153DOPC   O2218308  -0.124   1.006   7.585  0.2715 -0.6065  0.0684
  153DOPC   C2218309  -0.022   0.790   7.637 -0.1727 -1.0996  0.4938
  153DOPC   H2R18310  -0.095   0.754   7.713  0.5913 -1.6882  0.9700
  153DOPC   H2S18311   0.084   0.758   7.650  0.9133  1.3516 -1.5853
  153DOPC    C318312   0.151   1.209   7.597 -0.1253 -0.3872  0.1629
  153DOPC    HX18313   0.252   1.164   7.594  0.3686  0.5836  1.4732
  153DOPC    HY18314   0.146   1.318   7.617  2.3943 -0.1118 -0.4515
  153DOPC   O3118315   0.093   1.172   7.472 -0.6481 -0.2437  0.3832
  153DOPC   C3118316  -0.019   1.235   7.442  1.2679 -0.2917  0.1429
  153DOPC   O3218317  -0.067   1.326   7.509 -0.0371 -0.1911 -0.3463
  153DOPC   C3218318  -0.072   1.187   7.308 -0.0567 -0.1209  0.6295
  153DOPC   H2X18319  -0.078   1.078   7.290 -0.2199 -0.1124  0.6350
  153DOPC   H2Y18320  -0.168   1.243   7.303 -0.4851 -0.9413 -2.4236
  153DOPC   C2318321  -0.066   0.723   7.504  0.8298  0.1179 -0.8508
  153DOPC   H3R18322  -0.169   0.762   7.492  0.6000 -0.6353 -1.4225
  153DOPC   H3S18323  -0.090   0.614   7.508 -0.6237  0.4255 -0.4203
  153DOPC   C2418324   0.023   0.759   7.389  0.1120  0.7002  0.2853
  153DOPC   H4R18325   0.128   0.728   7.409 -0.5951 -0.8311  1.8860
  153DOPC   H4S18326   0.043   0.868   7.388 -0.2670  0.7820  1.0633
  153DOPC   C2518327  -0.029   0.712   7.255 -0.3140  0.7872 -0.3497
  153DOPC   H5R18328  -0.133   0.748   7.243  0.4370  2.2573 -3.1615
  153DOPC   H5S18329  -0.029   0.601   7.248 -1.3209  0.4125  3.2058
  153DOPC   C2618330   0.052   0.754   7.136 -0.1110 -0.5030  0.4201
  153DOPC   H6R18331   0.153   0.708   7.146 -0.7689 -2.3541 -0.8426
  153DOPC   H6S18332   0.074   0.863   7.142  0.5642 -0.5258 -1.0615
  153DOPC   C2718333  -0.008   0.708   6.998 -0.6237 -0.0664 -0.1698
  153DOPC   H7R18334  -0.114   0.739   6.984 -1.6452 -2.7496  0.8778
  153DOPC   H7S18335  -0.009   0.597   6.995  0.1791 -0.0953  0.2975
  153DOPC   C2818336   0.088   0.742   6.887  0.1775 -0.0565 -0.0310
  153DOPC   H8R18337   0.188   0.702   6.911  1.1030  1.4432 -1.2043
  153DOPC   H8S18338   0.095   0.853   6.878 -0.1521  0.0704  1.1474
  153DOPC   C2918339   0.047   0.689   6.755  0.9608 -0.2807 -0.0919
  153DOPC   H9R18340   0.079   0.585   6.742 -1.0648 -1.2765  2.0283
  153DOPC  C21018341  -0.017   0.758   6.660 -0.8512 -0.1049 -0.1467
  153DOPC  H10R18342  -0.034   0.720   6.558  0.2843 -1.6128  0.1989
  153DOPC  C21118343  -0.071   0.901   6.676 -0.3557 -0.1511 -0.0176
  153DOPC  H11R18344  -0.087   0.928   6.783  0.9098  0.7264 -0.0205
  153DOPC  H11S18345  -0.175   0.907   6.639 -0.5530 -0.2405  0.5200
  153DOPC  C21218346   0.011   1.022   6.611  0.6841 -0.4754  0.6689
  153DOPC  H12R18347   0.115   1.017   6.651  0.8068 -0.1476  0.3903
  153DOPC  H12S18348  -0.046   1.115   6.631  0.1558 -0.7147  0.2799
  153DOPC  C21318349   0.023   1.006   6.462  0.0896 -0.1253 -0.4552
  153DOPC  H13R18350  -0.077   0.983   6.420 -0.7595  3.5283 -0.7995
  153DOPC  H13S18351   0.083   0.912   6.470 -0.2073 -0.3385 -0.7267
  153DOPC  C21418352   0.088   1.119   6.388 -0.3779 -0.4370 -0.0308
  153DOPC  H14R18353   0.161   1.158   6.463  0.8847 -0.4951 -1.1910
  153DOPC  H14S18354   0.014   1.199   6.367 -1.4746 -1.5848 -0.6623
  153DOPC  C21518355   0.152   1.071   6.252 -0.2674  0.0986  0.3875
  153DOPC  H15R18356   0.182   0.965   6.258 -0.2789  0.0769  0.0858
  153DOPC  H15S18357   0.240   1.139   6.251  0.3726 -0.7064  0.7677
  153DOPC  C21618358   0.068   1.111   6.130  0.1549 -0.1077 -0.7090
  153DOPC  H16R18359   0.050   1.221   6.124  1.7853  0.2077 -0.1810
  153DOPC  H16S18360  -0.026   1.055   6.149  1.9601 -2.6984  1.0740
  153DOPC  C21718361   0.138   1.057   6.001 -0.5065 -0.0925 -0.1580
  153DOPC  H17R18362   0.239   1.103   5.991 -0.8202  0.2262 -2.5127
  153DOPC  H17S18363   0.076   1.083   5.913 -1.0555  2.4354  0.8764
  153DOPC  C21818364   0.152   0.909   5.998 -0.1701 -0.0195 -0.3280
  153DOPC  H18R18365   0.049   0.867   6.004 -0.7311  1.4874  1.4625
  153DOPC  H18S18366   0.211   0.867   6.083 -1.4990 -2.0211 -0.3167
  153DOPC  H18T18367   0.206   0.877   5.907  0.7785 -2.6825  1.0471
  153DOPC   C3318368   0.013   1.251   7.202  0.2540 -0.1543  0.1407
  153DOPC   H3X18369   0.112   1.201   7.191  0.8074  0.8009  0.6635
  153DOPC   H3Y18370   0.042   1.357   7.219 -0.6661  0.3744 -1.3610
  153DOPC   C3418371  -0.058   1.250   7.069 -0.1691 -0.7144  0.1899
  153DOPC   H4X18372  -0.168   1.270   7.073  0.0213  0.2536  1.1139
  153DOPC   H4Y18373  -0.040   1.148   7.029  0.7121 -0.8860  0.9918
  153DOPC   C3518374  -0.008   1.341   6.966  0.1629  0.9581  0.5662
  153DOPC   H5X18375   0.083   1.295   6.921  1.6017  1.8033  2.4477
  153DOPC   H5Y18376   0.031   1.435   7.010  0.5056  0.5207  1.2292
  153DOPC   C3618377  -0.113   1.370   6.857  0.2001 -0.1121  0.4461
  153DOPC   H6X18378  -0.124   1.275   6.801 -2.3011  0.8781 -0.8844
  153DOPC   H6Y18379  -0.216   1.395   6.890 -0.1369  1.4974 -1.6293
  153DOPC   C3718380  -0.053   1.480   6.768 -0.2182 -0.3684 -0.3008
  153DOPC   H7X18381  -0.068   1.573   6.826 -2.5284 -1.7502  1.5348
  153DOPC   H7Y18382   0.054   1.459   6.750  0.5644  0.5453  2.7179
  153DOPC   C3818383  -0.128   1.505   6.632 -0.6226 -0.1571  0.5573
  153DOPC   H8X18384  -0.084   1.596   6.587  0.9256 -1.2579 -0.2582
  153DOPC   H8Y18385  -0.235   1.528   6.651 -0.5691 -0.5830  1.4040
  153DOPC   C3918386  -0.120   1.398   6.523  0.0111 -0.5799 -0.5760
  153DOPC   H9X18387  -0.025   1.343   6.518 -1.1229 -2.8692  1.2184
  153DOPC  C31018388  -0.214   1.375   6.426  0.4221  0.2963  0.5449
  153DOPC  H10X18389  -0.197   1.284   6.366  1.0288  0.6617  0.1584
  153DOPC  C31118390  -0.342   1.451   6.402  0.0625 -0.4018 -0.2284
  153DOPC  H11X18391  -0.363   1.529   6.478 -1.1579  0.3531 -1.2902
  153DOPC  H11Y18392  -0.420   1.375   6.422 -1.0966  1.2006  1.8274
  153DOPC  C31218393  -0.348   1.510   6.265 -0.3754 -0.1712  0.2967
  153DOPC  H12X18394  -0.273   1.591   6.251  0.5139 -0.8943  0.7811
  153DOPC  H12Y18395  -0.445   1.560   6.245  0.4478  1.1910 -0.4897
  153DOPC  C31318396  -0.341   1.414   6.149  0.0067 -0.5477 -0.0763
  153DOPC  H13X18397  -0.238   1.373   6.143  0.6872  0.8365  1.3092
  153DOPC  H13Y18398  -0.405   1.328   6.178 -0.5896 -0.2143 -0.3953
  153DOPC  C31418399  -0.381   1.473   6.010 -0.2174  0.4121 -0.1654
  153DOPC  H14X18400  -0.363   1.390   5.938 -1.0824  1.4710 -1.6765
  153DOPC  H14Y18401  -0.490   1.490   6.008 -0.4938 -1.2534 -0.6100
  153DOPC  C31518402  -0.306   1.601   5.971 -0.4038  0.3944  0.5123
  153DOPC  H15X18403  -0.196   1.584   5.972 -0.3734  0.4435 -0.5865
  153DOPC  H15Y18404  -0.328   1.686   6.039 -0.2531  1.1220 -0.3264
  153DOPC  C31618405  -0.350   1.626   5.824  0.6611  0.4796  1.0024
  153DOPC  H16X18406  -0.332   1.529   5.773 -0.1306 -0.3620  2.2592
  153DOPC  H16Y18407  -0.457   1.655   5.816  0.6262  0.3387  0.9587
  153DOPC  C31718408  -0.265   1.724   5.748  0.1451  0.0814 -0.2166
  153DOPC  H17X18409  -0.301   1.740   5.643 -0.7503  1.4752  0.2639
  153DOPC  H17Y18410  -0.270   1.820   5.805  0.5915 -0.0919  0.1128
  153DOPC  C31818411  -0.114   1.685   5.754 -0.1413 -0.4504  0.0935
  153DOPC  H18X18412  -0.098   1.585   5.707 -1.7173 -0.2743 -0.9196
  153DOPC  H18Y18413  -0.063   1.761   5.690 -2.0431  0.3267 -0.5912
  153DOPC  H18Z18414  -0.080   1.685   5.859  2.8725 -1.4837 -0.7962
  154DOPC     N18415   0.345   4.997   8.516  0.2826 -0.6547 -0.5646
  154DOPC   C1218416   0.377   5.126   8.588  0.1194  0.3582  0.5322
  154DOPC  H12A18417   0.443   5.098   8.669 -1.1095  0.4718  1.6107
  154DOPC  H12B18418   0.286   5.164   8.632 -0.9198  0.0006 -1.2431
  154DOPC   C1318419   0.285   4.894   8.613  0.0841 -0.0688  0.3511
  154DOPC  H13A18420   0.351   4.885   8.698  2.1629 -3.4796 -1.4417
  154DOPC  H13B18421   0.195   4.927   8.664 -0.3789  0.8342 -0.9890
  154DOPC  H13C18422   0.265   4.809   8.550 -0.6312  1.4735 -1.6345
  154DOPC   C1418423   0.470   4.934   8.463  0.0314  0.1071  0.0372
  154DOPC  H14A18424   0.554   4.947   8.531 -1.5070  1.4489  1.7987
  154DOPC  H14B18425   0.446   4.831   8.441 -0.5016  0.3715 -0.6636
  154DOPC  H14C18426   0.497   4.984   8.371 -0.4669 -1.9660 -1.2970
  154DOPC   C1518427   0.242   5.014   8.402  0.3139 -0.2536  0.5614
  154DOPC  H15A18428   0.206   4.917   8.373  0.5802  0.3321 -1.9563
  154DOPC  H15B18429   0.289   5.059   8.315 -0.1914 -1.5046 -0.3953
  154DOPC  H15C18430   0.150   5.066   8.427 -0.7467 -1.2699 -1.0437
  154DOPC   C1118431   0.439   5.241   8.505 -0.4399  0.1537  0.5103
  154DOPC  H11A18432   0.519   5.200   8.439 -1.8803 -1.6470 -0.1690
  154DOPC  H11B18433   0.356   5.292   8.453 -0.1362  1.8474  1.5961
  154DOPC     P18434   0.595   5.321   8.697  0.1391  0.6309 -0.1746
  154DOPC   O1318435   0.708   5.246   8.637 -0.9596 -0.3969  0.4502
  154DOPC   O1418436   0.529   5.257   8.811 -0.4592  0.4825  0.2689
  154DOPC   O1218437   0.486   5.346   8.596  0.3111 -0.1656  0.1106
  154DOPC   O1118438   0.638   5.464   8.747 -0.1503  0.3844  0.7402
  154DOPC    C118439   0.620   5.577   8.666  0.1076 -0.5143  0.6932
  154DOPC    HA18440   0.650   5.660   8.734 -3.6466 -0.7098  2.8804
  154DOPC    HB18441   0.512   5.585   8.638  0.7064  2.7490 -1.2064
  154DOPC    C218442   0.724   5.585   8.553 -0.5044  0.1330  0.8161
  154DOPC    HS18443   0.725   5.690   8.517  1.9679 -0.0398  0.2291
  154DOPC   O2118444   0.689   5.498   8.441  0.4802  0.5966  0.6920
  154DOPC   C2118445   0.591   5.543   8.364  0.5389 -0.6136 -0.0854
  154DOPC   O2218446   0.521   5.644   8.392 -0.2912  0.6614  0.2265
  154DOPC   C2218447   0.573   5.450   8.238  0.0140 -0.5039 -0.5221
  154DOPC   H2R18448   0.517   5.357   8.260  0.0666 -1.4153 -3.7804
  154DOPC   H2S18449   0.675   5.412   8.216 -0.5661 -2.1682 -0.4815
  154DOPC    C318450   0.860   5.547   8.617 -0.6916  0.4645 -0.0425
  154DOPC    HX18451   0.864   5.439   8.643  0.7903 -0.2220 -2.6449
  154DOPC    HY18452   0.866   5.587   8.720  1.2659  0.1431  0.0055
  154DOPC   O3118453   0.971   5.576   8.533  0.0352 -0.1515  0.4883
  154DOPC   C3118454   1.010   5.478   8.448 -0.9574  0.2496  0.5340
  154DOPC   O3218455   0.984   5.361   8.462  0.2182  0.0156 -0.4345
  154DOPC   C3218456   1.119   5.539   8.361 -0.6147  0.3240 -0.4421
  154DOPC   H2X18457   1.168   5.619   8.420 -1.2466  1.6665 -1.6891
  154DOPC   H2Y18458   1.191   5.459   8.334 -1.6326 -0.1412 -1.9183
  154DOPC   C2318459   0.513   5.523   8.119 -0.3587  0.9858  0.6296
  154DOPC   H3R18460   0.529   5.457   8.031  1.6637  0.8176  1.0743
  154DOPC   H3S18461   0.574   5.613   8.097 -0.9909  0.9417 -1.4676
  154DOPC   C2418462   0.363   5.551   8.130  0.1014 -0.2613 -0.4416
  154DOPC   H4R18463   0.346   5.622   8.214 -1.9716 -1.5492  0.3078
  154DOPC   H4S18464   0.299   5.466   8.162 -1.1994  1.0034  0.3862
  154DOPC   C2518465   0.314   5.614   7.997 -0.0278 -0.5270 -0.7786
  154DOPC   H5R18466   0.203   5.603   7.999 -0.1326  0.5422  1.3283
  154DOPC   H5S18467   0.349   5.554   7.910  1.3337 -0.3918 -0.3429
  154DOPC   C2618468   0.351   5.760   7.985 -0.1633  0.0742  0.0644
  154DOPC   H6R18469   0.462   5.766   7.989  0.0006  2.7101 -3.5558
  154DOPC   H6S18470   0.319   5.809   8.079 -0.3889 -0.3107  0.1895
  154DOPC   C2718471   0.306   5.840   7.861 -0.0929  0.0447 -0.1089
  154DOPC   H7R18472   0.329   5.949   7.860 -0.2859  0.0838 -1.3608
  154DOPC   H7S18473   0.195   5.838   7.865 -0.1490 -1.5231 -1.3627
  154DOPC   C2818474   0.341   5.773   7.724  0.5029 -0.0352 -0.1412
  154DOPC   H8R18475   0.289   5.815   7.636  1.7937 -0.1167 -0.9774
  154DOPC   H8S18476   0.305   5.671   7.749  0.5673  0.2183  1.0575
  154DOPC   C2918477   0.486   5.761   7.681 -0.9034  0.6497 -0.5570
  154DOPC   H9R18478   0.547   5.697   7.747 -0.4085 -1.5162 -2.9653
  154DOPC  C21018479   0.547   5.824   7.582 -0.3603  0.7842 -0.3173
  154DOPC  H10R18480   0.655   5.806   7.587 -0.4165  0.4801 -0.1531
  154DOPC  C21118481   0.483   5.911   7.482 -0.0765 -0.4801  0.4202
  154DOPC  H11R18482   0.545   6.004   7.478 -1.0233  0.1196 -2.0557
  154DOPC  H11S18483   0.382   5.955   7.499  0.1797  0.8026 -1.1052
  154DOPC  C21218484   0.462   5.841   7.349 -1.0096  0.3479  0.4960
  154DOPC  H12R18485   0.395   5.897   7.281 -2.8942 -1.4277  0.7900
  154DOPC  H12S18486   0.428   5.735   7.355 -0.1272 -0.1692 -2.2159
  154DOPC  C21318487   0.594   5.828   7.271 -0.2018  0.2619 -0.1037
  154DOPC  H13R18488   0.652   5.738   7.303  0.8279 -0.0300 -2.5936
  154DOPC  H13S18489   0.665   5.909   7.299 -0.1517 -0.1416  1.0016
  154DOPC  C21418490   0.568   5.839   7.117  0.4412 -0.0313 -0.0960
  154DOPC  H14R18491   0.536   5.941   7.085 -2.1220 -0.3775  1.1040
  154DOPC  H14S18492   0.488   5.770   7.083 -0.9820 -1.6129  5.3753
  154DOPC  C21518493   0.699   5.810   7.030 -0.1334 -1.0113 -1.5188
  154DOPC  H15R18494   0.752   5.725   7.078 -2.1447 -0.0203  2.8903
  154DOPC  H15S18495   0.762   5.901   7.034 -0.0661 -1.1016 -0.1730
  154DOPC  C21618496   0.680   5.792   6.883  0.4977  0.0929  0.2548
  154DOPC  H16R18497   0.619   5.871   6.835 -0.0022  0.5027  1.5227
  154DOPC  H16S18498   0.618   5.700   6.882 -0.8868  0.9935  0.0735
  154DOPC  C21718499   0.813   5.762   6.808  0.0520  0.1655 -0.6271
  154DOPC  H17R18500   0.805   5.742   6.699  2.3753  0.8713 -0.9789
  154DOPC  H17S18501   0.852   5.673   6.860 -0.7543  0.1305 -0.0598
  154DOPC  C21818502   0.917   5.878   6.820  0.0539 -0.3051 -0.3881
  154DOPC  H18R18503   0.988   5.852   6.901  0.2114 -0.6406 -0.6308
  154DOPC  H18S18504   0.862   5.968   6.857  0.4974 -0.9891  2.1052
  154DOPC  H18T18505   0.979   5.900   6.730  2.6141 -1.7436  0.8999
  154DOPC   C3318506   1.059   5.606   8.235  0.4533  0.3090 -0.7460
  154DOPC   H3X18507   1.127   5.684   8.193 -0.8149  1.1101 -1.3685
  154DOPC   H3Y18508   0.975   5.673   8.264  0.8320  0.5690 -0.2331
  154DOPC   C3418509   1.009   5.502   8.132 -0.1015  0.3358 -0.2099
  154DOPC   H4X18510   0.926   5.448   8.183 -1.2484 -0.2195 -2.5389
  154DOPC   H4Y18511   1.094   5.433   8.114  0.1741  0.5098  0.3884
  154DOPC   C3518512   0.946   5.555   8.004  0.4997 -0.3577  0.2103
  154DOPC   H5X18513   1.013   5.620   7.944 -0.4586 -0.0404 -0.5534
  154DOPC   H5Y18514   0.862   5.625   8.026  1.6105  0.7851  1.0039
  154DOPC   C3618515   0.890   5.444   7.913  0.6169 -0.4053  0.1726
  154DOPC   H6X18516   0.965   5.369   7.878  1.6052 -0.1779  1.7003
  154DOPC   H6Y18517   0.809   5.398   7.973  0.5291 -0.8047 -0.2439
  154DOPC   C3718518   0.816   5.492   7.781  0.2550 -0.0399  0.2005
  154DOPC   H7X18519   0.746   5.413   7.747 -1.1133  0.6600  1.2479
  154DOPC   H7Y18520   0.752   5.580   7.807  0.4033  0.4023 -0.8895
  154DOPC   C3818521   0.912   5.530   7.665  0.3412 -0.2152  1.1053
  154DOPC   H8X18522   0.951   5.434   7.624 -1.0589 -0.8667  1.2343
  154DOPC   H8Y18523   1.000   5.588   7.699 -0.2649  2.7966 -1.9551
  154DOPC   C3918524   0.850   5.585   7.540  0.8056 -0.0899 -0.9673
  154DOPC   H9X18525   0.746   5.551   7.533  0.5281  0.2842  0.7626
  154DOPC  C31018526   0.896   5.660   7.442 -0.9286 -1.0979 -0.9922
  154DOPC  H10X18527   0.835   5.689   7.355  0.3163 -0.5776 -1.7313
  154DOPC  C31118528   1.046   5.693   7.426 -0.1480 -0.4693  0.0418
  154DOPC  H11X18529   1.114   5.624   7.480 -0.8567 -1.4624 -0.3067
  154DOPC  H11Y18530   1.071   5.789   7.476 -0.0265  0.1989 -1.2529
  154DOPC  C31218531   1.092   5.708   7.279 -0.3348  0.5998 -0.4539
  154DOPC  H12X18532   1.041   5.799   7.243 -1.3615  0.3102  0.2103
  154DOPC  H12Y18533   1.061   5.617   7.223  1.1936  0.1247 -0.5599
  154DOPC  C31318534   1.241   5.712   7.261  0.0348 -0.4707 -0.8012
  154DOPC  H13X18535   1.287   5.783   7.333 -0.4309 -1.7185  0.7802
  154DOPC  H13Y18536   1.277   5.610   7.284  1.4214  0.2161  0.2047
  154DOPC  C31418537   1.287   5.761   7.124  0.9242 -0.0777 -0.0227
  154DOPC  H14X18538   1.255   5.866   7.114  2.5298  0.5575  1.0472
  154DOPC  H14Y18539   1.396   5.781   7.115  0.7354  0.9342 -0.1142
  154DOPC  C31518540   1.229   5.674   7.006 -0.0735  0.6826  0.6559
  154DOPC  H15X18541   1.120   5.694   7.008 -0.1037  0.7223 -0.7565
  154DOPC  H15Y18542   1.254   5.567   7.021 -0.8124  0.3622 -0.3303
  154DOPC  C31618543   1.263   5.716   6.864  0.1477 -0.7178 -0.2524
  154DOPC  H16X18544   1.219   5.638   6.798 -1.9306  0.2799 -0.1406
  154DOPC  H16Y18545   1.213   5.814   6.847 -0.8337 -0.6543  2.4606
  154DOPC  C31718546   1.416   5.730   6.836  1.0842  0.1445 -0.4563
  154DOPC  H17X18547   1.447   5.819   6.894 -0.5231  0.0652  0.5709
  154DOPC  H17Y18548   1.460   5.634   6.871 -0.7671  0.1108  2.0543
  154DOPC  C31818549   1.448   5.747   6.686  0.0593 -0.6336  0.4089
  154DOPC  H18X18550   1.438   5.645   6.644  0.1872 -0.0123 -1.2088
  154DOPC  H18Y18551   1.381   5.824   6.643 -1.1045 -0.1154  2.9757
  154DOPC  H18Z18552   1.551   5.780   6.659 -0.7048 -0.1996 -2.1604
  155DOPC     N18553   2.923   2.133   8.925 -0.3546  0.5908 -0.6567
  155DOPC   C1218554   2.906   2.274   8.972 -0.2702 -0.9078 -0.1038
  155DOPC  H12A18555   2.931   2.276   9.077 -3.4275 -0.4757  0.7364
  155DOPC  H12B18556   2.803   2.301   8.982 -0.7321 -1.4556 -2.5565
  155DOPC   C1318557   3.067   2.088   8.939 -0.1920 -0.3599  1.0952
  155DOPC  H13A18558   3.116   2.086   9.035  0.1431 -0.4489  0.9235
  155DOPC  H13B18559   3.073   1.982   8.915  1.6207 -0.4161  1.6857
  155DOPC  H13C18560   3.126   2.146   8.869 -0.3493 -1.3001  0.1526
  155DOPC   C1418561   2.879   2.107   8.787  0.4915 -0.4210 -0.0923
  155DOPC  H14A18562   2.778   2.136   8.763  0.3835 -1.7195 -1.3155
  155DOPC  H14B18563   2.945   2.159   8.719  0.2226  1.5149  1.0485
  155DOPC  H14C18564   2.881   2.002   8.764  1.2540 -0.6852  1.0575
  155DOPC   C1518565   2.841   2.041   9.013 -0.4304  0.1905 -0.5702
  155DOPC  H15A18566   2.855   1.938   8.986 -0.4305  0.3333 -1.1411
  155DOPC  H15B18567   2.734   2.054   9.002 -0.4852  0.5195  0.2423
  155DOPC  H15C18568   2.847   2.056   9.120  0.4771  0.5440 -0.6670
  155DOPC   C1118569   2.970   2.393   8.891 -0.1555 -1.2285  0.9622
  155DOPC  H11A18570   2.906   2.398   8.801  1.4061 -0.7326 -0.1570
  155DOPC  H11B18571   2.953   2.493   8.936  2.3802  0.6951 -1.9467
  155DOPC     P18572   3.224   2.397   8.949 -0.1796  0.1999  0.4258
  155DOPC   O1318573   3.310   2.275   8.924 -0.1830  0.2752  0.5430
  155DOPC   O1418574   3.178   2.424   9.087 -0.3144 -0.0231 -0.1453
  155DOPC   O1218575   3.105   2.381   8.847  0.0359 -0.1559 -0.9526
  155DOPC   O1118576   3.305   2.529   8.905 -0.5636  0.0225 -0.0336
  155DOPC    C118577   3.333   2.553   8.764 -0.0199  0.0614  0.4241
  155DOPC    HA18578   3.331   2.457   8.708  4.2872 -0.8560  1.4865
  155DOPC    HB18579   3.439   2.587   8.759  0.2892 -0.6165  1.8235
  155DOPC    C218580   3.231   2.663   8.706 -0.5972  0.4075  0.1534
  155DOPC    HS18581   3.131   2.635   8.746 -0.7876 -0.0357 -0.6178
  155DOPC   O2118582   3.237   2.652   8.562 -0.2483  0.0851  0.1342
  155DOPC   C2118583   3.141   2.709   8.499 -0.5408  0.2215  1.2461
  155DOPC   O2218584   3.040   2.761   8.546 -0.1857  0.8182 -0.6901
  155DOPC   C2218585   3.168   2.709   8.346 -0.3498 -0.0810  0.5759
  155DOPC   H2R18586   3.102   2.626   8.314  0.2407 -0.6851  0.9012
  155DOPC   H2S18587   3.273   2.676   8.328 -0.2740 -1.2148  2.7089
  155DOPC    C318588   3.262   2.800   8.756 -0.5318 -0.5034 -0.1097
  155DOPC    HX18589   3.295   2.793   8.861 -1.3537  0.6781  0.2532
  155DOPC    HY18590   3.172   2.864   8.740 -0.1502 -0.5878 -3.1600
  155DOPC   O3118591   3.376   2.855   8.683  0.0061  0.2781  0.5795
  155DOPC   C3118592   3.400   2.989   8.707 -0.0020 -0.1769 -0.1890
  155DOPC   O3218593   3.332   3.053   8.784 -0.1242 -0.0420  0.5389
  155DOPC   C3218594   3.489   3.042   8.593 -0.5786 -0.3442 -0.2468
  155DOPC   H2X18595   3.568   2.965   8.581  0.7660  0.4049  2.8789
  155DOPC   H2Y18596   3.436   3.042   8.495 -1.2233  2.0663  0.0433
  155DOPC   C2318597   3.130   2.847   8.278  0.6013  0.3426  0.3403
  155DOPC   H3R18598   3.026   2.871   8.305 -0.8422 -2.9981 -1.5685
  155DOPC   H3S18599   3.127   2.826   8.169  0.7409 -1.6178  0.6678
  155DOPC   C2418600   3.221   2.968   8.307 -0.3806 -0.6775  0.6467
  155DOPC   H4R18601   3.317   2.947   8.254  1.3498  2.2208  2.3686
  155DOPC   H4S18602   3.238   2.959   8.417  0.6073 -1.7007  0.4287
  155DOPC   C2518603   3.168   3.106   8.273 -0.0739  0.0646 -0.5730
  155DOPC   H5R18604   3.222   3.186   8.328  0.0190 -0.4674  0.1142
  155DOPC   H5S18605   3.062   3.095   8.306 -0.4116  0.4250 -1.4725
  155DOPC   C2618606   3.169   3.131   8.125  0.9998 -0.4056 -0.4355
  155DOPC   H6R18607   3.089   3.206   8.107  1.0753 -0.4314 -0.8799
  155DOPC   H6S18608   3.149   3.035   8.073 -0.3125 -0.4468  0.1090
  155DOPC   C2718609   3.300   3.191   8.076 -0.1681 -0.1401 -0.0421
  155DOPC   H7R18610   3.377   3.112   8.090  0.9781  1.3403  2.8453
  155DOPC   H7S18611   3.326   3.278   8.139  1.7465  1.1303 -2.3841
  155DOPC   C2818612   3.287   3.233   7.935 -0.4250 -0.2011 -0.0743
  155DOPC   H8R18613   3.238   3.144   7.891 -2.0892 -0.8609  2.8017
  155DOPC   H8S18614   3.390   3.257   7.900  0.1151  0.0246  1.5473
  155DOPC   C2918615   3.210   3.366   7.928  0.2747 -0.6530  0.6558
  155DOPC   H9R18616   3.230   3.433   8.012 -2.5487  1.0331  0.1214
  155DOPC  C21018617   3.104   3.403   7.844  0.3193  0.1592 -0.6016
  155DOPC  H10R18618   3.062   3.504   7.847 -0.2734 -0.1065  1.0759
  155DOPC  C21118619   3.050   3.314   7.733  0.3496  0.1848 -0.2271
  155DOPC  H11R18620   2.955   3.266   7.765  0.6439  0.5670  1.3032
  155DOPC  H11S18621   3.122   3.232   7.714  0.4921  0.2365  0.0847
  155DOPC  C21218622   3.033   3.398   7.611 -0.6041 -0.1041  0.1253
  155DOPC  H12R18623   3.127   3.453   7.587  0.7976 -0.7759  3.5956
  155DOPC  H12S18624   2.953   3.473   7.628 -1.6152 -0.7995 -1.3339
  155DOPC  C21318625   2.982   3.308   7.490  0.0312 -0.1646 -0.0844
  155DOPC  H13R18626   2.905   3.237   7.526  0.4818  0.2129  1.7627
  155DOPC  H13S18627   3.068   3.244   7.461 -0.9245 -0.7957 -1.6262
  155DOPC  C21418628   2.947   3.388   7.363  0.3624 -0.4406 -0.0298
  155DOPC  H14R18629   3.038   3.444   7.333  0.3237 -1.1318 -1.4961
  155DOPC  H14S18630   2.865   3.461   7.384 -0.1570 -0.7290 -1.0310
  155DOPC  C21518631   2.917   3.294   7.242  0.1490  0.4451  1.1462
  155DOPC  H15R18632   2.843   3.218   7.273 -0.7770  1.2221  0.8833
  155DOPC  H15S18633   3.008   3.234   7.218 -1.4312 -1.2083 -1.1538
  155DOPC  C21618634   2.865   3.364   7.115  0.3213  0.3606 -0.7888
  155DOPC  H16R18635   2.951   3.399   7.055  0.2649  0.5041 -0.7844
  155DOPC  H16S18636   2.798   3.450   7.135  1.0006  1.7099 -3.8079
  155DOPC  C21718637   2.781   3.272   7.028  0.5137 -0.2192 -0.3331
  155DOPC  H17R18638   2.751   3.334   6.940 -0.3685 -0.1719 -0.0074
  155DOPC  H17S18639   2.694   3.230   7.083  2.3692 -2.6774  0.8934
  155DOPC  C21818640   2.864   3.171   6.967  0.1676  0.2538  0.4162
  155DOPC  H18R18641   2.904   3.109   7.050 -1.0935 -0.5370  0.4461
  155DOPC  H18S18642   2.946   3.212   6.903  0.5414 -1.5764 -0.3264
  155DOPC  H18T18643   2.795   3.116   6.901 -3.1877  4.8458 -0.3688
  155DOPC   C3318644   3.566   3.180   8.597  0.2622 -1.0787 -0.1455
  155DOPC   H3X18645   3.631   3.189   8.687  1.0786  0.3905 -0.8495
  155DOPC   H3Y18646   3.496   3.266   8.601  0.1926 -1.1716  1.8008
  155DOPC   C3418647   3.658   3.199   8.481  0.1987 -0.1917  0.2190
  155DOPC   H4X18648   3.689   3.097   8.452 -0.2200  0.3913 -2.6029
  155DOPC   H4Y18649   3.746   3.258   8.515 -0.9618  1.3001  0.7657
  155DOPC   C3518650   3.598   3.254   8.349 -0.2390 -0.0327 -0.1603
  155DOPC   H5X18651   3.537   3.344   8.371  1.1481  1.1152 -0.8135
  155DOPC   H5Y18652   3.526   3.176   8.318  1.6256 -1.4189 -1.2418
  155DOPC   C3618653   3.701   3.284   8.235  0.2869  0.2058  0.3004
  155DOPC   H6X18654   3.786   3.336   8.284 -0.6159  2.5636 -0.5132
  155DOPC   H6Y18655   3.738   3.184   8.204  1.4205  1.1422 -1.5072
  155DOPC   C3718656   3.644   3.359   8.117 -0.0096 -0.7237  0.4261
  155DOPC   H7X18657   3.544   3.329   8.079  0.9029 -1.1455 -1.7702
  155DOPC   H7Y18658   3.630   3.462   8.155  1.0527 -1.6234  3.6391
  155DOPC   C3818659   3.743   3.356   7.996 -0.2818  0.0154 -0.7895
  155DOPC   H8X18660   3.744   3.251   7.960  0.3958 -0.4628  0.5408
  155DOPC   H8Y18661   3.847   3.380   8.028  0.1731 -2.5630 -0.0842
  155DOPC   C3918662   3.711   3.459   7.891  0.0728  0.5441  0.1612
  155DOPC   H9X18663   3.739   3.559   7.927 -1.1780  1.5755 -1.6000
  155DOPC  C31018664   3.665   3.435   7.771 -0.5404 -0.7442  0.5774
  155DOPC  H10X18665   3.634   3.523   7.713 -1.3465 -1.3964  0.0022
  155DOPC  C31118666   3.610   3.314   7.700  1.0702  0.0717 -0.1789
  155DOPC  H11X18667   3.581   3.239   7.777  0.6134  1.5170  1.1174
  155DOPC  H11Y18668   3.686   3.265   7.636 -0.5101 -1.1893 -1.1415
  155DOPC  C31218669   3.481   3.336   7.607 -0.5832  0.0946 -0.0045
  155DOPC  H12X18670   3.405   3.396   7.661 -1.3693 -0.5691 -0.3598
  155DOPC  H12Y18671   3.428   3.241   7.588  1.9048 -1.6916  1.3649
  155DOPC  C31318672   3.513   3.394   7.468  0.5051 -0.8483  1.4141
  155DOPC  H13X18673   3.560   3.492   7.491 -0.3571 -0.0874  0.0570
  155DOPC  H13Y18674   3.585   3.342   7.401  0.1903  0.9414 -0.4032
  155DOPC  C31418675   3.383   3.428   7.393  0.1591  0.6430 -1.0241
  155DOPC  H14X18676   3.322   3.336   7.382 -1.9425  1.7936  0.3388
  155DOPC  H14Y18677   3.320   3.490   7.460  0.5207  0.1797 -0.2427
  155DOPC  C31518678   3.421   3.481   7.258 -0.5529  0.2680  0.2446
  155DOPC  H15X18679   3.492   3.412   7.210 -0.7640 -0.0691  0.4089
  155DOPC  H15Y18680   3.463   3.581   7.281 -0.5376 -0.3352  3.4052
  155DOPC  C31618681   3.304   3.505   7.159  0.8084  0.2552 -0.3909
  155DOPC  H16X18682   3.208   3.489   7.213  1.4562  1.1056  1.1062
  155DOPC  H16Y18683   3.305   3.615   7.143 -0.5470  0.2013 -0.9395
  155DOPC  C31718684   3.299   3.430   7.025  0.2028  0.1791 -0.1415
  155DOPC  H17X18685   3.217   3.472   6.962 -0.1691  1.7157  1.2777
  155DOPC  H17Y18686   3.396   3.442   6.973  0.6424  0.8918  0.8085
  155DOPC  C31818687   3.281   3.278   7.041  0.3344 -0.1530 -0.4777
  155DOPC  H18X18688   3.275   3.239   6.937 -1.7732  2.1950 -1.3523
  155DOPC  H18Y18689   3.370   3.227   7.084 -0.2149  0.6001  1.7281
  155DOPC  H18Z18690   3.187   3.249   7.094  1.4005  0.9830  2.2446
  156DOPC     N18691   5.721   0.112   8.804 -0.8536  0.8626  0.4621
  156DOPC   C1218692   5.770   0.009   8.709 -0.1728  0.3698  0.0314
  156DOPC  H12A18693   5.709  -0.077   8.728  1.8085 -1.0149  0.4375
  156DOPC  H12B18694   5.865  -0.041   8.718 -0.5958 -0.8676 -1.8262
  156DOPC   C1318695   5.569   0.119   8.799 -0.2867 -0.3350 -0.7204
  156DOPC  H13A18696   5.535   0.152   8.701 -1.1400 -1.0747 -0.6840
  156DOPC  H13B18697   5.521   0.025   8.820  0.0710 -1.0525 -2.8241
  156DOPC  H13C18698   5.536   0.203   8.858  2.2918 -0.2421  0.7248
  156DOPC   C1418699   5.778   0.250   8.766  0.2723  0.6042  0.2085
  156DOPC  H14A18700   5.738   0.326   8.832 -3.2747  0.8757 -1.9987
  156DOPC  H14B18701   5.883   0.252   8.791  0.2404 -0.8955  0.5914
  156DOPC  H14C18702   5.773   0.271   8.661 -0.2971  3.1684  0.6904
  156DOPC   C1518703   5.759   0.089   8.946 -0.5373 -0.7066 -0.2940
  156DOPC  H15A18704   5.866   0.078   8.949 -0.6612 -1.7856  1.2474
  156DOPC  H15B18705   5.716  -0.002   8.983  1.1981 -0.6437  2.0953
  156DOPC  H15C18706   5.738   0.169   9.015  1.5084 -1.3556  1.1875
  156DOPC   C1118707   5.749   0.037   8.559  1.1919 -0.5089  0.0712
  156DOPC  H11A18708   5.751  -0.057   8.500  3.5244 -0.0899 -0.6222
  156DOPC  H11B18709   5.648   0.076   8.538  0.6508 -1.5745  0.6200
  156DOPC     P18710   5.999   0.093   8.497  0.1591  0.0788 -0.3091
  156DOPC   O1318711   6.041   0.050   8.627 -0.4780 -0.5008  0.0963
  156DOPC   O1418712   6.065   0.218   8.446 -0.2527 -0.0573  0.1459
  156DOPC   O1218713   5.848   0.125   8.504 -0.2916  0.5113 -0.3112
  156DOPC   O1118714   6.023  -0.025   8.387  0.0866  0.1866  0.1454
  156DOPC    C118715   5.929  -0.060   8.282 -0.3075 -0.6595 -0.1579
  156DOPC    HA18716   5.838   0.003   8.280 -1.4093 -2.2093 -1.8627
  156DOPC    HB18717   5.912  -0.170   8.282 -0.6478 -0.6104 -0.5739
  156DOPC    C218718   6.008  -0.033   8.147  0.1107 -0.5310  0.5245
  156DOPC    HS18719   5.933  -0.036   8.065  0.9039 -1.9078 -0.1814
  156DOPC   O2118720   6.108  -0.139   8.120  0.2090 -0.0828 -0.7438
  156DOPC   C2118721   6.056  -0.241   8.049 -0.1551 -0.1819  0.1954
  156DOPC   O2218722   5.940  -0.254   8.021 -0.5063  0.5670 -0.1744
  156DOPC   C2218723   6.161  -0.341   8.014 -0.0522  0.5520 -0.6443
  156DOPC   H2R18724   6.137  -0.425   8.082 -1.1935  0.4269 -1.1830
  156DOPC   H2S18725   6.255  -0.293   8.048  0.2877 -2.0213  2.3997
  156DOPC    C318726   6.082   0.102   8.137  0.2675  0.1388 -0.3149
  156DOPC    HX18727   6.160   0.093   8.215 -1.0337 -0.0978  0.9894
  156DOPC    HY18728   6.017   0.184   8.172  0.4687  0.8723 -1.5728
  156DOPC   O3118729   6.126   0.121   8.001 -0.2842 -0.7111 -0.2272
  156DOPC   C3118730   6.118   0.246   7.955 -0.1149  0.3975 -0.0728
  156DOPC   O3218731   6.093   0.344   8.029  0.2060 -0.0748  0.0868
  156DOPC   C3218732   6.146   0.257   7.808  0.2923 -0.1368 -0.3210
  156DOPC   H2X18733   6.075   0.327   7.759  1.3980  0.9794 -0.3791
  156DOPC   H2Y18734   6.250   0.295   7.801  0.1858  0.0806 -0.7552
  156DOPC   C2318735   6.149  -0.382   7.863  1.0619 -0.0459  0.8556
  156DOPC   H3R18736   6.128  -0.298   7.794 -2.1070 -1.9400 -0.7038
  156DOPC   H3S18737   6.060  -0.448   7.855  0.3400  1.0163 -0.3480
  156DOPC   C2418738   6.275  -0.452   7.815 -0.3949  0.0586  0.2134
  156DOPC   H4R18739   6.311  -0.525   7.890  1.8991 -0.9763 -1.7458
  156DOPC   H4S18740   6.347  -0.372   7.788 -3.1422  2.5175 -0.3703
  156DOPC   C2518741   6.254  -0.531   7.682 -0.1780  0.0947 -0.7650
  156DOPC   H5R18742   6.187  -0.618   7.698  1.2299 -1.1187 -1.3013
  156DOPC   H5S18743   6.350  -0.567   7.640  0.0552  1.1013 -1.1259
  156DOPC   C2618744   6.191  -0.444   7.566  0.7552 -0.5525  0.1675
  156DOPC   H6R18745   6.241  -0.345   7.562  0.9591 -0.6483  0.3380
  156DOPC   H6S18746   6.084  -0.420   7.582  0.4757 -1.0576 -0.8683
  156DOPC   C2718747   6.224  -0.512   7.432 -0.3064 -0.3128  0.3007
  156DOPC   H7R18748   6.217  -0.622   7.441  1.2292 -0.4423  0.2132
  156DOPC   H7S18749   6.332  -0.497   7.409 -0.7847 -0.2644 -2.1659
  156DOPC   C2818750   6.135  -0.461   7.315 -0.0957  0.6044  0.0220
  156DOPC   H8R18751   6.159  -0.353   7.306 -0.4767  0.6371 -0.6722
  156DOPC   H8S18752   6.027  -0.475   7.339 -0.1624  1.7424  0.4328
  156DOPC   C2918753   6.160  -0.542   7.190 -0.4721  0.0458 -0.1614
  156DOPC   H9R18754   6.157  -0.650   7.208 -1.8296  0.0035 -0.5177
  156DOPC  C21018755   6.178  -0.501   7.058 -0.5916 -0.5333 -0.3648
  156DOPC  H10R18756   6.197  -0.582   6.986  0.1652 -0.0014 -0.7904
  156DOPC  C21118757   6.190  -0.360   7.010 -0.3065  0.4119 -0.5457
  156DOPC  H11R18758   6.292  -0.317   7.020 -0.0957  0.2414 -1.8762
  156DOPC  H11S18759   6.129  -0.298   7.080 -0.9115 -1.7170  0.9067
  156DOPC  C21218760   6.129  -0.345   6.871  0.3452  0.5338  0.4532
  156DOPC  H12R18761   6.141  -0.237   6.848  1.0005  0.7047  1.5111
  156DOPC  H12S18762   6.018  -0.349   6.873  0.2977  1.2779 -0.2538
  156DOPC  C21318763   6.189  -0.412   6.757  0.4069 -0.4626  0.2581
  156DOPC  H13R18764   6.156  -0.517   6.740  1.9832 -0.8369 -0.6680
  156DOPC  H13S18765   6.300  -0.422   6.759  0.8795  3.0614 -1.6993
  156DOPC  C21418766   6.141  -0.349   6.620 -0.3514 -0.1490  0.0742
  156DOPC  H14R18767   6.177  -0.243   6.616 -0.1852 -0.1795  0.7548
  156DOPC  H14S18768   6.032  -0.356   6.605 -0.4646  2.8583 -1.3979
  156DOPC  C21518769   6.228  -0.410   6.508 -0.5720 -0.2306  0.0550
  156DOPC  H15R18770   6.226  -0.521   6.514 -0.4216 -0.2998 -1.0359
  156DOPC  H15S18771   6.330  -0.382   6.541  0.2812 -1.1496 -1.7021
  156DOPC  C21618772   6.196  -0.359   6.363  0.1427  0.1632  0.0774
  156DOPC  H16R18773   6.199  -0.248   6.359  1.4990  0.2300  1.6683
  156DOPC  H16S18774   6.098  -0.391   6.322  0.3489  0.4642 -0.6656
  156DOPC  C21718775   6.296  -0.405   6.261 -0.3463 -0.4027  0.0689
  156DOPC  H17R18776   6.306  -0.515   6.248  0.8528 -0.1512 -1.4746
  156DOPC  H17S18777   6.402  -0.377   6.279 -0.0351  1.2962 -3.4616
  156DOPC  C21818778   6.256  -0.343   6.125 -0.8658  0.6836 -0.3658
  156DOPC  H18R18779   6.164  -0.390   6.085 -0.4089 -1.2947  0.7475
  156DOPC  H18S18780   6.331  -0.346   6.042 -0.7959 -0.5454 -0.2841
  156DOPC  H18T18781   6.242  -0.236   6.147 -0.4211  1.0299 -1.6234
  156DOPC   C3318782   6.142   0.125   7.722  0.2716 -0.2016  0.9167
  156DOPC   H3X18783   6.039   0.087   7.736  1.2477 -2.1985  3.4199
  156DOPC   H3Y18784   6.216   0.055   7.766  1.7952  1.1368  0.5642
  156DOPC   C3418785   6.157   0.152   7.569  0.1327 -0.0926  0.2562
  156DOPC   H4X18786   6.254   0.202   7.545 -0.1762 -0.7791 -2.6989
  156DOPC   H4Y18787   6.080   0.226   7.538 -0.8562 -0.2118  2.2555
  156DOPC   C3518788   6.145   0.031   7.472 -0.3856 -0.3779  0.1785
  156DOPC   H5X18789   6.041  -0.009   7.477 -0.4653 -0.6972 -2.7652
  156DOPC   H5Y18790   6.216  -0.046   7.509 -1.3481 -1.6610 -0.5907
  156DOPC   C3618791   6.168   0.083   7.334 -0.3174  0.3741 -0.0939
  156DOPC   H6X18792   6.096   0.024   7.272  0.4322 -1.2161  0.4986
  156DOPC   H6Y18793   6.135   0.189   7.324 -2.9349 -0.5169 -2.0585
  156DOPC   C3718794   6.313   0.058   7.279 -1.0664  0.3737  0.0920
  156DOPC   H7X18795   6.382   0.116   7.343 -1.3013 -2.2186  2.9098
  156DOPC   H7Y18796   6.335  -0.050   7.292 -1.6952  0.3444  1.0333
  156DOPC   C3818797   6.336   0.093   7.130  0.0147 -0.3513 -0.2993
  156DOPC   H8X18798   6.445   0.084   7.108 -0.0177 -1.9038  0.1022
  156DOPC   H8Y18799   6.309   0.198   7.103  2.0173  0.8498  1.9358
  156DOPC   C3918800   6.263  -0.000   7.049 -0.9469  0.5614  0.6906
  156DOPC   H9X18801   6.295  -0.105   7.054 -0.9216  0.5370  0.0655
  156DOPC  C31018802   6.156   0.031   6.965 -0.0068 -0.1615  0.2785
  156DOPC  H10X18803   6.096  -0.048   6.918 -0.9169  0.4737  0.3608
  156DOPC  C31118804   6.099   0.162   6.918  0.4352  0.0318 -0.7162
  156DOPC  H11X18805   6.138   0.244   6.981  1.7160 -0.9512 -0.1906
  156DOPC  H11Y18806   5.989   0.163   6.930  0.3763  0.7207 -1.2220
  156DOPC  C31218807   6.127   0.205   6.768 -0.5688  0.9146  0.1057
  156DOPC  H12X18808   6.235   0.207   6.742 -1.0345 -2.4502 -2.8857
  156DOPC  H12Y18809   6.101   0.312   6.767  1.0388  1.3343 -0.9800
  156DOPC  C31318810   6.048   0.120   6.669  0.7901 -0.0270  0.1370
  156DOPC  H13X18811   6.075   0.013   6.683 -0.7716 -0.5655 -0.7321
  156DOPC  H13Y18812   5.942   0.115   6.701  2.2405 -1.1382  5.9259
  156DOPC  C31418813   6.074   0.150   6.524 -0.1309  0.6418  0.7660
  156DOPC  H14X18814   6.039   0.250   6.490  0.4609  0.4430 -0.5139
  156DOPC  H14Y18815   6.183   0.139   6.506  0.2807 -0.2805  3.4522
  156DOPC  C31518816   5.994   0.044   6.436 -0.2392 -0.3809 -0.2506
  156DOPC  H15X18817   5.885   0.051   6.456 -0.3535 -0.3360 -0.8668
  156DOPC  H15Y18818   6.020  -0.057   6.474 -0.6710  0.3394  2.1730
  156DOPC  C31618819   5.998   0.082   6.292 -0.3262  0.1013 -0.4986
  156DOPC  H16X18820   5.947   0.180   6.282 -2.4093 -0.7974  0.7084
  156DOPC  H16Y18821   6.104   0.097   6.264 -0.8258  1.5237 -1.8050
  156DOPC  C31718822   5.941  -0.029   6.201 -0.6131 -0.8304 -0.7889
  156DOPC  H17X18823   5.984  -0.127   6.231 -0.2551  0.2016  2.5502
  156DOPC  H17Y18824   5.831  -0.044   6.212 -0.6756 -1.5999 -2.2124
  156DOPC  C31818825   5.965  -0.005   6.054 -0.3816  0.4192  0.1757
  156DOPC  H18X18826   5.908   0.084   6.021  0.1343 -0.7786 -4.7008
  156DOPC  H18Y18827   6.071   0.018   6.031 -0.2145 -0.2702  0.2431
  156DOPC  H18Z18828   5.930  -0.091   5.994  3.8967 -2.0433  0.8480
  157DOPC     N18829   5.972   3.251   8.652  0.7196  0.3068 -0.5588
  157DOPC   C1218830   6.061   3.182   8.548 -0.5338 -0.3620  0.5227
  157DOPC  H12A18831   6.033   3.079   8.533  0.6959 -0.8564  1.4336
  157DOPC  H12B18832   6.158   3.179   8.597 -1.8798  0.3225  3.4123
  157DOPC   C1318833   5.961   3.170   8.784  0.5531 -0.7623 -0.0601
  157DOPC  H13A18834   6.054   3.157   8.837 -0.7438 -2.0895  2.0187
  157DOPC  H13B18835   5.889   3.217   8.850 -0.2583 -0.3041 -1.2317
  157DOPC  H13C18836   5.922   3.072   8.764 -1.6446 -0.1565  0.9669
  157DOPC   C1418837   5.832   3.261   8.594 -0.5490  0.2346 -0.5710
  157DOPC  H14A18838   5.792   3.161   8.590  1.5569 -0.6564 -0.5824
  157DOPC  H14B18839   5.772   3.330   8.651  1.0821  1.4533 -0.2567
  157DOPC  H14C18840   5.842   3.314   8.501  0.4568  2.7507  0.8642
  157DOPC   C1518841   6.013   3.396   8.690  0.0588 -0.0587  0.0141
  157DOPC  H15A18842   5.928   3.445   8.735  0.1084 -1.0072  1.1888
  157DOPC  H15B18843   6.050   3.449   8.603  1.7901 -0.0608  0.7089
  157DOPC  H15C18844   6.103   3.405   8.749 -0.8360 -3.3193  2.0825
  157DOPC   C1118845   6.072   3.250   8.403  0.0558 -0.7058  0.1996
  157DOPC  H11A18846   6.128   3.193   8.327 -0.8395  1.3771 -2.1464
  157DOPC  H11B18847   5.966   3.244   8.372 -1.2613  1.7071  3.5315
  157DOPC     P18848   6.050   3.499   8.322 -0.2365  0.2116  0.1027
  157DOPC   O1318849   6.104   3.630   8.372  0.2955  0.1378 -0.1600
  157DOPC   O1418850   5.903   3.481   8.311  0.2973  0.1637 -0.6068
  157DOPC   O1218851   6.119   3.384   8.410  0.4602 -0.0933  0.6539
  157DOPC   O1118852   6.121   3.450   8.189 -0.0541 -0.0694 -0.1992
  157DOPC    C118853   6.261   3.473   8.159  0.6149 -0.2958 -0.4149
  157DOPC    HA18854   6.313   3.375   8.155 -0.7418 -1.1780  1.8046
  157DOPC    HB18855   6.303   3.540   8.237 -0.4409 -1.3174  1.0950
  157DOPC    C218856   6.290   3.546   8.024 -0.5350  0.1093 -0.3609
  157DOPC    HS18857   6.220   3.631   8.034 -2.2418 -1.3886  1.1610
  157DOPC   O2118858   6.264   3.461   7.913  0.0103  0.0434 -0.0491
  157DOPC   C2118859   6.224   3.526   7.804 -0.0545  0.5510 -1.2655
  157DOPC   O2218860   6.199   3.643   7.792  0.7833 -0.3350  0.0517
  157DOPC   C2218861   6.222   3.426   7.692  0.3024 -0.0824  0.4157
  157DOPC   H2R18862   6.127   3.368   7.699  0.8288 -1.2184 -1.2023
  157DOPC   H2S18863   6.306   3.354   7.704  0.4708 -0.1776 -1.2291
  157DOPC    C318864   6.436   3.599   8.033 -0.5176 -0.1925  1.5507
  157DOPC    HX18865   6.506   3.513   8.041  1.1049  1.0496  1.3464
  157DOPC    HY18866   6.469   3.666   8.115  2.8857  0.1248  0.1109
  157DOPC   O3118867   6.461   3.662   7.902  0.0037 -0.2678  0.2180
  157DOPC   C3118868   6.590   3.709   7.890  0.5013  0.5102  0.1743
  157DOPC   O3218869   6.679   3.684   7.960 -0.4428 -0.4718  0.2152
  157DOPC   C3218870   6.598   3.789   7.757  0.5654  0.3384  0.2971
  157DOPC   H2X18871   6.569   3.894   7.778  0.8466  0.1026  1.9566
  157DOPC   H2Y18872   6.705   3.789   7.725 -0.1977  0.3888 -2.5441
  157DOPC   C2318873   6.225   3.475   7.547 -0.4363  0.1745 -0.6066
  157DOPC   H3R18874   6.323   3.520   7.520 -0.3368  0.1303 -0.3142
  157DOPC   H3S18875   6.158   3.563   7.534  1.4216  1.6416 -0.8144
  157DOPC   C2418876   6.189   3.362   7.448  0.4012  0.0448 -0.3683
  157DOPC   H4R18877   6.098   3.320   7.496 -0.8959  1.3870 -1.5479
  157DOPC   H4S18878   6.273   3.291   7.434  1.0868  0.4869  1.3004
  157DOPC   C2518879   6.164   3.416   7.303 -0.2210 -0.4920 -0.0768
  157DOPC   H5R18880   6.237   3.499   7.298 -0.0896 -0.3725  2.4560
  157DOPC   H5S18881   6.062   3.460   7.298  0.6251  1.6153  0.3343
  157DOPC   C2618882   6.197   3.330   7.187 -0.4393  1.1974  0.1842
  157DOPC   H6R18883   6.133   3.240   7.204 -0.5781  1.2904  0.1604
  157DOPC   H6S18884   6.300   3.290   7.178 -1.5327 -2.0515  0.4602
  157DOPC   C2718885   6.161   3.392   7.051 -0.2570  0.1295  0.5573
  157DOPC   H7R18886   6.210   3.491   7.046 -1.4022  0.6700 -0.2816
  157DOPC   H7S18887   6.052   3.410   7.040 -0.6349 -2.1520 -0.1084
  157DOPC   C2818888   6.223   3.312   6.934  0.3178  0.7470 -0.1127
  157DOPC   H8R18889   6.173   3.212   6.935  0.8944  0.4520 -0.0382
  157DOPC   H8S18890   6.331   3.301   6.958  1.1026  1.1621 -3.0881
  157DOPC   C2918891   6.206   3.380   6.804  0.3396  0.6573 -0.7257
  157DOPC   H9R18892   6.106   3.421   6.785 -0.1678 -0.8281 -1.4328
  157DOPC  C21018893   6.300   3.392   6.713 -0.1708 -0.6448  0.0978
  157DOPC  H10R18894   6.275   3.444   6.620 -1.3653 -1.6549 -0.1729
  157DOPC  C21118895   6.442   3.339   6.718 -0.8229 -0.2516  0.5985
  157DOPC  H11R18896   6.477   3.321   6.822  0.8167 -1.3731 -0.0904
  157DOPC  H11S18897   6.515   3.402   6.663 -1.2419 -1.3225 -1.2803
  157DOPC  C21218898   6.440   3.194   6.659 -0.1724  0.1556 -0.3539
  157DOPC  H12R18899   6.361   3.131   6.704  0.6469  1.1128  2.6242
  157DOPC  H12S18900   6.540   3.152   6.682 -0.3513  0.2356  0.5762
  157DOPC  C21318901   6.433   3.203   6.504  0.0428  0.3207  0.3637
  157DOPC  H13R18902   6.523   3.261   6.474 -0.4045  2.0726  2.2449
  157DOPC  H13S18903   6.340   3.252   6.467 -0.9083 -0.2487  1.9197
  157DOPC  C21418904   6.429   3.058   6.449 -0.2244 -0.0478  0.0206
  157DOPC  H14R18905   6.338   3.016   6.497  0.0128 -0.7867 -0.1591
  157DOPC  H14S18906   6.518   3.006   6.490 -0.1937  0.6821  0.9016
  157DOPC  C21518907   6.423   3.041   6.295 -0.0479 -0.8600 -0.4641
  157DOPC  H15R18908   6.527   3.070   6.269 -0.3721  1.4135  0.5084
  157DOPC  H15S18909   6.348   3.112   6.254  1.3223  0.5387 -0.6475
  157DOPC  C21618910   6.390   2.897   6.270 -0.0308 -0.1207 -0.2266
  157DOPC  H16R18911   6.290   2.877   6.314  0.1557  0.1845  0.3501
  157DOPC  H16S18912   6.456   2.830   6.330  0.4621  0.2250 -0.3762
  157DOPC  C21718913   6.390   2.848   6.117  0.0502  0.1588 -0.7554
  157DOPC  H17R18914   6.496   2.862   6.087  0.7998  0.9222  1.9122
  157DOPC  H17S18915   6.329   2.918   6.057  1.7909  1.7211 -0.7931
  157DOPC  C21818916   6.350   2.698   6.098 -0.2224 -0.1696  0.3085
  157DOPC  H18R18917   6.267   2.670   6.167  1.5652 -1.5458  2.0293
  157DOPC  H18S18918   6.435   2.635   6.132 -1.3053 -1.1663  1.3112
  157DOPC  H18T18919   6.332   2.676   5.991  1.8275 -0.7855  0.0549
  157DOPC   C3318920   6.513   3.732   7.638  0.7003 -0.6111 -0.3493
  157DOPC   H3X18921   6.406   3.739   7.668  0.9927  1.0463  0.3725
  157DOPC   H3Y18922   6.533   3.623   7.629 -1.5589 -1.1482  0.3575
  157DOPC   C3418923   6.539   3.803   7.507  0.6115 -0.3281  0.1526
  157DOPC   H4X18924   6.631   3.757   7.465  0.6643 -0.8180  0.7885
  157DOPC   H4Y18925   6.551   3.913   7.500 -1.6291 -0.0260  0.0754
  157DOPC   C3518926   6.438   3.770   7.393 -0.1086 -0.1191 -0.0753
  157DOPC   H5X18927   6.435   3.659   7.396  1.5063 -0.1884  3.7213
  157DOPC   H5Y18928   6.475   3.791   7.290 -1.0141 -1.3692 -0.6888
  157DOPC   C3618929   6.293   3.822   7.404 -0.0878  0.0771 -0.3155
  157DOPC   H6X18930   6.247   3.759   7.483  1.2718 -1.7313 -0.8966
  157DOPC   H6Y18931   6.286   3.916   7.463 -0.5328  0.3652 -0.8175
  157DOPC   C3718932   6.214   3.831   7.274  0.1643 -0.2509  0.1720
  157DOPC   H7X18933   6.209   3.748   7.200 -4.0005 -0.1491  0.1567
  157DOPC   H7Y18934   6.106   3.832   7.300 -0.1728  2.8878 -1.0081
  157DOPC   C3818935   6.250   3.955   7.189 -0.4618 -0.3152 -0.3135
  157DOPC   H8X18936   6.275   4.042   7.252 -0.1226 -0.4419 -0.2687
  157DOPC   H8Y18937   6.158   3.992   7.138 -0.7875 -0.4686  0.1654
  157DOPC   C3918938   6.357   3.924   7.086 -0.2544 -0.7047  0.4705
  157DOPC   H9X18939   6.460   3.949   7.115 -0.4750  0.5055  0.2674
  157DOPC  C31018940   6.343   3.853   6.975 -0.1885 -0.1243  0.8025
  157DOPC  H10X18941   6.421   3.866   6.898  0.8349  0.2735  1.8772
  157DOPC  C31118942   6.206   3.807   6.915 -0.8192 -0.4376 -0.1971
  157DOPC  H11X18943   6.121   3.809   6.986 -0.3499  1.0787  0.3759
  157DOPC  H11Y18944   6.213   3.705   6.873 -0.2702 -0.4977  0.0415
  157DOPC  C31218945   6.158   3.916   6.815 -1.1430 -0.3551 -0.4531
  157DOPC  H12X18946   6.148   4.016   6.862  1.3347  0.1268 -0.8071
  157DOPC  H12Y18947   6.058   3.882   6.781 -2.1606  0.8943  1.1777
  157DOPC  C31318948   6.255   3.943   6.693 -0.3972 -0.1662 -0.6230
  157DOPC  H13X18949   6.340   4.004   6.730 -0.3876 -1.1743  1.1155
  157DOPC  H13Y18950   6.292   3.842   6.665  2.0887 -0.0117  1.7635
  157DOPC  C31418951   6.172   3.997   6.574  0.3717  0.3276  0.1264
  157DOPC  H14X18952   6.088   3.933   6.540 -0.7450  1.3917  0.8171
  157DOPC  H14Y18953   6.125   4.090   6.613 -1.9105 -0.6369 -0.1564
  157DOPC  C31518954   6.272   4.036   6.462 -0.1280 -0.0616 -0.2298
  157DOPC  H15X18955   6.321   3.942   6.427  0.8758 -0.0157  1.0100
  157DOPC  H15Y18956   6.350   4.097   6.512  0.2330 -0.7458  0.0534
  157DOPC  C31618957   6.221   4.121   6.339 -0.3976 -0.3085 -0.7778
  157DOPC  H16X18958   6.247   4.069   6.244 -1.1118  0.4064 -1.3754
  157DOPC  H16Y18959   6.110   4.125   6.336 -0.3599  0.7878 -2.3093
  157DOPC  C31718960   6.282   4.265   6.328 -0.7126 -0.1204  0.1930
  157DOPC  H17X18961   6.249   4.320   6.419 -0.1639  3.0526 -1.3782
  157DOPC  H17Y18962   6.392   4.248   6.323 -0.8543 -0.9780 -0.1926
  157DOPC  C31818963   6.236   4.332   6.200  0.3765  0.7452 -0.8837
  157DOPC  H18X18964   6.126   4.343   6.188  0.2606  0.2061 -0.3880
  157DOPC  H18Y18965   6.286   4.431   6.194  2.8515 -0.4803 -2.3099
  157DOPC  H18Z18966   6.272   4.270   6.115  2.1364 -0.9378  0.9554
  158DOPC     N18967   4.511   1.241   8.658  0.6781  0.6406 -0.4351
  158DOPC   C1218968   4.471   1.167   8.534 -0.2276 -0.4306 -0.1738
  158DOPC  H12A18969   4.408   1.222   8.466 -1.9791 -1.4434  0.5741
  158DOPC  H12B18970   4.408   1.087   8.568 -1.4045  0.3633 -0.4387
  158DOPC   C1318971   4.621   1.335   8.635 -0.1163  0.8389 -0.0359
  158DOPC  H13A18972   4.710   1.295   8.588 -0.8437 -1.8310  0.7322
  158DOPC  H13B18973   4.590   1.415   8.569  0.6051  1.6681  0.5949
  158DOPC  H13C18974   4.649   1.391   8.723  0.1755 -0.0581  0.4516
  158DOPC   C1418975   4.554   1.143   8.764  0.1015 -0.1700  0.4178
  158DOPC  H14A18976   4.488   1.058   8.775  2.5274 -2.1489  0.8104
  158DOPC  H14B18977   4.647   1.095   8.737  0.3873  0.4165  0.3427
  158DOPC  H14C18978   4.576   1.182   8.862  2.1849 -0.3224  0.0585
  158DOPC   C1518979   4.382   1.312   8.702  0.4612 -0.3740 -0.7574
  158DOPC  H15A18980   4.330   1.360   8.620  0.2819  1.5738  0.4352
  158DOPC  H15B18981   4.415   1.387   8.772 -2.1975 -0.2640  0.5349
  158DOPC  H15C18982   4.317   1.247   8.759  2.9495 -1.0633  1.4576
  158DOPC   C1118983   4.583   1.089   8.457 -0.1045 -0.4564  0.2093
  158DOPC  H11A18984   4.530   1.033   8.377  1.5390  0.1189 -1.3368
  158DOPC  H11B18985   4.646   1.161   8.401 -1.1155  2.0716  2.0998
  158DOPC     P18986   4.618   0.855   8.551 -0.2710  0.4944  0.1133
  158DOPC   O1318987   4.472   0.842   8.575 -0.1297  0.3360 -0.1954
  158DOPC   O1418988   4.711   0.789   8.649  0.1795 -0.2670 -0.2058
  158DOPC   O1218989   4.660   1.008   8.545  0.1644  0.2216 -0.1766
  158DOPC   O1118990   4.655   0.798   8.408  0.3536 -0.1041  0.1732
  158DOPC    C118991   4.780   0.818   8.346  0.2151  0.7736  0.8397
  158DOPC    HA18992   4.861   0.762   8.399 -0.7142 -0.3523  1.1245
  158DOPC    HB18993   4.809   0.924   8.362 -0.4988  0.9097  1.2729
  158DOPC    C218994   4.783   0.788   8.192  0.4013  0.3132  1.0226
  158DOPC    HS18995   4.867   0.831   8.134 -1.1308  1.4694 -0.4699
  158DOPC   O2118996   4.665   0.833   8.116 -0.3754  0.0121  0.0211
  158DOPC   C2118997   4.643   0.961   8.123  0.1381  0.1287  0.0698
  158DOPC   O2218998   4.730   1.047   8.139  0.5267  0.2774  0.1955
  158DOPC   C2218999   4.500   0.999   8.092  0.2737 -0.2598 -0.6679
  158DOPC   H2R19000   4.458   1.076   8.161 -1.4925 -0.4444 -1.4795
  158DOPC   H2S19001   4.436   0.911   8.115  1.5358 -0.6458  1.7610
  158DOPC    C319002   4.787   0.629   8.179 -0.4120 -0.3328 -0.1908
  158DOPC    HX19003   4.713   0.594   8.254 -0.9231  0.2147 -0.4283
  158DOPC    HY19004   4.883   0.593   8.221  0.4735  1.5720 -0.4533
  158DOPC   O3119005   4.760   0.579   8.050  0.2377  0.2301  0.6836
  158DOPC   C3119006   4.865   0.602   7.972 -0.0032  0.2543  0.1662
  158DOPC   O3219007   4.977   0.633   8.013 -0.2791  0.1912  0.4587
  158DOPC   C3219008   4.833   0.583   7.826  0.4269  0.0128  0.2315
  158DOPC   H2X19009   4.914   0.627   7.764  0.1298 -0.1196 -0.2586
  158DOPC   H2Y19010   4.828   0.473   7.813 -1.8109  0.0720  0.1826
  158DOPC   C2319011   4.477   1.054   7.949  0.0259  0.5955  0.5047
  158DOPC   H3R19012   4.566   1.117   7.929  0.0251  0.4994  0.1950
  158DOPC   H3S19013   4.375   1.098   7.942 -0.7886 -1.2832 -0.0097
  158DOPC   C2419014   4.477   0.941   7.841 -0.3652  0.2022  0.2583
  158DOPC   H4R19015   4.416   0.855   7.877  2.7616 -2.6556 -0.7442
  158DOPC   H4S19016   4.577   0.894   7.833 -1.7031 -2.5496 -2.2191
  158DOPC   C2519017   4.425   0.994   7.700 -0.1493  0.0524 -0.8747
  158DOPC   H5R19018   4.506   1.060   7.660  1.0555 -1.3474 -0.8605
  158DOPC   H5S19019   4.331   1.051   7.712 -1.2747 -1.7824 -0.6335
  158DOPC   C2619020   4.384   0.882   7.601 -0.0492  0.0754 -0.3347
  158DOPC   H6R19021   4.309   0.807   7.636  1.5033 -1.0923  0.6363
  158DOPC   H6S19022   4.473   0.823   7.573  0.1508 -0.7306  1.7871
  158DOPC   C2719023   4.329   0.941   7.470 -0.0482 -0.2076  0.3591
  158DOPC   H7R19024   4.251   1.018   7.489 -1.2512 -0.6655 -2.2478
  158DOPC   H7S19025   4.271   0.862   7.417  0.1916  0.3996 -0.8483
  158DOPC   C2819026   4.440   0.998   7.372 -0.0548 -0.2231 -0.0967
  158DOPC   H8R19027   4.518   1.060   7.421 -0.1605 -0.1890  0.0262
  158DOPC   H8S19028   4.382   1.067   7.308 -0.5363 -2.1909 -1.9127
  158DOPC   C2919029   4.510   0.898   7.286  0.0055  0.1702  0.8779
  158DOPC   H9R19030   4.568   0.826   7.346  1.8201  0.0260 -0.9418
  158DOPC  C21019031   4.515   0.878   7.150  0.7896  0.6426  0.0472
  158DOPC  H10R19032   4.566   0.790   7.109 -2.9310 -0.9560 -1.5650
  158DOPC  C21119033   4.446   0.960   7.045 -0.2256  0.2601  0.1210
  158DOPC  H11R19034   4.402   1.051   7.091 -1.6803 -0.5862  0.4438
  158DOPC  H11S19035   4.364   0.897   7.006  1.1183 -1.6674  0.2946
  158DOPC  C21219036   4.552   0.973   6.933 -0.3920 -0.3408  0.8485
  158DOPC  H12R19037   4.590   0.874   6.900 -0.2479  0.0121 -0.0788
  158DOPC  H12S19038   4.639   1.030   6.971 -0.5032  0.5580 -0.1814
  158DOPC  C21319039   4.500   1.064   6.811  0.0638 -0.4370  0.9215
  158DOPC  H13R19040   4.588   1.093   6.750 -1.9322 -0.2718 -2.1481
  158DOPC  H13S19041   4.444   1.152   6.850 -0.1181 -0.6676  1.1825
  158DOPC  C21419042   4.398   0.979   6.727 -0.0901  0.1971 -0.2283
  158DOPC  H14R19043   4.304   0.964   6.784  0.5385 -0.3632  0.6927
  158DOPC  H14S19044   4.454   0.883   6.717  1.3404  0.6306  2.6547
  158DOPC  C21519045   4.362   1.012   6.587 -0.3517  0.4955 -0.6716
  158DOPC  H15R19046   4.458   1.029   6.535 -1.5073  2.1840 -2.3789
  158DOPC  H15S19047   4.324   1.116   6.598 -0.6170  0.3771 -0.4367
  158DOPC  C21619048   4.274   0.907   6.516  0.1383  0.2676 -0.2504
  158DOPC  H16R19049   4.295   0.803   6.549  0.8174  0.2501 -0.7338
  158DOPC  H16S19050   4.298   0.914   6.408  0.3252  1.9971 -0.1359
  158DOPC  C21719051   4.124   0.934   6.528 -0.3275 -0.0414  0.3047
  158DOPC  H17R19052   4.112   1.035   6.485  1.1003  0.2536  0.5608
  158DOPC  H17S19053   4.085   0.959   6.629 -0.1775  1.2139  0.0655
  158DOPC  C21819054   4.031   0.828   6.465 -0.4258  0.1615 -0.1413
  158DOPC  H18R19055   4.054   0.722   6.488 -0.8793  0.2999  1.0142
  158DOPC  H18S19056   4.051   0.844   6.357 -4.0460 -2.4299 -1.4111
  158DOPC  H18T19057   3.925   0.854   6.486 -0.2029  0.3473  0.7878
  158DOPC   C3319058   4.704   0.652   7.786  0.9768 -1.1721 -0.0763
  158DOPC   H3X19059   4.719   0.752   7.742 -0.3449 -0.5588  0.7983
  158DOPC   H3Y19060   4.629   0.670   7.866  2.4273 -0.7953  1.2613
  158DOPC   C3419061   4.628   0.576   7.671 -0.1128 -0.0083 -0.3949
  158DOPC   H4X19062   4.530   0.622   7.648  0.0584  0.2422 -0.6281
  158DOPC   H4Y19063   4.598   0.480   7.720  0.2618 -0.6585 -1.3954
  158DOPC   C3519064   4.721   0.575   7.546 -0.3254  0.1989 -0.6848
  158DOPC   H5X19065   4.812   0.516   7.570 -1.6855 -1.6736  0.0302
  158DOPC   H5Y19066   4.739   0.683   7.526 -2.8056  0.6573 -0.7515
  158DOPC   C3619067   4.649   0.513   7.427 -0.4531 -0.2323 -0.2638
  158DOPC   H6X19068   4.610   0.414   7.457 -1.8376 -0.2273 -1.9154
  158DOPC   H6Y19069   4.555   0.568   7.406 -0.1868  1.5087  2.5670
  158DOPC   C3719070   4.747   0.512   7.307  0.1756  0.0125 -0.4547
  158DOPC   H7X19071   4.772   0.618   7.287  0.3749 -0.1597 -1.1539
  158DOPC   H7Y19072   4.844   0.463   7.328  0.5877  0.6613 -0.8230
  158DOPC   C3819073   4.691   0.465   7.179 -0.1519  0.7112  0.1498
  158DOPC   H8X19074   4.745   0.517   7.098 -0.0638  1.4930  0.7063
  158DOPC   H8Y19075   4.586   0.502   7.172  0.2096  1.9762  1.1313
  158DOPC   C3919076   4.704   0.315   7.175 -0.2335 -1.0158  0.6397
  158DOPC   H9X19077   4.751   0.273   7.265  1.2714  1.8514  1.3036
  158DOPC  C31019078   4.670   0.241   7.069 -0.3308 -0.6562  0.4558
  158DOPC  H10X19079   4.684   0.133   7.080  2.3198 -0.2133  2.4223
  158DOPC  C31119080   4.615   0.288   6.934  0.0379 -0.0787 -0.2809
  158DOPC  H11X19081   4.696   0.279   6.859 -0.1543  1.4219 -0.7008
  158DOPC  H11Y19082   4.588   0.396   6.938  1.6215  0.3561 -0.7686
  158DOPC  C31219083   4.503   0.196   6.881  0.0301  0.2319  0.5811
  158DOPC  H12X19084   4.428   0.193   6.962 -1.4912  2.6650 -0.5923
  158DOPC  H12Y19085   4.547   0.096   6.865  0.5636  0.6906 -1.0724
  158DOPC  C31319086   4.440   0.248   6.753  0.3897 -0.8890 -0.0831
  158DOPC  H13X19087   4.332   0.222   6.755 -0.2775  1.4026 -1.8429
  158DOPC  H13Y19088   4.426   0.358   6.752 -1.0111 -1.0447 -1.1569
  158DOPC  C31419089   4.495   0.193   6.626  0.6235  0.0944 -0.3263
  158DOPC  H14X19090   4.606   0.203   6.622  0.9939 -2.9931 -1.0761
  158DOPC  H14Y19091   4.472   0.084   6.624 -0.4459  0.3080 -1.5984
  158DOPC  C31519092   4.424   0.264   6.506 -0.0777  0.6925 -0.3712
  158DOPC  H15X19093   4.478   0.244   6.411  1.3731 -4.2899  1.1810
  158DOPC  H15Y19094   4.440   0.372   6.524 -0.2352  0.6152  0.2427
  158DOPC  C31619095   4.277   0.221   6.484 -0.5832  0.1149  0.1441
  158DOPC  H16X19096   4.280   0.111   6.465  1.4310  0.6333 -3.7926
  158DOPC  H16Y19097   4.225   0.228   6.582 -0.8209 -0.2722  0.0506
  158DOPC  C31719098   4.204   0.287   6.369  0.3792  0.1740  0.6701
  158DOPC  H17X19099   4.260   0.259   6.277  0.9420  1.6057  0.5521
  158DOPC  H17Y19100   4.099   0.252   6.361 -0.7813  3.2822  0.6844
  158DOPC  C31819101   4.182   0.440   6.380  0.2398  0.3373  0.0349
  158DOPC  H18X19102   4.271   0.495   6.344  0.6180  0.3721  0.9802
  158DOPC  H18Y19103   4.096   0.478   6.321  1.8558  2.0202 -1.3200
  158DOPC  H18Z19104   4.170   0.478   6.484 -1.3919 -2.0209  0.8030
  159DOPC     N19105   0.324   3.706   8.960  0.0296 -0.0661 -0.4152
  159DOPC   C1219106   0.448   3.659   8.882 -0.4610  0.1843 -0.1492
  159DOPC  H12A19107   0.409   3.626   8.787 -0.8542 -0.1012  0.1093
  159DOPC  H12B19108   0.496   3.576   8.932  1.0933 -0.2618 -2.2752
  159DOPC   C1319109   0.229   3.595   8.982  0.1280 -0.1844 -0.3772
  159DOPC  H13A19110   0.267   3.520   9.051 -1.4697 -1.1332 -0.4716
  159DOPC  H13B19111   0.142   3.637   9.030 -1.5578 -2.5189 -1.1957
  159DOPC  H13C19112   0.214   3.544   8.888  1.2130 -1.1347 -0.0676
  159DOPC   C1419113   0.261   3.814   8.873  0.6558 -0.5719  0.2556
  159DOPC  H14A19114   0.251   3.771   8.775  0.0723  2.0831 -0.9415
  159DOPC  H14B19115   0.156   3.833   8.891  0.2126  0.8447 -3.0384
  159DOPC  H14C19116   0.324   3.901   8.866 -1.5579  1.3458  2.2488
  159DOPC   C1519117   0.379   3.762   9.093 -0.5998 -0.2707  0.6831
  159DOPC  H15A19118   0.443   3.845   9.070  1.7182 -1.8528  0.9885
  159DOPC  H15B19119   0.436   3.686   9.145 -0.9684 -2.1556 -1.4983
  159DOPC  H15C19120   0.300   3.787   9.163  0.0033 -1.0761  1.6971
  159DOPC   C1119121   0.558   3.767   8.856 -0.1353  0.5129 -0.1047
  159DOPC  H11A19122   0.606   3.804   8.949  0.6643 -1.9069  0.4923
  159DOPC  H11B19123   0.644   3.719   8.806 -0.2348 -0.5969  0.7613
  159DOPC     P19124   0.521   3.891   8.627 -0.1949  0.0006 -0.0635
  159DOPC   O1319125   0.658   3.935   8.596 -0.1124  0.1899  0.3411
  159DOPC   O1419126   0.425   3.986   8.583 -0.0932 -0.2172 -0.1306
  159DOPC   O1219127   0.506   3.874   8.782 -0.3013  0.4675  0.1422
  159DOPC   O1119128   0.485   3.757   8.560 -0.0628 -0.1130  0.5388
  159DOPC    C119129   0.576   3.656   8.541 -0.4618  0.1245  0.3343
  159DOPC    HA19130   0.527   3.559   8.565 -1.9617  0.9111  0.5836
  159DOPC    HB19131   0.672   3.662   8.596  1.3206  1.4762 -2.6353
  159DOPC    C219132   0.615   3.654   8.393 -0.3796 -0.1193 -0.7404
  159DOPC    HS19133   0.644   3.760   8.375  0.8692 -0.1179  1.0196
  159DOPC   O2119134   0.499   3.611   8.317  0.2275  0.4594 -0.3256
  159DOPC   C2119135   0.449   3.688   8.225 -0.1493 -0.9508  0.3287
  159DOPC   O2219136   0.492   3.798   8.196 -0.1593  0.0977  0.0778
  159DOPC   C2219137   0.336   3.615   8.155 -0.5375  0.2501  0.8128
  159DOPC   H2R19138   0.237   3.636   8.200 -0.2407 -3.2924  3.4687
  159DOPC   H2S19139   0.341   3.506   8.173 -4.3260 -0.3762 -0.9639
  159DOPC    C319140   0.738   3.574   8.359  0.3952  0.0278 -0.6528
  159DOPC    HX19141   0.730   3.466   8.386  2.6925 -0.6388 -2.2929
  159DOPC    HY19142   0.825   3.601   8.423 -0.9737  0.6816  1.0204
  159DOPC   O3119143   0.778   3.600   8.224 -0.0607 -0.1210  0.0603
  159DOPC   C3119144   0.745   3.505   8.138  0.5952 -0.9672  0.2702
  159DOPC   O3219145   0.701   3.391   8.164  0.5413 -0.4928 -0.3357
  159DOPC   C3219146   0.773   3.556   7.996 -0.8144  0.8428  0.3898
  159DOPC   H2X19147   0.719   3.652   7.979 -2.7072 -0.3961 -1.0485
  159DOPC   H2Y19148   0.881   3.570   7.976 -0.4377 -1.9349  0.1175
  159DOPC   C2319149   0.342   3.642   7.998  0.5933 -0.0035 -0.5053
  159DOPC   H3R19150   0.443   3.613   7.961  0.7397  1.2639 -1.1607
  159DOPC   H3S19151   0.323   3.750   7.981 -2.9519 -0.2580  0.9859
  159DOPC   C2419152   0.223   3.576   7.917 -0.8626 -0.3357 -0.3811
  159DOPC   H4R19153   0.127   3.625   7.943  0.1818  2.0243 -0.7104
  159DOPC   H4S19154   0.218   3.466   7.934  1.5967 -0.4748 -0.1753
  159DOPC   C2519155   0.256   3.584   7.769 -0.0095 -0.0192 -0.2170
  159DOPC   H5R19156   0.185   3.525   7.708  0.5975 -0.9945 -0.0029
  159DOPC   H5S19157   0.361   3.555   7.745  0.3288  1.1907 -0.2878
  159DOPC   C2619158   0.231   3.729   7.718  0.2925  0.6066  0.2219
  159DOPC   H6R19159   0.299   3.806   7.761  0.5990 -0.1243  1.0763
  159DOPC   H6S19160   0.133   3.774   7.743 -0.9786  0.0220 -3.1459
  159DOPC   C2719161   0.250   3.738   7.569  0.0745 -0.1199 -0.1253
  159DOPC   H7R19162   0.333   3.669   7.544 -0.8935 -2.5000  2.5592
  159DOPC   H7S19163   0.290   3.838   7.542  2.2222 -0.1165  2.6213
  159DOPC   C2819164   0.122   3.697   7.490 -0.6290 -0.1894  0.7125
  159DOPC   H8R19165   0.039   3.759   7.532 -2.0934 -1.2528 -0.5490
  159DOPC   H8S19166   0.111   3.589   7.512  1.2120 -0.8753 -1.4511
  159DOPC   C2919167   0.138   3.715   7.338 -0.8755 -0.4744  0.5517
  159DOPC   H9R19168   0.200   3.638   7.289 -2.4137 -2.4757  1.6382
  159DOPC  C21019169   0.106   3.823   7.269  0.1791 -0.0139  0.7730
  159DOPC  H10R19170   0.128   3.815   7.161 -0.6189  2.4828  0.3558
  159DOPC  C21119171   0.046   3.954   7.318  0.2321  0.4820 -0.3687
  159DOPC  H11R19172   0.104   3.998   7.402  0.7303 -0.4788 -0.1846
  159DOPC  H11S19173  -0.052   3.926   7.361  0.2498 -0.1647 -0.7348
  159DOPC  C21219174   0.032   4.057   7.214  1.5006  0.1061  0.2883
  159DOPC  H12R19175   0.026   4.151   7.273  1.8821  1.1898 -1.3337
  159DOPC  H12S19176  -0.061   4.034   7.159  0.4521  1.3696  1.4742
  159DOPC  C21319177   0.143   4.075   7.109  0.0658 -0.1496  0.2020
  159DOPC  H13R19178   0.128   3.990   7.038 -2.0157 -0.3395  0.8033
  159DOPC  H13S19179   0.245   4.063   7.149  0.6017  0.0137 -1.0655
  159DOPC  C21419180   0.138   4.213   7.039  0.0600 -0.0625  0.5985
  159DOPC  H14R19181   0.084   4.285   7.104 -2.5501  0.1864 -1.6790
  159DOPC  H14S19182   0.065   4.186   6.960  0.0235 -0.3112  0.7172
  159DOPC  C21519183   0.264   4.260   6.983 -0.3024 -0.5743 -0.2487
  159DOPC  H15R19184   0.342   4.271   7.061 -0.3913  2.0286 -0.4491
  159DOPC  H15S19185   0.248   4.367   6.959  0.7000  0.0508  1.6775
  159DOPC  C21619186   0.307   4.186   6.850  0.2829  0.0767 -0.3246
  159DOPC  H16R19187   0.223   4.173   6.779 -0.7476 -0.9788  1.0351
  159DOPC  H16S19188   0.324   4.079   6.876 -1.9029 -0.9616 -2.8234
  159DOPC  C21719189   0.428   4.242   6.789 -0.4270  0.7295  0.7747
  159DOPC  H17R19190   0.431   4.353   6.789 -1.8169  0.7740  0.3203
  159DOPC  H17S19191   0.435   4.225   6.679  0.3212 -0.7069  1.0161
  159DOPC  C21819192   0.560   4.171   6.844  0.6260  0.0467 -0.1508
  159DOPC  H18R19193   0.638   4.206   6.772  0.2657 -0.5749 -0.8549
  159DOPC  H18S19194   0.544   4.062   6.840  1.8651 -0.1729  0.5884
  159DOPC  H18T19195   0.583   4.206   6.947  0.0377  1.0360 -0.3431
  159DOPC   C3319196   0.714   3.458   7.888  0.0371 -0.7820  0.3746
  159DOPC   H3X19197   0.605   3.444   7.901 -0.0168 -0.4460  0.3098
  159DOPC   H3Y19198   0.761   3.358   7.900 -0.4677 -1.1829 -0.8007
  159DOPC   C3419199   0.748   3.511   7.750  0.0203 -0.2848 -0.4885
  159DOPC   H4X19200   0.854   3.489   7.727  0.3019 -0.3201  0.7864
  159DOPC   H4Y19201   0.745   3.622   7.747 -1.0377 -0.1975  1.8999
  159DOPC   C3519202   0.670   3.446   7.635  0.1396  0.7135 -0.3913
  159DOPC   H5X19203   0.571   3.497   7.644  0.5038  1.8342 -2.1675
  159DOPC   H5Y19204   0.648   3.339   7.651  0.7399  0.3786 -1.6477
  159DOPC   C3619205   0.719   3.465   7.489  0.3134 -0.5275  0.0955
  159DOPC   H6X19206   0.716   3.576   7.480  0.8060 -0.2813  2.2861
  159DOPC   H6Y19207   0.826   3.441   7.470  0.2724  0.5903 -1.7908
  159DOPC   C3719208   0.630   3.402   7.378  1.0224  0.0556 -0.3900
  159DOPC   H7X19209   0.637   3.292   7.390 -0.9801 -0.1428 -0.6984
  159DOPC   H7Y19210   0.527   3.435   7.405  1.6162  0.7364  1.1808
  159DOPC   C3819211   0.664   3.439   7.231 -0.1568  0.3234 -0.3378
  159DOPC   H8X19212   0.677   3.549   7.239 -1.2535  0.5852 -1.7389
  159DOPC   H8Y19213   0.580   3.414   7.163 -0.7211 -2.3045  1.1757
  159DOPC   C3919214   0.786   3.367   7.187 -0.3057 -0.9682  0.3898
  159DOPC   H9X19215   0.861   3.351   7.265  2.1350  1.1236 -1.3491
  159DOPC  C31019216   0.821   3.325   7.060  0.9095 -0.7074  0.2042
  159DOPC  H10X19217   0.914   3.268   7.053  0.8766 -0.8386  0.8536
  159DOPC  C31119218   0.736   3.329   6.935 -0.1439 -0.8103 -0.7081
  159DOPC  H11X19219   0.628   3.344   6.956 -0.0406 -0.2459 -0.5669
  159DOPC  H11Y19220   0.744   3.231   6.882  1.9098 -2.4620  2.3265
  159DOPC  C31219221   0.790   3.446   6.856 -0.0779 -0.0257 -0.2901
  159DOPC  H12X19222   0.840   3.530   6.909  2.2162 -1.7719  0.4767
  159DOPC  H12Y19223   0.711   3.485   6.788 -0.1559 -0.3894 -0.4132
  159DOPC  C31319224   0.899   3.402   6.753  0.0391 -0.1075  0.2718
  159DOPC  H13X19225   0.995   3.372   6.800 -0.8221 -2.2261  0.7798
  159DOPC  H13Y19226   0.861   3.315   6.696 -0.5351  0.6230 -0.4757
  159DOPC  C31419227   0.939   3.514   6.660  0.1500  0.0335 -0.1902
  159DOPC  H14X19228   0.851   3.550   6.602  0.0491 -0.3066 -0.2536
  159DOPC  H14Y19229   0.970   3.593   6.731 -0.5094 -2.1060  2.6735
  159DOPC  C31519230   1.043   3.481   6.553  0.1693 -0.1197  0.1940
  159DOPC  H15X19231   0.986   3.430   6.472 -0.2986  1.0414 -0.2224
  159DOPC  H15Y19232   1.112   3.403   6.592  0.9841  0.8381  0.7096
  159DOPC  C31619233   1.128   3.593   6.512  0.1930  0.2721  0.3735
  159DOPC  H16X19234   1.081   3.693   6.500  0.7672  0.5424  0.3344
  159DOPC  H16Y19235   1.189   3.616   6.601 -0.0573 -0.2792  0.6944
  159DOPC  C31719236   1.225   3.583   6.389 -0.6154 -0.0886  0.6298
  159DOPC  H17X19237   1.293   3.671   6.389 -1.2108  0.3871 -0.2311
  159DOPC  H17Y19238   1.272   3.483   6.397  1.2853  0.6540 -0.4572
  159DOPC  C31819239   1.154   3.593   6.251  0.6152 -0.2431  0.1094
  159DOPC  H18X19240   1.093   3.686   6.243 -0.8470 -1.0295  1.4880
  159DOPC  H18Y19241   1.221   3.601   6.162  0.3246  0.1761 -0.0802
  159DOPC  H18Z19242   1.088   3.505   6.237 -0.0789  0.1304  0.9308
  160DOPC     N19243   2.030   1.861   9.057  0.1665 -0.0700 -0.1876
  160DOPC   C1219244   1.965   1.864   8.925  0.0698  0.1334  0.6278
  160DOPC  H12A19245   2.007   1.953   8.882  2.4210 -1.1878 -0.0041
  160DOPC  H12B19246   1.859   1.882   8.939 -0.7253 -2.8273 -0.6160
  160DOPC   C1319247   2.016   1.989   9.133  0.1193 -0.1302  0.4077
  160DOPC  H13A19248   2.053   2.074   9.078  4.1558 -1.1408  1.2180
  160DOPC  H13B19249   1.912   2.006   9.155  0.1419 -1.1798  1.4664
  160DOPC  H13C19250   2.064   1.979   9.229  0.4900  3.0551  0.6544
  160DOPC   C1419251   2.171   1.815   9.064 -0.1733 -0.1831  0.4240
  160DOPC  H14A19252   2.210   1.803   9.164  0.5269 -0.7074  0.0967
  160DOPC  H14B19253   2.185   1.724   9.006  0.1856  0.4094 -0.4480
  160DOPC  H14C19254   2.232   1.888   9.012 -3.0546  2.2893  0.2836
  160DOPC   C1519255   1.947   1.772   9.140 -0.0972  0.3499 -0.1404
  160DOPC  H15A19256   1.928   1.677   9.093  1.3249 -1.0002  1.8657
  160DOPC  H15B19257   1.852   1.816   9.167 -0.2900 -1.1382  1.8504
  160DOPC  H15C19258   1.989   1.733   9.232  1.2722 -1.2889 -1.3968
  160DOPC   C1119259   1.977   1.742   8.834 -0.0850  0.3204  0.8166
  160DOPC  H11A19260   1.943   1.657   8.897  1.0456 -0.1649  0.8038
  160DOPC  H11B19261   1.909   1.760   8.748 -2.8268 -0.2964  2.7221
  160DOPC     P19262   2.199   1.806   8.700 -0.5270  0.3125  0.0179
  160DOPC   O1319263   2.343   1.768   8.718  0.1818 -0.2279 -0.3887
  160DOPC   O1419264   2.166   1.947   8.719  0.5714  0.5830  0.0006
  160DOPC   O1219265   2.110   1.710   8.797  0.2252 -0.7444 -0.2482
  160DOPC   O1119266   2.146   1.743   8.564  0.2666  0.3206  0.0926
  160DOPC    C119267   2.152   1.611   8.527 -1.1268 -0.0857 -0.2606
  160DOPC    HA19268   2.081   1.559   8.594  0.9110 -1.4126  0.9765
  160DOPC    HB19269   2.253   1.564   8.537 -1.3242 -0.2828  1.0151
  160DOPC    C219270   2.147   1.591   8.367  0.3577  0.7727 -0.2188
  160DOPC    HS19271   2.041   1.593   8.334  0.3270 -1.0157 -0.3475
  160DOPC   O2119272   2.204   1.465   8.320  0.3488 -0.0429 -0.8866
  160DOPC   C2119273   2.114   1.364   8.337  0.1420  0.2058 -0.2178
  160DOPC   O2219274   2.009   1.376   8.404 -0.0315 -0.4896  1.2900
  160DOPC   C2219275   2.169   1.243   8.278  0.3976 -0.3514 -0.3171
  160DOPC   H2R19276   2.120   1.158   8.330 -1.1238 -0.4423 -1.8082
  160DOPC   H2S19277   2.278   1.229   8.295  0.5785 -0.6707 -1.6496
  160DOPC    C319278   2.229   1.703   8.289 -0.0465 -0.0323 -0.3136
  160DOPC    HX19279   2.336   1.699   8.316  0.0089 -1.6250 -0.6776
  160DOPC    HY19280   2.201   1.809   8.307 -0.2402 -0.0090 -0.7549
  160DOPC   O3119281   2.235   1.680   8.147 -0.0846 -0.3201 -0.5247
  160DOPC   C3119282   2.119   1.713   8.080 -1.0036 -0.4045  0.3549
  160DOPC   O3219283   2.028   1.772   8.132  0.4109  0.2951  0.1078
  160DOPC   C3219284   2.128   1.684   7.934  0.2943  1.1821  0.5498
  160DOPC   H2X19285   2.023   1.662   7.904  1.0732 -0.1566 -1.4054
  160DOPC   H2Y19286   2.159   1.771   7.874  0.1537  0.5588 -0.4569
  160DOPC   C2319287   2.137   1.239   8.128  0.4783  0.1476 -0.4785
  160DOPC   H3R19288   2.226   1.256   8.063  0.9049  3.3553  0.7796
  160DOPC   H3S19289   2.061   1.317   8.107 -0.5864 -0.1201  2.0217
  160DOPC   C2419290   2.060   1.114   8.086  0.0661 -0.4431  0.3654
  160DOPC   H4R19291   1.986   1.108   8.168  1.4026  0.9326  1.7453
  160DOPC   H4S19292   2.123   1.024   8.103  2.0240  0.9919  1.1442
  160DOPC   C2519293   1.990   1.127   7.951 -0.2562  0.1468  0.0180
  160DOPC   H5R19294   2.056   1.140   7.862  1.3402 -0.8078  1.0253
  160DOPC   H5S19295   1.921   1.214   7.941 -3.3523 -2.2903 -1.3968
  160DOPC   C2619296   1.911   0.997   7.918 -0.1789 -0.0924 -0.5367
  160DOPC   H6R19297   1.833   0.993   7.996 -0.3572 -1.7181 -0.7585
  160DOPC   H6S19298   1.980   0.911   7.933 -1.2151 -0.9921 -0.7705
  160DOPC   C2719299   1.859   1.005   7.775 -0.4646 -0.4482 -0.6149
  160DOPC   H7R19300   1.934   0.998   7.693 -0.1941 -1.9552 -0.2544
  160DOPC   H7S19301   1.804   1.101   7.760  0.0572 -0.0842 -0.2089
  160DOPC   C2819302   1.752   0.906   7.735  0.8367 -0.1700 -0.0441
  160DOPC   H8R19303   1.656   0.933   7.783  0.8350 -0.0858 -0.0955
  160DOPC   H8S19304   1.775   0.803   7.770 -0.7529 -1.3898 -2.3558
  160DOPC   C2919305   1.721   0.914   7.586 -0.4554  0.5634 -0.0693
  160DOPC   H9R19306   1.632   0.976   7.566 -0.0240  1.0790 -0.3870
  160DOPC  C21019307   1.785   0.844   7.490 -0.4372 -0.1930 -0.2923
  160DOPC  H10R19308   1.771   0.865   7.383  1.7082 -1.0888 -0.8094
  160DOPC  C21119309   1.910   0.762   7.516  0.4295 -0.1023 -0.8205
  160DOPC  H11R19310   1.881   0.694   7.599  2.0731  1.0982  0.8349
  160DOPC  H11S19311   1.990   0.831   7.551 -1.0176  1.8039 -1.1189
  160DOPC  C21219312   1.952   0.676   7.398 -0.7443 -0.0014 -0.0335
  160DOPC  H12R19313   1.863   0.617   7.368 -1.8254  0.2857  2.3572
  160DOPC  H12S19314   2.028   0.598   7.417 -1.2394 -0.5633 -0.3436
  160DOPC  C21319315   2.013   0.756   7.280  0.0071  0.2081 -0.2464
  160DOPC  H13R19316   2.082   0.826   7.333 -0.7853 -0.8176  2.3047
  160DOPC  H13S19317   1.942   0.830   7.237  0.1448 -0.7853 -2.2573
  160DOPC  C21419318   2.090   0.680   7.169  0.2295 -0.6611  0.1339
  160DOPC  H14R19319   2.149   0.600   7.219 -0.0269 -0.4269  0.8109
  160DOPC  H14S19320   2.153   0.749   7.109  1.5603 -0.6744  1.4778
  160DOPC  C21519321   1.987   0.626   7.067 -0.0594 -0.1056 -0.0686
  160DOPC  H15R19322   1.932   0.543   7.117  1.2059 -0.8378  0.1610
  160DOPC  H15S19323   2.047   0.575   6.988 -1.1295  1.1306 -1.7325
  160DOPC  C21619324   1.896   0.732   7.009  0.5096  0.4889 -0.1470
  160DOPC  H16R19325   1.956   0.822   6.984  0.4748  0.6306  0.2846
  160DOPC  H16S19326   1.818   0.760   7.082 -0.7637 -4.2749  0.6734
  160DOPC  C21719327   1.818   0.689   6.882 -0.6919 -0.3094  0.6041
  160DOPC  H17R19328   1.734   0.761   6.892 -0.3050 -0.0210  1.9316
  160DOPC  H17S19329   1.778   0.586   6.891 -1.2355  0.0805  4.3194
  160DOPC  C21819330   1.891   0.709   6.757 -0.4163 -0.3781 -0.1997
  160DOPC  H18R19331   1.985   0.654   6.779  0.7551  0.7932 -2.0400
  160DOPC  H18S19332   1.896   0.818   6.733 -2.8302 -0.5689 -1.9256
  160DOPC  H18T19333   1.841   0.658   6.672 -0.5766 -1.2778  0.4213
  160DOPC   C3319334   2.195   1.550   7.897  0.0261  0.1144  0.2847
  160DOPC   H3X19335   2.190   1.471   7.975  0.9432  0.8205  1.0901
  160DOPC   H3Y19336   2.305   1.560   7.883 -0.2506  1.7681 -1.0791
  160DOPC   C3419337   2.145   1.483   7.774  0.3801  0.0293 -0.1944
  160DOPC   H4X19338   2.154   1.564   7.698  2.4332  0.1917  0.1586
  160DOPC   H4Y19339   2.043   1.447   7.798  0.2265  0.4075 -0.2684
  160DOPC   C3519340   2.226   1.365   7.720  0.0238  0.0758 -0.5894
  160DOPC   H5X19341   2.236   1.291   7.802 -3.6586  1.0611  0.9433
  160DOPC   H5Y19342   2.330   1.402   7.704 -0.7500  2.5369 -0.2622
  160DOPC   C3619343   2.166   1.306   7.595 -0.1685  0.2250  0.2684
  160DOPC   H6X19344   2.071   1.252   7.615 -0.4400  0.5843 -0.0355
  160DOPC   H6Y19345   2.147   1.387   7.521  2.0384 -0.6483 -1.3754
  160DOPC   C3719346   2.260   1.205   7.530  0.1982 -0.0300 -0.0127
  160DOPC   H7X19347   2.367   1.235   7.531  0.0105  0.6809 -0.3893
  160DOPC   H7Y19348   2.250   1.117   7.598 -0.5785  0.1353  0.0930
  160DOPC   C3819349   2.220   1.152   7.379  0.5455  0.0736 -0.8520
  160DOPC   H8X19350   2.120   1.104   7.381  0.2831  0.6169 -0.8077
  160DOPC   H8Y19351   2.291   1.068   7.361  0.3420 -1.0864  2.8560
  160DOPC   C3919352   2.220   1.283   7.291  0.7552 -0.0592 -0.8451
  160DOPC   H9X19353   2.315   1.336   7.304  1.1963 -1.2746  1.6919
  160DOPC  C31019354   2.139   1.306   7.185 -0.0026  0.8316  0.0416
  160DOPC  H10X19355   2.144   1.397   7.124 -0.0667 -0.0363 -1.2862
  160DOPC  C31119356   2.026   1.211   7.156  0.0441 -0.5655 -0.6322
  160DOPC  H11X19357   1.936   1.269   7.128 -1.8588 -2.9503  0.2120
  160DOPC  H11Y19358   1.985   1.148   7.238 -2.0880 -2.2817 -2.8380
  160DOPC  C31219359   2.062   1.113   7.037 -0.1729  0.4046 -0.4402
  160DOPC  H12X19360   1.985   1.038   7.010 -0.6070  0.5876  0.2635
  160DOPC  H12Y19361   2.137   1.043   7.081 -1.7399 -1.9455 -1.3408
  160DOPC  C31319362   2.112   1.183   6.906  0.3756 -0.7192 -0.6337
  160DOPC  H13X19363   2.047   1.138   6.828  1.5781 -0.3713 -1.8842
  160DOPC  H13Y19364   2.089   1.291   6.906  0.6253 -0.6364  1.2877
  160DOPC  C31419365   2.261   1.156   6.855 -0.0679  0.2112  0.3260
  160DOPC  H14X19366   2.336   1.205   6.921  1.0965 -1.0347 -0.0239
  160DOPC  H14Y19367   2.284   1.047   6.859 -1.3545 -0.2018 -1.8929
  160DOPC  C31519368   2.303   1.210   6.715 -0.0226  0.4448 -0.3450
  160DOPC  H15X19369   2.235   1.294   6.690  0.2587  0.0811 -2.5436
  160DOPC  H15Y19370   2.285   1.127   6.644 -0.3612 -0.2192  0.4891
  160DOPC  C31619371   2.455   1.257   6.719 -0.4067 -0.2683  0.2348
  160DOPC  H16X19372   2.483   1.305   6.815  0.1672 -0.5736  0.2257
  160DOPC  H16Y19373   2.508   1.160   6.710 -1.4910 -1.1885  2.7985
  160DOPC  C31719374   2.473   1.346   6.592  0.1682  0.4721 -0.2921
  160DOPC  H17X19375   2.464   1.275   6.507  0.3691  1.3777 -1.0819
  160DOPC  H17Y19376   2.382   1.409   6.601  0.0813  0.5358 -1.4469
  160DOPC  C31819377   2.603   1.426   6.582  0.0761 -0.8080  0.0022
  160DOPC  H18X19378   2.599   1.494   6.494 -2.2622  1.7474  1.8814
  160DOPC  H18Y19379   2.612   1.492   6.671 -1.6861 -0.8614  0.2561
  160DOPC  H18Z19380   2.686   1.356   6.560  0.8182 -0.2872  1.0468
  161DOPC     N19381   3.410   1.713   9.363 -0.1556 -0.0285 -0.3428
  161DOPC   C1219382   3.334   1.671   9.231 -0.1847  0.3870 -0.5323
  161DOPC  H12A19383   3.231   1.697   9.244 -0.2044  0.7360 -1.2983
  161DOPC  H12B19384   3.348   1.565   9.215  0.6268  0.6440 -1.6699
  161DOPC   C1319385   3.545   1.656   9.376  0.3200  0.8913 -0.1042
  161DOPC  H13A19386   3.607   1.709   9.447 -0.2071  0.1448  0.9365
  161DOPC  H13B19387   3.559   1.551   9.394  1.1014  1.2458  1.5159
  161DOPC  H13C19388   3.591   1.672   9.279 -3.2303 -0.3175 -2.1843
  161DOPC   C1419389   3.328   1.663   9.481  0.7698 -0.4432 -0.2504
  161DOPC  H14A19390   3.295   1.563   9.456 -1.1365  0.5883 -2.2076
  161DOPC  H14B19391   3.388   1.660   9.571  0.2204 -0.7487  0.1114
  161DOPC  H14C19392   3.238   1.722   9.493 -1.0134 -2.9260 -0.5201
  161DOPC   C1519393   3.420   1.865   9.382  0.0845 -0.4680  0.1547
  161DOPC  H15A19394   3.464   1.897   9.476  1.3423 -1.4781 -0.0798
  161DOPC  H15B19395   3.318   1.903   9.384 -0.5694 -2.0783  2.3910
  161DOPC  H15C19396   3.474   1.908   9.299  0.8443  0.8248  1.2655
  161DOPC   C1119397   3.370   1.746   9.094  0.6796 -0.6136 -0.7477
  161DOPC  H11A19398   3.297   1.709   9.018 -0.1301  0.8792 -0.7187
  161DOPC  H11B19399   3.348   1.855   9.096  0.7407 -0.6144  0.2970
  161DOPC     P19400   3.565   1.597   8.987 -0.1091 -0.1669 -0.1291
  161DOPC   O1319401   3.462   1.489   8.996  0.4830 -0.9407  0.2097
  161DOPC   O1419402   3.699   1.568   9.042  0.3217  0.1537 -0.1822
  161DOPC   O1219403   3.509   1.725   9.061 -0.3389  0.4930  0.4346
  161DOPC   O1119404   3.581   1.634   8.832 -0.0228 -1.1326 -0.2556
  161DOPC    C119405   3.715   1.677   8.795 -0.5648 -0.2809 -0.1482
  161DOPC    HA19406   3.788   1.596   8.815 -0.9474 -1.0510 -1.7208
  161DOPC    HB19407   3.742   1.773   8.843  1.0542  0.4691 -2.4238
  161DOPC    C219408   3.731   1.695   8.645  0.0608 -0.0354  0.2895
  161DOPC    HS19409   3.839   1.720   8.632  0.2884 -0.8008  0.6344
  161DOPC   O2119410   3.643   1.802   8.603 -0.2772  0.4646 -0.0845
  161DOPC   C2119411   3.688   1.921   8.634 -0.2000 -0.0447 -0.0416
  161DOPC   O2219412   3.792   1.954   8.689  0.7443 -0.0242  1.0169
  161DOPC   C2219413   3.585   2.026   8.577 -0.0729 -0.6802 -0.4827
  161DOPC   H2R19414   3.495   2.027   8.642 -0.7998 -1.3746 -1.4515
  161DOPC   H2S19415   3.552   2.001   8.474 -0.7798  0.5641 -0.5819
  161DOPC    C319416   3.696   1.564   8.566  0.4695 -0.3800 -0.5678
  161DOPC    HX19417   3.604   1.514   8.605 -0.2011 -1.1017 -2.9328
  161DOPC    HY19418   3.781   1.498   8.591 -0.8525 -1.5039  1.2592
  161DOPC   O3119419   3.686   1.591   8.421 -0.0273 -0.0484 -0.3234
  161DOPC   C3119420   3.574   1.632   8.371  0.1574  0.2362 -0.0922
  161DOPC   O3219421   3.462   1.619   8.425 -0.0419  0.4109  0.0470
  161DOPC   C3219422   3.594   1.691   8.233  0.3387  0.7614 -0.1916
  161DOPC   H2X19423   3.700   1.683   8.201  0.1591 -0.8545 -0.4638
  161DOPC   H2Y19424   3.535   1.629   8.163 -0.2003 -1.9471  2.4859
  161DOPC   C2319425   3.658   2.165   8.559  0.5931  0.2500 -0.2971
  161DOPC   H3R19426   3.759   2.156   8.515  1.4309 -0.8837  1.7450
  161DOPC   H3S19427   3.678   2.204   8.661  1.1487  0.4073 -0.4633
  161DOPC   C2419428   3.568   2.260   8.478 -0.1140 -0.2288 -0.5454
  161DOPC   H4R19429   3.467   2.264   8.523  0.2049 -0.8788  0.2612
  161DOPC   H4S19430   3.556   2.217   8.376  0.6791  0.1794 -0.8195
  161DOPC   C2519431   3.627   2.400   8.482  0.1765  0.1135  0.2229
  161DOPC   H5R19432   3.716   2.399   8.416 -0.4793 -0.8860 -0.6982
  161DOPC   H5S19433   3.643   2.438   8.585 -2.5234  0.4079  0.6151
  161DOPC   C2619434   3.531   2.502   8.419  0.3476  0.4762  0.0300
  161DOPC   H6R19435   3.440   2.496   8.482  1.7331 -1.6341  2.0288
  161DOPC   H6S19436   3.505   2.465   8.318  0.9467  0.8155 -0.2526
  161DOPC   C2719437   3.582   2.648   8.415  0.3649  0.4838 -0.0080
  161DOPC   H7R19438   3.590   2.677   8.522 -2.2243  0.2474  0.3214
  161DOPC   H7S19439   3.495   2.708   8.380 -0.8005  0.0298  1.9649
  161DOPC   C2819440   3.700   2.665   8.314  0.4908  0.1968  1.0188
  161DOPC   H8R19441   3.787   2.620   8.367 -0.1514 -2.2149  0.1654
  161DOPC   H8S19442   3.715   2.775   8.318  2.2514  0.1156 -1.1270
  161DOPC   C2919443   3.678   2.616   8.166  0.5427  0.7260 -0.3183
  161DOPC   H9R19444   3.716   2.513   8.154 -0.5298  0.3285 -0.3740
  161DOPC  C21019445   3.600   2.665   8.067 -0.3795 -0.4930 -0.3940
  161DOPC  H10R19446   3.603   2.617   7.967  1.8050  0.4808 -0.8448
  161DOPC  C21119447   3.525   2.802   8.077  0.2057  0.8415  0.1395
  161DOPC  H11R19448   3.504   2.823   8.183 -1.0046 -3.8088  1.0571
  161DOPC  H11S19449   3.432   2.803   8.017 -0.9502  2.0325  1.8787
  161DOPC  C21219450   3.600   2.916   8.011  0.6741 -0.1089 -0.8088
  161DOPC  H12R19451   3.705   2.917   8.048  0.6711  0.7644 -0.7953
  161DOPC  H12S19452   3.543   3.002   8.052 -0.2432 -1.7490  1.5692
  161DOPC  C21319453   3.615   2.917   7.859  0.1061 -0.0903  0.0773
  161DOPC  H13R19454   3.683   2.836   7.824 -1.8217 -1.9198  0.3629
  161DOPC  H13S19455   3.654   3.016   7.828 -0.8574 -0.3081 -2.0155
  161DOPC  C21419456   3.483   2.911   7.774 -0.5840 -0.8119  0.1306
  161DOPC  H14R19457   3.403   2.969   7.824  0.2003  0.5122 -0.1030
  161DOPC  H14S19458   3.455   2.804   7.761 -0.7490 -0.7376 -0.1330
  161DOPC  C21519459   3.505   2.959   7.631 -0.1101 -0.5666 -0.6342
  161DOPC  H15R19460   3.573   2.881   7.589  0.0985 -1.4819  1.2656
  161DOPC  H15S19461   3.538   3.065   7.632 -0.3564 -0.4918 -0.3477
  161DOPC  C21619462   3.365   2.953   7.564 -0.2349  0.5553 -0.4602
  161DOPC  H16R19463   3.289   3.024   7.604 -0.3335  0.3640 -0.3014
  161DOPC  H16S19464   3.324   2.849   7.561  1.2805 -0.0412 -2.3332
  161DOPC  C21719465   3.381   2.986   7.414 -0.5277  0.1270  0.0225
  161DOPC  H17R19466   3.466   2.923   7.380  1.3060  2.2317  0.4872
  161DOPC  H17S19467   3.426   3.086   7.398 -1.1646  0.1583 -1.7319
  161DOPC  C21819468   3.261   2.959   7.318  0.4293  0.2111 -0.8019
  161DOPC  H18R19469   3.180   3.033   7.335 -1.5577 -1.7118 -1.5079
  161DOPC  H18S19470   3.206   2.863   7.327 -0.8279  1.0177  0.4218
  161DOPC  H18T19471   3.291   2.969   7.211 -2.1334 -0.1758 -1.6366
  161DOPC   C3319472   3.529   1.830   8.217 -0.5117 -0.0779  0.7413
  161DOPC   H3X19473   3.586   1.903   8.278  0.2648 -1.0172  1.1535
  161DOPC   H3Y19474   3.426   1.836   8.260 -0.5753 -2.2219  0.9894
  161DOPC   C3419475   3.506   1.872   8.068 -0.7033  0.3565 -0.2086
  161DOPC   H4X19476   3.473   1.978   8.064  0.3645  0.8220  1.7110
  161DOPC   H4Y19477   3.424   1.807   8.031 -0.4587  0.7439 -1.4914
  161DOPC   C3519478   3.631   1.870   7.973 -0.5818 -0.2109  0.0751
  161DOPC   H5X19479   3.593   1.864   7.869  0.3972 -0.5961 -0.2736
  161DOPC   H5Y19480   3.683   1.774   7.995  1.0392  0.7055  0.4210
  161DOPC   C3619481   3.727   1.984   7.991  0.2901  0.4066  0.0698
  161DOPC   H6X19482   3.669   2.079   7.990 -1.1905 -0.4735 -0.8294
  161DOPC   H6Y19483   3.778   1.970   8.089  1.3028 -0.1453 -0.5193
  161DOPC   C3719484   3.837   2.008   7.883 -0.1903  0.9595 -1.0010
  161DOPC   H7X19485   3.905   2.085   7.927  0.1089 -0.5209  1.3376
  161DOPC   H7Y19486   3.898   1.916   7.868 -0.0263  0.8411  0.2297
  161DOPC   C3819487   3.793   2.055   7.742 -0.2525  0.1758 -0.0453
  161DOPC   H8X19488   3.753   2.158   7.747  1.8510  1.1910 -2.0995
  161DOPC   H8Y19489   3.714   1.985   7.706 -0.9775  2.5989 -3.8183
  161DOPC   C3919490   3.906   2.046   7.649 -0.0409 -0.3881 -0.8977
  161DOPC   H9X19491   4.000   2.046   7.707 -1.0490 -3.1168  0.9639
  161DOPC  C31019492   3.903   2.064   7.518  0.1195 -0.0917 -0.2953
  161DOPC  H10X19493   4.001   2.070   7.468 -0.0091  1.6430 -0.4080
  161DOPC  C31119494   3.777   2.074   7.430  0.1742 -0.9098  0.0294
  161DOPC  H11X19495   3.700   2.123   7.493  1.6322  2.0362 -0.2868
  161DOPC  H11Y19496   3.741   1.979   7.387  0.8730 -1.6261  0.9797
  161DOPC  C31219497   3.807   2.165   7.312 -0.2155  0.8344  0.9550
  161DOPC  H12X19498   3.863   2.257   7.340  0.0807  0.7851  0.5342
  161DOPC  H12Y19499   3.706   2.185   7.270 -0.3788  0.1548  1.0179
  161DOPC  C31319500   3.884   2.097   7.196  0.8345  0.0473 -0.3743
  161DOPC  H13X19501   3.976   2.046   7.232 -0.3887 -1.6406  0.5000
  161DOPC  H13Y19502   3.813   2.025   7.152  0.9463  1.3322 -2.8498
  161DOPC  C31419503   3.915   2.192   7.078 -0.1394 -0.2944 -0.0361
  161DOPC  H14X19504   3.819   2.244   7.056 -1.2563 -1.4685  1.7867
  161DOPC  H14Y19505   3.992   2.267   7.105  1.0729 -1.2175 -0.8234
  161DOPC  C31519506   3.965   2.112   6.954  0.0748  0.1569 -0.2394
  161DOPC  H15X19507   3.888   2.041   6.919 -0.4667  1.8016 -2.6211
  161DOPC  H15Y19508   4.058   2.054   6.973 -1.0100 -2.3180 -1.8908
  161DOPC  C31619509   4.003   2.211   6.842  0.1300 -0.3386 -0.3900
  161DOPC  H16X19510   3.907   2.240   6.794 -1.1247 -0.0727  2.1176
  161DOPC  H16Y19511   4.047   2.304   6.884 -2.5802  0.6322  0.5123
  161DOPC  C31719512   4.094   2.158   6.740  0.0317  1.0573  0.7411
  161DOPC  H17X19513   4.190   2.116   6.778 -1.3354 -0.7487  2.3590
  161DOPC  H17Y19514   4.053   2.065   6.695 -0.9943  1.2510  1.2493
  161DOPC  C31819515   4.126   2.258   6.627  0.4307  0.6596 -0.0284
  161DOPC  H18X19516   4.187   2.346   6.657  1.3040  0.4718 -1.1856
  161DOPC  H18Y19517   4.167   2.215   6.533 -1.3627  1.5672 -1.3020
  161DOPC  H18Z19518   4.026   2.287   6.587  1.6245  1.8570 -2.3437
  162DOPC     N19519   1.616   0.478   8.836  0.1531 -0.3390 -0.1054
  162DOPC   C1219520   1.507   0.532   8.743  0.2799 -0.4304  0.0182
  162DOPC  H12A19521   1.557   0.577   8.659 -0.4153  0.7044  0.1918
  162DOPC  H12B19522   1.461   0.614   8.796  1.1511  1.0966 -1.5101
  162DOPC   C1319523   1.554   0.429   8.966 -0.4820 -0.7037 -0.1631
  162DOPC  H13A19524   1.453   0.399   8.944 -1.0662  1.2400 -0.4040
  162DOPC  H13B19525   1.598   0.344   9.014 -1.0554  0.8565  3.5038
  162DOPC  H13C19526   1.540   0.515   9.030 -0.5023 -1.1379  0.4224
  162DOPC   C1419527   1.706   0.589   8.882 -0.2462  0.4806 -0.1714
  162DOPC  H14A19528   1.787   0.554   8.943 -0.4783 -0.9085 -0.6248
  162DOPC  H14B19529   1.746   0.637   8.794  0.5494  0.0234 -0.0706
  162DOPC  H14C19530   1.663   0.676   8.930  0.9837  0.9767  0.0628
  162DOPC   C1519531   1.699   0.370   8.776 -0.1506 -0.0999 -0.0290
  162DOPC  H15A19532   1.720   0.394   8.673 -2.0609  0.3011 -0.3661
  162DOPC  H15B19533   1.658   0.271   8.790 -0.5225  0.2920  2.0087
  162DOPC  H15C19534   1.792   0.354   8.828 -1.2579 -0.6950  1.8560
  162DOPC   C1119535   1.397   0.432   8.694  0.2995 -0.5282  0.4177
  162DOPC  H11A19536   1.303   0.487   8.676 -0.5812 -2.0299  0.2470
  162DOPC  H11B19537   1.426   0.390   8.595 -1.6121 -1.4678  0.2144
  162DOPC     P19538   1.347   0.180   8.771  0.2268 -0.4741 -0.0206
  162DOPC   O1319539   1.209   0.130   8.768  0.1436  0.3480 -0.3723
  162DOPC   O1419540   1.432   0.125   8.874 -0.4582 -0.6181  0.2568
  162DOPC   O1219541   1.358   0.336   8.790  0.1431  0.4007  0.0096
  162DOPC   O1119542   1.406   0.153   8.629  0.0050 -0.0922 -0.1254
  162DOPC    C119543   1.509   0.059   8.607  0.2775 -0.1939 -0.2649
  162DOPC    HA19544   1.490  -0.030   8.670  0.8340 -0.4348 -0.4349
  162DOPC    HB19545   1.609   0.102   8.630  1.2322 -2.3277 -0.1780
  162DOPC    C219546   1.515   0.025   8.461  0.1363 -0.3399 -0.5011
  162DOPC    HS19547   1.584  -0.063   8.460  0.5663 -0.0218 -2.4103
  162DOPC   O2119548   1.556   0.139   8.387 -0.2747 -0.2645 -0.2616
  162DOPC   C2119549   1.652   0.108   8.298  0.6455 -0.1666 -0.0762
  162DOPC   O2219550   1.704   0.002   8.281 -0.0150 -0.4922  0.4825
  162DOPC   C2219551   1.683   0.238   8.230 -0.3285 -0.5245 -0.3389
  162DOPC   H2R19552   1.739   0.209   8.138 -1.4281  2.1515 -1.9945
  162DOPC   H2S19553   1.743   0.311   8.290 -2.2269  0.5406  0.3636
  162DOPC    C319554   1.375  -0.028   8.410 -0.3234  0.3777 -0.4980
  162DOPC    HX19555   1.293   0.045   8.428  0.0982  1.0823 -1.3887
  162DOPC    HY19556   1.356  -0.113   8.480  2.8822  0.5338  0.7378
  162DOPC   O3119557   1.378  -0.053   8.265  0.5249  0.6624 -0.4056
  162DOPC   C3119558   1.432  -0.171   8.235 -0.6079  0.3418  0.2986
  162DOPC   O3219559   1.499  -0.243   8.303 -0.1176  0.8133  0.1680
  162DOPC   C3219560   1.398  -0.210   8.089 -0.2425  0.1951 -0.0685
  162DOPC   H2X19561   1.310  -0.275   8.107 -0.3888  0.7700  1.4246
  162DOPC   H2Y19562   1.352  -0.118   8.047 -1.9574 -1.4294 -1.9584
  162DOPC   C2319563   1.564   0.320   8.168 -0.3419  0.0235  0.1642
  162DOPC   H3R19564   1.605   0.403   8.107 -2.5413  0.0330 -1.4092
  162DOPC   H3S19565   1.510   0.363   8.255 -0.6884 -0.0663 -0.0070
  162DOPC   C2419566   1.466   0.229   8.091 -0.1293  0.2478 -0.1879
  162DOPC   H4R19567   1.391   0.296   8.045  0.9738  0.9783 -0.9808
  162DOPC   H4S19568   1.410   0.161   8.159 -1.5347 -0.3633 -1.8745
  162DOPC   C2519569   1.525   0.145   7.973  0.3651 -0.5186  0.4306
  162DOPC   H5R19570   1.434   0.095   7.934  0.1808  1.1748 -1.4399
  162DOPC   H5S19571   1.593   0.065   8.010 -0.3986 -2.5247 -2.2280
  162DOPC   C2619572   1.583   0.226   7.856 -0.3675  0.3285 -0.3400
  162DOPC   H6R19573   1.681   0.270   7.886  2.0137 -1.5049 -4.6212
  162DOPC   H6S19574   1.514   0.309   7.831 -1.7641 -0.8566 -0.5262
  162DOPC   C2719575   1.590   0.139   7.735 -0.0819 -0.4456  0.8248
  162DOPC   H7R19576   1.492   0.135   7.684 -0.4039  1.6790  1.1622
  162DOPC   H7S19577   1.618   0.037   7.770  0.3013 -0.2955  0.9629
  162DOPC   C2819578   1.699   0.184   7.630  0.3546  0.6110 -0.1173
  162DOPC   H8R19579   1.685   0.112   7.547 -3.5317  0.7672  0.2403
  162DOPC   H8S19580   1.803   0.168   7.667  0.6966  2.0723 -0.3824
  162DOPC   C2919581   1.668   0.327   7.584 -0.4135 -0.3637  0.2913
  162DOPC   H9R19582   1.631   0.400   7.658 -1.3623  0.9565 -1.3892
  162DOPC  C21019583   1.672   0.375   7.459 -0.2731 -0.2824 -0.2813
  162DOPC  H10R19584   1.635   0.476   7.436 -2.4804 -0.7881  0.7626
  162DOPC  C21119585   1.721   0.304   7.340 -0.1809 -0.3793  0.8742
  162DOPC  H11R19586   1.817   0.252   7.361  0.1337 -0.4123 -0.5350
  162DOPC  H11S19587   1.735   0.384   7.264 -1.0525  0.1119  1.2175
  162DOPC  C21219588   1.612   0.213   7.279 -0.2877 -0.0457 -0.6025
  162DOPC  H12R19589   1.527   0.276   7.243 -0.6720  0.0299  0.4024
  162DOPC  H12S19590   1.580   0.147   7.362  1.9399  1.1198  1.2904
  162DOPC  C21319591   1.668   0.115   7.176 -0.4479  0.3755  0.4802
  162DOPC  H13R19592   1.580   0.050   7.156  1.9446 -2.6496 -1.1038
  162DOPC  H13S19593   1.751   0.057   7.222 -1.2087 -0.5467  0.7079
  162DOPC  C21419594   1.712   0.171   7.044  0.6554  0.2303  0.1067
  162DOPC  H14R19595   1.755   0.092   6.980 -0.4097  0.9006 -1.5074
  162DOPC  H14S19596   1.785   0.254   7.053 -1.1779  1.8785  0.6839
  162DOPC  C21519597   1.603   0.235   6.956  0.0910  0.4857 -0.2663
  162DOPC  H15R19598   1.552   0.312   7.018 -2.9080 -0.5478 -1.3100
  162DOPC  H15S19599   1.528   0.157   6.930  1.2619 -0.8388  0.1875
  162DOPC  C21619600   1.665   0.287   6.832 -0.2994  0.9484  0.0724
  162DOPC  H16R19601   1.726   0.209   6.783 -1.5317 -0.3451  0.5027
  162DOPC  H16S19602   1.733   0.371   6.857 -0.0429 -0.1365  3.6252
  162DOPC  C21719603   1.555   0.334   6.739 -0.4076 -0.1020  0.0279
  162DOPC  H17R19604   1.495   0.414   6.787  0.5739  1.9893 -2.0150
  162DOPC  H17S19605   1.483   0.253   6.714 -1.7698  0.7623  1.0209
  162DOPC  C21819606   1.608   0.387   6.598 -0.2176  0.1859  0.2395
  162DOPC  H18R19607   1.680   0.471   6.616  0.5088 -0.4341  0.2736
  162DOPC  H18S19608   1.527   0.424   6.532  0.8643  0.9163 -0.7203
  162DOPC  H18T19609   1.661   0.306   6.544  1.6004  0.0775  2.0399
  162DOPC   C3319610   1.511  -0.258   7.993 -0.1282  0.1285 -0.1870
  162DOPC   H3X19611   1.509  -0.368   8.007  0.1090 -0.0882 -1.7545
  162DOPC   H3Y19612   1.600  -0.203   8.031  1.7450 -3.7167  1.5278
  162DOPC   C3419613   1.486  -0.224   7.848 -0.1297  0.8318  0.6305
  162DOPC   H4X19614   1.443  -0.122   7.840 -0.5903  0.7003  1.2777
  162DOPC   H4Y19615   1.414  -0.293   7.799 -1.1104  2.0398  0.3253
  162DOPC   C3519616   1.617  -0.236   7.772  0.3546 -0.4642  0.1096
  162DOPC   H5X19617   1.665  -0.335   7.785  1.5628  0.1497  0.4788
  162DOPC   H5Y19618   1.689  -0.159   7.806 -3.4169  3.2395  0.5438
  162DOPC   C3619619   1.593  -0.219   7.621 -0.4935 -0.5480  0.4666
  162DOPC   H6X19620   1.500  -0.267   7.582 -0.3300  0.1413 -0.8359
  162DOPC   H6Y19621   1.584  -0.108   7.622  1.4839 -0.3295  2.5624
  162DOPC   C3719622   1.711  -0.270   7.533 -0.0842  0.6223  0.3105
  162DOPC   H7X19623   1.802  -0.244   7.591  0.0632 -0.4692  0.5835
  162DOPC   H7Y19624   1.709  -0.379   7.515  2.1082  0.9848 -2.9506
  162DOPC   C3819625   1.720  -0.202   7.398  1.1218  0.1021  0.9982
  162DOPC   H8X19626   1.813  -0.243   7.352 -0.4065 -1.7070 -0.6308
  162DOPC   H8Y19627   1.738  -0.092   7.395 -0.3412  0.3355 -1.0569
  162DOPC   C3919628   1.605  -0.227   7.309  0.3450 -0.2713  0.5798
  162DOPC   H9X19629   1.508  -0.192   7.347 -0.1066 -0.5502 -0.2782
  162DOPC  C31019630   1.615  -0.277   7.185 -0.3000 -0.3294 -0.1114
  162DOPC  H10X19631   1.524  -0.281   7.123 -0.3228  0.7235 -0.1520
  162DOPC  C31119632   1.737  -0.317   7.102  0.2667  0.2094  0.4158
  162DOPC  H11X19633   1.721  -0.415   7.052 -1.5181  1.0724 -0.8350
  162DOPC  H11Y19634   1.825  -0.333   7.167  0.0567  0.8575  0.8805
  162DOPC  C31219635   1.781  -0.214   6.994  0.3760  0.4346  0.0178
  162DOPC  H12X19636   1.770  -0.106   7.019 -1.3160  0.6326 -1.4034
  162DOPC  H12Y19637   1.725  -0.230   6.899 -1.9934 -2.3982  1.7061
  162DOPC  C31319638   1.931  -0.232   6.950 -0.6209  0.1208 -0.1681
  162DOPC  H13X19639   1.997  -0.229   7.039 -1.0221 -1.0769  0.1916
  162DOPC  H13Y19640   1.948  -0.336   6.915  3.1077  0.1260  1.1730
  162DOPC  C31419641   1.980  -0.135   6.842 -0.5456 -0.5677  0.1223
  162DOPC  H14X19642   1.940  -0.034   6.864  0.8360  0.0177  0.0259
  162DOPC  H14Y19643   2.090  -0.122   6.838 -0.7974  2.7870  0.8468
  162DOPC  C31519644   1.924  -0.158   6.697 -0.4699  0.0181  0.0116
  162DOPC  H15X19645   1.814  -0.144   6.707 -0.2913  2.7456 -0.8949
  162DOPC  H15Y19646   1.947  -0.265   6.680 -0.9196 -0.0231 -0.3646
  162DOPC  C31619647   1.982  -0.071   6.593  0.3306 -0.4005 -0.0034
  162DOPC  H16X19648   2.091  -0.094   6.601 -0.0096 -2.1403  0.1048
  162DOPC  H16Y19649   1.943  -0.104   6.494 -0.0291 -1.0753  0.3595
  162DOPC  C31719650   1.955   0.076   6.612  0.2151  0.5095  0.5516
  162DOPC  H17X19651   1.846   0.088   6.628  0.4998  0.5307  2.6762
  162DOPC  H17Y19652   2.011   0.126   6.693 -0.5132  0.3690  1.1498
  162DOPC  C31819653   1.989   0.155   6.481 -0.7619  0.4313 -0.3607
  162DOPC  H18X19654   1.984   0.264   6.504  1.7135  0.0896  2.3063
  162DOPC  H18Y19655   2.097   0.144   6.462 -0.6071  0.8162  0.2503
  162DOPC  H18Z19656   1.916   0.122   6.404  0.6019 -0.9696 -1.1064
  163DOPC     N19657   0.105   2.731   8.434 -0.2062  0.6067  0.6201
  163DOPC   C1219658   0.109   2.610   8.341  0.0278  0.1041  0.7292
  163DOPC  H12A19659   0.028   2.543   8.362  0.8565 -1.6681 -1.3829
  163DOPC  H12B19660   0.194   2.549   8.369  0.7115  0.4233 -0.5801
  163DOPC   C1319661   0.095   2.695   8.585 -0.5723 -0.3920 -0.0849
  163DOPC  H13A19662   0.171   2.626   8.616  0.9665  1.1511 -0.2735
  163DOPC  H13B19663   0.098   2.783   8.648  0.8540 -1.3217  1.2027
  163DOPC  H13C19664   0.002   2.649   8.616 -0.3813 -1.4126 -0.9559
  163DOPC   C1419665  -0.008   2.823   8.404  0.8611  0.1292  0.5838
  163DOPC  H14A19666  -0.002   2.877   8.311  1.0065  0.9019  1.0410
  163DOPC  H14B19667  -0.097   2.763   8.396  0.8999  0.2694 -1.1996
  163DOPC  H14C19668  -0.032   2.894   8.481  1.9706 -0.3450  1.4038
  163DOPC   C1519669   0.236   2.808   8.415  0.2530 -0.0466 -0.3228
  163DOPC  H15A19670   0.237   2.852   8.317  1.8321  1.6575  0.4068
  163DOPC  H15B19671   0.317   2.737   8.413 -0.7223 -1.1935 -2.9262
  163DOPC  H15C19672   0.253   2.881   8.493  3.7954 -1.9351  0.8923
  163DOPC   C1119673   0.134   2.628   8.188 -0.3530  0.5242 -0.4787
  163DOPC  H11A19674   0.133   2.523   8.150  0.1865 -0.6543  2.4798
  163DOPC  H11B19675   0.050   2.686   8.145 -1.3660  0.9512  1.9250
  163DOPC     P19676   0.396   2.599   8.149  0.0218 -0.1132  0.1999
  163DOPC   O1319677   0.376   2.457   8.189  0.0563 -0.5548 -0.4367
  163DOPC   O1419678   0.499   2.664   8.232 -0.3567  0.2038 -0.5881
  163DOPC   O1219679   0.267   2.686   8.160 -0.1015  0.2352 -0.1216
  163DOPC   O1119680   0.432   2.616   7.992  0.0739 -0.0797 -0.3453
  163DOPC    C119681   0.341   2.569   7.896 -0.1542 -0.3666  0.3604
  163DOPC    HA19682   0.238   2.610   7.902  0.3466  1.5816 -2.2768
  163DOPC    HB19683   0.335   2.459   7.908  0.2175 -0.4858 -0.5199
  163DOPC    C219684   0.387   2.617   7.760  0.1976 -0.6080  0.3042
  163DOPC    HS19685   0.291   2.628   7.704  0.1231 -0.2403  0.4966
  163DOPC   O2119686   0.473   2.521   7.703 -0.4999  0.1779 -0.2567
  163DOPC   C2119687   0.450   2.486   7.579  0.2588 -0.0492  0.6139
  163DOPC   O2219688   0.371   2.539   7.502  0.2020 -0.2740  0.1499
  163DOPC   C2219689   0.551   2.373   7.540 -1.0991  0.3762  0.7511
  163DOPC   H2R19690   0.513   2.281   7.588 -0.5089 -0.8567 -1.0467
  163DOPC   H2S19691   0.649   2.405   7.582 -1.9122  2.0369  1.5046
  163DOPC    C319692   0.470   2.752   7.769  0.7223  1.1121  0.1929
  163DOPC    HX19693   0.573   2.730   7.805  0.1035 -2.0631  0.3124
  163DOPC    HY19694   0.420   2.824   7.837  2.6920  1.2473  1.5808
  163DOPC   O3119695   0.466   2.822   7.640  0.5571  0.6495 -1.3057
  163DOPC   C3119696   0.552   2.794   7.546  0.8098 -0.0230 -0.4685
  163DOPC   O3219697   0.643   2.717   7.547  0.4277  0.2488  0.6394
  163DOPC   C3219698   0.512   2.878   7.426 -0.2616  0.3223 -0.2760
  163DOPC   H2X19699   0.404   2.855   7.413 -0.0294 -1.0745  0.1324
  163DOPC   H2Y19700   0.515   2.987   7.446  0.4993  0.3817 -0.7055
  163DOPC   C2319701   0.542   2.337   7.388 -0.6360 -0.2780 -0.1473
  163DOPC   H3R19702   0.437   2.326   7.354 -0.7456 -1.2336  0.4635
  163DOPC   H3S19703   0.589   2.236   7.382 -0.1106  0.0057 -0.8872
  163DOPC   C2419704   0.627   2.422   7.291 -0.0243  0.2870  0.0536
  163DOPC   H4R19705   0.728   2.438   7.333 -0.1754  1.3374  0.0481
  163DOPC   H4S19706   0.575   2.521   7.291 -0.5237  0.0319  0.1171
  163DOPC   C2519707   0.623   2.365   7.148  0.4597  0.7604 -0.3768
  163DOPC   H5R19708   0.524   2.317   7.130 -0.3076  2.1596 -0.0504
  163DOPC   H5S19709   0.700   2.286   7.144  1.1864  1.4618 -0.4858
  163DOPC   C2619710   0.665   2.452   7.031 -0.4955 -0.7213 -0.4504
  163DOPC   H6R19711   0.609   2.547   7.032 -1.3128 -1.1562 -2.1511
  163DOPC   H6S19712   0.641   2.413   6.930 -2.5510 -0.7702  0.0278
  163DOPC   C2719713   0.815   2.493   7.032 -0.0380  0.0528 -0.0316
  163DOPC   H7R19714   0.848   2.543   7.125 -0.6642 -0.9715  0.7615
  163DOPC   H7S19715   0.830   2.567   6.950  1.1317  0.4627  0.5268
  163DOPC   C2819716   0.910   2.380   6.986 -0.3546 -1.0563  0.9038
  163DOPC   H8R19717   0.878   2.355   6.883  2.7958 -0.1550 -0.3973
  163DOPC   H8S19718   0.906   2.278   7.031  2.3833 -1.6519 -0.0273
  163DOPC   C2919719   1.055   2.432   6.988 -0.8337 -0.0006 -0.4452
  163DOPC   H9R19720   1.070   2.489   7.080 -1.8171 -1.5510  0.7220
  163DOPC  C21019721   1.151   2.403   6.897 -0.1934 -0.0878 -1.1255
  163DOPC  H10R19722   1.250   2.447   6.919 -1.7489  2.0578  2.5251
  163DOPC  C21119723   1.151   2.323   6.770  0.2538 -0.3786  0.8075
  163DOPC  H11R19724   1.056   2.269   6.748  1.0072 -0.6231 -2.3674
  163DOPC  H11S19725   1.226   2.243   6.782 -0.1903 -0.9473 -0.0886
  163DOPC  C21219726   1.174   2.411   6.640  0.7760 -0.1531  1.1904
  163DOPC  H12R19727   1.183   2.351   6.547 -0.1153  0.4935  0.6679
  163DOPC  H12S19728   1.260   2.481   6.642  0.4562  0.3862 -0.8536
  163DOPC  C21319729   1.053   2.506   6.620 -0.2758  0.1360 -0.1013
  163DOPC  H13R19730   1.058   2.576   6.706  0.3194 -1.5231  1.2466
  163DOPC  H13S19731   0.955   2.454   6.620 -0.1130 -0.1764  0.6899
  163DOPC  C21419732   1.055   2.578   6.490  0.3841  0.2784  1.0390
  163DOPC  H14R19733   1.043   2.509   6.404 -1.6324  0.9162  0.7568
  163DOPC  H14S19734   1.151   2.634   6.489 -0.4330  1.7221 -0.5094
  163DOPC  C21519735   0.940   2.680   6.466  0.0284 -0.2448 -0.3156
  163DOPC  H15R19736   0.942   2.738   6.561 -1.6077 -0.2634 -0.2338
  163DOPC  H15S19737   0.839   2.634   6.455  0.7372 -1.2844 -3.4161
  163DOPC  C21619738   0.966   2.781   6.345 -0.1261 -0.2165  0.7255
  163DOPC  H16R19739   1.067   2.825   6.357 -0.1073 -0.4225  1.3930
  163DOPC  H16S19740   0.898   2.868   6.347  0.3489  0.1437  1.3490
  163DOPC  C21719741   0.944   2.715   6.212  0.6549 -0.0003  0.5829
  163DOPC  H17R19742   0.839   2.678   6.210  0.0372  1.6226  1.2297
  163DOPC  H17S19743   1.007   2.625   6.225 -2.6812 -2.7024 -0.3527
  163DOPC  C21819744   0.981   2.795   6.087 -0.4731 -0.0876 -0.3443
  163DOPC  H18R19745   0.966   2.742   5.990 -2.0443 -1.2957  0.5228
  163DOPC  H18S19746   1.092   2.806   6.088 -0.2800 -1.7584  1.0335
  163DOPC  H18T19747   0.926   2.890   6.074 -2.3104 -1.0137  0.4068
  163DOPC   C3319748   0.594   2.836   7.296  0.1240  0.4907  0.1911
  163DOPC   H3X19749   0.557   2.735   7.267 -0.7466  0.4134  1.4641
  163DOPC   H3Y19750   0.703   2.842   7.318 -0.2668  2.3353  1.9451
  163DOPC   C3419751   0.578   2.938   7.187  0.7522 -0.6299 -0.3028
  163DOPC   H4X19752   0.642   3.029   7.190  0.7921 -0.6774  1.1666
  163DOPC   H4Y19753   0.472   2.972   7.192  1.0427  0.3995 -0.8311
  163DOPC   C3519754   0.593   2.867   7.053  0.0550  0.1837 -0.0053
  163DOPC   H5X19755   0.506   2.802   7.028 -1.1471  2.1949 -1.3327
  163DOPC   H5Y19756   0.674   2.792   7.068 -1.2096 -1.0890  0.8519
  163DOPC   C3619757   0.633   2.968   6.943  0.3719 -0.3913 -0.3012
  163DOPC   H6X19758   0.554   3.046   6.945  1.6711  0.9768  0.0969
  163DOPC   H6Y19759   0.720   3.035   6.964 -0.8900  2.2277 -2.7136
  163DOPC   C3719760   0.638   2.896   6.811  0.0367  0.0394  0.4553
  163DOPC   H7X19761   0.711   2.812   6.810  0.3573  0.2344 -2.9787
  163DOPC   H7Y19762   0.542   2.847   6.785  0.4318  1.3513 -4.3229
  163DOPC   C3819763   0.675   2.981   6.693 -0.8136  0.2602 -0.3510
  163DOPC   H8X19764   0.683   2.913   6.605 -0.3567  1.2515 -1.0959
  163DOPC   H8Y19765   0.781   3.006   6.717 -1.3611  0.8352  1.6932
  163DOPC   C3919766   0.582   3.087   6.658 -0.9340  0.1112  0.6309
  163DOPC   H9X19767   0.488   3.084   6.713 -0.0920  1.6127  2.2323
  163DOPC  C31019768   0.600   3.175   6.555  0.2836  0.0452 -0.1087
  163DOPC  H10X19769   0.518   3.240   6.521  0.2119 -0.1524 -0.3133
  163DOPC  C31119770   0.724   3.189   6.476 -0.3522  0.0561 -0.3516
  163DOPC  H11X19771   0.778   3.092   6.483 -0.8049 -0.1338  0.6970
  163DOPC  H11Y19772   0.789   3.267   6.521 -1.6219  0.1063  1.4940
  163DOPC  C31219773   0.688   3.213   6.324 -0.2385 -0.2707 -0.2782
  163DOPC  H12X19774   0.607   3.289   6.321 -0.1284 -0.1309  0.2122
  163DOPC  H12Y19775   0.628   3.126   6.290 -3.7802  2.7530 -2.7518
  163DOPC  C31319776   0.811   3.237   6.240 -0.1398 -0.2291 -1.1016
  163DOPC  H13X19777   0.858   3.331   6.276 -0.6860  0.6407 -2.5572
  163DOPC  H13Y19778   0.880   3.151   6.246 -0.5951 -0.4994  1.5427
  163DOPC  C31419779   0.779   3.273   6.090 -0.2657  0.3878 -0.5372
  163DOPC  H14X19780   0.719   3.185   6.059  0.1561 -0.7749  1.6934
  163DOPC  H14Y19781   0.725   3.370   6.102  2.4989  1.8878  0.6469
  163DOPC  C31519782   0.905   3.299   5.994 -0.0736  0.1460 -0.5692
  163DOPC  H15X19783   0.965   3.206   5.992  0.6468  0.6274 -2.1346
  163DOPC  H15Y19784   0.961   3.385   6.036  0.8288 -0.6218 -0.1808
  163DOPC  C31619785   0.859   3.346   5.855 -0.7599 -0.6964 -0.1278
  163DOPC  H16X19786   0.785   3.276   5.811 -0.4117  0.7477 -3.2900
  163DOPC  H16Y19787   0.815   3.447   5.869  0.6742 -0.1376  0.5677
  163DOPC  C31719788   0.982   3.373   5.765  0.4325  0.7438 -0.4860
  163DOPC  H17X19789   1.063   3.422   5.823  0.1262  0.8678 -0.1619
  163DOPC  H17Y19790   1.014   3.270   5.736 -2.1988 -0.4701  0.5976
  163DOPC  C31819791   0.940   3.444   5.639  0.2725  0.2554 -0.2581
  163DOPC  H18X19792   1.028   3.474   5.579  0.7243 -0.3282  0.1067
  163DOPC  H18Y19793   0.876   3.383   5.572  0.5744 -0.1970 -0.1373
  163DOPC  H18Z19794   0.877   3.524   5.682 -0.6751 -1.2629  1.3029
  164DOPC     N19795   1.668   1.639   8.352  0.6635 -0.1403 -0.1837
  164DOPC   C1219796   1.575   1.520   8.343 -0.1920 -0.5671 -0.1385
  164DOPC  H12A19797   1.519   1.504   8.433  0.0184  0.0292  0.1000
  164DOPC  H12B19798   1.635   1.430   8.348 -0.3082 -0.5794  3.2504
  164DOPC   C1319799   1.749   1.663   8.229  0.2657 -0.5434 -0.0496
  164DOPC  H13A19800   1.818   1.580   8.220 -0.9287 -1.9403  2.3760
  164DOPC  H13B19801   1.686   1.675   8.142 -0.2807  0.1034  0.4192
  164DOPC  H13C19802   1.805   1.754   8.236 -1.1122  0.2357  1.4951
  164DOPC   C1419803   1.741   1.618   8.482  0.7786 -0.6019 -0.7420
  164DOPC  H14A19804   1.802   1.701   8.513 -1.0023  0.8398 -0.9235
  164DOPC  H14B19805   1.680   1.610   8.571  2.0640  0.6028  0.2799
  164DOPC  H14C19806   1.801   1.531   8.461 -0.2194 -1.6662  0.6393
  164DOPC   C1519807   1.585   1.756   8.381  0.3145  0.2120  0.5737
  164DOPC  H15A19808   1.530   1.749   8.474  1.4801 -0.2827  1.2384
  164DOPC  H15B19809   1.521   1.782   8.298  0.8851  0.1970  0.1328
  164DOPC  H15C19810   1.645   1.841   8.409 -0.4539  0.2601  2.2314
  164DOPC   C1119811   1.482   1.517   8.220 -0.1784  0.2075 -0.5581
  164DOPC  H11A19812   1.414   1.602   8.239  2.4182  2.0006  1.3317
  164DOPC  H11B19813   1.534   1.529   8.122 -1.0319  0.6970 -0.9562
  164DOPC     P19814   1.310   1.355   8.116 -0.2727  0.1633 -0.0801
  164DOPC   O1319815   1.203   1.464   8.126  0.0314 -0.1425 -0.1645
  164DOPC   O1419816   1.274   1.212   8.123 -0.4503  0.4807 -0.1056
  164DOPC   O1219817   1.426   1.386   8.215 -0.3989 -0.2096  0.4211
  164DOPC   O1119818   1.386   1.373   7.979 -0.2840  0.3197  0.6562
  164DOPC    C119819   1.504   1.308   7.941  0.1506  0.9128 -0.5741
  164DOPC    HA19820   1.514   1.216   8.002 -1.5724  1.8911  1.3091
  164DOPC    HB19821   1.593   1.370   7.969  0.2811  1.1786 -1.5362
  164DOPC    C219822   1.514   1.273   7.791  0.0674 -0.3658  0.0193
  164DOPC    HS19823   1.585   1.191   7.767 -0.5204 -0.5998 -0.9914
  164DOPC   O2119824   1.557   1.388   7.711 -0.1153  0.2557  0.1015
  164DOPC   C2119825   1.681   1.407   7.723 -1.0539 -0.0903 -0.9186
  164DOPC   O2219826   1.762   1.349   7.794 -0.1971 -0.0531  0.0711
  164DOPC   C2219827   1.721   1.516   7.622 -0.0025 -0.4404  0.3923
  164DOPC   H2R19828   1.731   1.607   7.686  0.1632  0.7139 -1.2123
  164DOPC   H2S19829   1.642   1.538   7.548  1.9286  0.7096 -1.4630
  164DOPC    C319830   1.375   1.238   7.726  0.2617  0.0629  0.0767
  164DOPC    HX19831   1.318   1.333   7.727  1.1266  0.6288 -1.4247
  164DOPC    HY19832   1.328   1.155   7.784 -1.0196  1.1311  0.6360
  164DOPC   O3119833   1.398   1.180   7.591 -0.3216  0.1963  0.0836
  164DOPC   C3119834   1.390   1.266   7.491 -0.0821  0.2212  0.6065
  164DOPC   O3219835   1.359   1.383   7.500 -0.2447  0.1675  0.3375
  164DOPC   C3219836   1.445   1.199   7.359 -0.3180  0.4161  0.0257
  164DOPC   H2X19837   1.540   1.146   7.380 -1.1003 -0.7760  0.6494
  164DOPC   H2Y19838   1.380   1.115   7.327  2.8067 -1.5220 -1.7592
  164DOPC   C2319839   1.862   1.495   7.559  0.2490 -0.8470 -0.5553
  164DOPC   H3R19840   1.870   1.394   7.512 -0.7394 -1.4650  0.5525
  164DOPC   H3S19841   1.939   1.519   7.634 -1.6166  0.4284  1.0618
  164DOPC   C2419842   1.901   1.590   7.444  0.5825  0.4373  0.1451
  164DOPC   H4R19843   1.996   1.559   7.395 -0.0555 -1.8373  0.2769
  164DOPC   H4S19844   1.916   1.692   7.487 -0.0668  1.4331 -1.8296
  164DOPC   C2519845   1.796   1.599   7.338  0.7200 -0.5184 -0.3753
  164DOPC   H5R19846   1.701   1.642   7.375  1.0484  0.9671 -1.1771
  164DOPC   H5S19847   1.774   1.501   7.291 -1.3138  0.9276 -2.6638
  164DOPC   C2619848   1.828   1.688   7.216 -0.9630 -0.8386 -0.2400
  164DOPC   H6R19849   1.903   1.638   7.151 -0.0315 -0.3749  0.4468
  164DOPC   H6S19850   1.883   1.778   7.254 -2.0413  0.0503 -0.7289
  164DOPC   C2719851   1.709   1.720   7.130  0.2176 -0.2607  0.2056
  164DOPC   H7R19852   1.740   1.797   7.056 -1.8744 -0.4983 -1.0073
  164DOPC   H7S19853   1.617   1.751   7.184 -0.0351 -1.0858  0.2599
  164DOPC   C2819854   1.654   1.602   7.038 -0.9336 -0.1169 -1.0392
  164DOPC   H8R19855   1.573   1.650   6.979 -2.0158  2.5427  2.2237
  164DOPC   H8S19856   1.608   1.526   7.104  0.7206  1.0997  1.7244
  164DOPC   C2919857   1.758   1.540   6.948 -0.0750  0.3631  0.4426
  164DOPC   H9R19858   1.849   1.505   6.999 -0.9026 -2.2472  0.2828
  164DOPC  C21019859   1.739   1.496   6.822 -0.7941 -0.2287 -0.0449
  164DOPC  H10R19860   1.829   1.451   6.778 -0.3848 -0.4464  0.9884
  164DOPC  C21119861   1.611   1.531   6.741 -0.8053  0.0923 -0.1741
  164DOPC  H11R19862   1.524   1.534   6.810  0.2171 -0.7197  1.2126
  164DOPC  H11S19863   1.587   1.449   6.669 -0.0184  0.0963 -0.4462
  164DOPC  C21219864   1.639   1.659   6.672 -0.7632 -0.0224 -0.3442
  164DOPC  H12R19865   1.739   1.668   6.623  0.5536 -2.1759  1.7229
  164DOPC  H12S19866   1.648   1.736   6.752 -0.3261 -0.0698 -0.3429
  164DOPC  C21319867   1.525   1.689   6.575  0.5614 -1.0174 -1.1755
  164DOPC  H13R19868   1.531   1.615   6.492  2.2490 -0.3712 -1.6776
  164DOPC  H13S19869   1.541   1.787   6.526 -0.2774 -0.8178 -1.0674
  164DOPC  C21419870   1.382   1.695   6.639  0.3871  0.3266 -0.0212
  164DOPC  H14R19871   1.348   1.602   6.690 -1.1997  0.5441 -0.6325
  164DOPC  H14S19872   1.311   1.725   6.560  1.8027  0.5383 -1.2639
  164DOPC  C21519873   1.378   1.794   6.754  0.5973 -0.1004 -0.6456
  164DOPC  H15R19874   1.402   1.899   6.725  1.0520 -0.0294 -0.0339
  164DOPC  H15S19875   1.453   1.757   6.828 -1.8376 -2.8986  0.5908
  164DOPC  C21619876   1.241   1.793   6.820  0.3468  0.5217 -0.8354
  164DOPC  H16R19877   1.209   1.688   6.838  0.0893  1.0265  2.1178
  164DOPC  H16S19878   1.163   1.839   6.755 -0.1642 -0.6989 -1.1201
  164DOPC  C21719879   1.237   1.871   6.945  0.0578  0.6758 -1.0739
  164DOPC  H17R19880   1.135   1.879   6.988 -0.8517 -0.0994 -2.9746
  164DOPC  H17S19881   1.257   1.979   6.925  1.0332  1.1708  1.9773
  164DOPC  C21819882   1.326   1.818   7.059  0.2052 -0.0433  0.2484
  164DOPC  H18R19883   1.296   1.860   7.157 -2.2155 -2.7095  0.7658
  164DOPC  H18S19884   1.436   1.832   7.049 -0.0577  2.6519  0.4395
  164DOPC  H18T19885   1.292   1.713   7.074 -3.0194  1.1791  2.8125
  164DOPC   C3319886   1.468   1.299   7.238 -0.1278  0.0876  0.4123
  164DOPC   H3X19887   1.554   1.363   7.267 -1.3686  2.4482 -0.8010
  164DOPC   H3Y19888   1.383   1.371   7.227  1.3705  1.6129 -2.3339
  164DOPC   C3419889   1.492   1.234   7.104 -0.3836 -0.5924 -0.2910
  164DOPC   H4X19890   1.504   1.319   7.033  2.9655 -0.6819 -0.0125
  164DOPC   H4Y19891   1.401   1.177   7.078 -0.0677 -1.7678  1.0746
  164DOPC   C3519892   1.626   1.154   7.101  0.3188  0.5102  0.5841
  164DOPC   H5X19893   1.630   1.087   7.189 -2.3940 -0.2635  0.2251
  164DOPC   H5Y19894   1.712   1.224   7.114 -0.2267  1.6564 -1.4704
  164DOPC   C3619895   1.640   1.067   6.975  0.0461 -0.0010  0.3974
  164DOPC   H6X19896   1.710   0.981   6.991 -0.0449 -0.1727 -0.1349
  164DOPC   H6Y19897   1.544   1.021   6.945 -0.1403  0.9619 -0.5152
  164DOPC   C3719898   1.691   1.160   6.859 -0.0129 -0.1723 -0.2862
  164DOPC   H7X19899   1.609   1.233   6.840 -1.5716 -1.8823 -0.4601
  164DOPC   H7Y19900   1.788   1.204   6.889  0.5064 -0.3289 -1.6470
  164DOPC   C3819901   1.708   1.076   6.725  0.1450 -0.1870 -0.9285
  164DOPC   H8X19902   1.603   1.063   6.692 -0.4800  0.7186  0.6045
  164DOPC   H8Y19903   1.759   0.980   6.746 -2.9906 -1.9453 -0.8353
  164DOPC   C3919904   1.790   1.147   6.631  0.1944 -0.2683 -0.1000
  164DOPC   H9X19905   1.795   1.256   6.642  0.0863 -0.3402  0.6638
  164DOPC  C31019906   1.839   1.096   6.514  1.0629 -0.1565 -0.0676
  164DOPC  H10X19907   1.916   1.154   6.461  1.9285 -0.8921  0.3628
  164DOPC  C31119908   1.817   0.952   6.465 -0.6082  0.2638 -0.1402
  164DOPC  H11X19909   1.743   0.945   6.383 -1.1729 -1.9994  0.4767
  164DOPC  H11Y19910   1.781   0.898   6.556  0.3828  0.9461  0.6781
  164DOPC  C31219911   1.942   0.879   6.411  0.3640  0.7457  0.0803
  164DOPC  H12X19912   2.017   0.871   6.493 -2.5781  1.6937  3.0686
  164DOPC  H12Y19913   1.990   0.927   6.323  0.3658 -1.3166 -1.1055
  164DOPC  C31319914   1.903   0.746   6.348  0.3198 -0.0323 -0.1437
  164DOPC  H13X19915   1.847   0.695   6.429  0.5596  0.4068  0.3016
  164DOPC  H13Y19916   1.833   0.755   6.261 -1.5896 -0.0083  1.3266
  164DOPC  C31419917   2.032   0.664   6.326 -0.2161 -0.4546  0.2124
  164DOPC  H14X19918   2.113   0.693   6.396 -2.1208  3.1171  1.1581
  164DOPC  H14Y19919   2.072   0.690   6.226 -0.5114 -0.4448  0.0941
  164DOPC  C31519920   2.003   0.512   6.333  0.6369  0.0915  0.3783
  164DOPC  H15X19921   1.944   0.498   6.426 -2.9718  1.1164 -1.6035
  164DOPC  H15Y19922   2.100   0.458   6.346 -0.1498 -1.4895 -0.1542
  164DOPC  C31619923   1.931   0.450   6.208 -0.5511  0.1567  0.6269
  164DOPC  H16X19924   1.907   0.347   6.240 -0.5742 -0.0089  0.0860
  164DOPC  H16Y19925   1.835   0.503   6.192 -0.3340  0.4060  0.0958
  164DOPC  C31719926   2.008   0.449   6.072 -0.9671  0.5560 -0.0008
  164DOPC  H17X19927   1.950   0.414   5.984 -1.3028 -0.2826  0.5338
  164DOPC  H17Y19928   2.021   0.556   6.046  1.8408  0.0147 -1.2009
  164DOPC  C31819929   2.137   0.371   6.080  0.2491  0.1301 -0.2059
  164DOPC  H18X19930   2.216   0.423   6.138 -0.1184 -0.0409  0.4525
  164DOPC  H18Y19931   2.127   0.273   6.130  0.3157  0.4159  0.3749
  164DOPC  H18Z19932   2.180   0.358   5.978  0.0882 -1.1470 -0.1241
  165DOPC     N19933   5.537   1.774   8.596 -0.3945  0.7759 -0.0308
  165DOPC   C1219934   5.541   1.735   8.449 -0.1204 -0.1683  0.0829
  165DOPC  H12A19935   5.465   1.791   8.396 -0.0573  0.1543  0.3326
  165DOPC  H12B19936   5.499   1.635   8.445 -1.4228  0.3250  0.7223
  165DOPC   C1319937   5.588   1.911   8.614 -0.5668  1.0979 -0.8123
  165DOPC  H13A19938   5.694   1.909   8.595 -0.4634 -0.5895 -0.2449
  165DOPC  H13B19939   5.529   1.991   8.574 -2.1512  0.3696 -0.0225
  165DOPC  H13C19940   5.564   1.931   8.718  3.0396 -2.0785  0.9038
  165DOPC   C1419941   5.621   1.676   8.673  0.2328  0.2081  0.5391
  165DOPC  H14A19942   5.720   1.672   8.631  0.0629  2.0926 -0.1658
  165DOPC  H14B19943   5.617   1.701   8.778 -0.3202  1.1823  0.2967
  165DOPC  H14C19944   5.568   1.582   8.672  0.5901 -0.0028 -0.7668
  165DOPC   C1519945   5.395   1.767   8.649  0.2314 -0.8834  0.3382
  165DOPC  H15A19946   5.343   1.678   8.617 -2.0293  0.9030 -1.2184
  165DOPC  H15B19947   5.346   1.858   8.619 -0.2018 -1.3709 -0.4536
  165DOPC  H15C19948   5.395   1.777   8.757  1.5538 -0.5853  0.3368
  165DOPC   C1119949   5.676   1.739   8.376  0.2750 -0.2101  0.0102
  165DOPC  H11A19950   5.653   1.693   8.278  1.5853  1.5767 -1.1947
  165DOPC  H11B19951   5.694   1.844   8.346 -0.9695  0.2963  0.9433
  165DOPC     P19952   5.929   1.731   8.443 -0.0880  0.1169 -0.2123
  165DOPC   O1319953   6.011   1.613   8.475 -0.9306 -0.1848 -0.4948
  165DOPC   O1419954   5.935   1.846   8.535  0.2536 -0.1289  0.1470
  165DOPC   O1219955   5.785   1.670   8.432  0.0808  0.1384  0.2728
  165DOPC   O1119956   5.955   1.780   8.296 -0.2633 -0.5701  0.4977
  165DOPC    C119957   5.972   1.922   8.261  0.2954 -0.2022  0.1061
  165DOPC    HA19958   6.062   1.953   8.318  0.2379  1.1298 -0.4916
  165DOPC    HB19959   5.889   1.985   8.301 -1.0619 -2.1232  0.4617
  165DOPC    C219960   5.984   1.933   8.107  0.3431 -0.2090  0.1781
  165DOPC    HS19961   6.057   1.858   8.071 -0.2122 -0.8021  0.2712
  165DOPC   O2119962   6.022   2.063   8.067 -0.7149  0.6540 -0.7287
  165DOPC   C2119963   6.135   2.116   8.110  0.3094  0.0292  0.5340
  165DOPC   O2219964   6.214   2.065   8.186  0.6151 -0.3567 -0.6615
  165DOPC   C2219965   6.159   2.254   8.040  0.1630  0.6770 -0.1095
  165DOPC   H2R19966   6.191   2.326   8.118  1.1477  0.1088  0.0343
  165DOPC   H2S19967   6.062   2.287   7.995  1.3969  0.5334 -3.1679
  165DOPC    C319968   5.855   1.878   8.036  0.1665 -0.5693 -0.0298
  165DOPC    HX19969   5.756   1.925   8.055  0.6522  0.6541 -0.4117
  165DOPC    HY19970   5.837   1.775   8.072 -3.7389  0.3791  1.2152
  165DOPC   O3119971   5.885   1.878   7.892  0.0406  0.0409  0.0831
  165DOPC   C3119972   5.844   1.983   7.826 -0.0847 -0.0875  0.0614
  165DOPC   O3219973   5.775   2.073   7.872 -0.7127 -0.1862  0.3031
  165DOPC   C3219974   5.891   1.976   7.677  0.2095 -0.5062  0.1300
  165DOPC   H2X19975   6.002   1.982   7.683  0.3257 -1.4754 -0.8576
  165DOPC   H2Y19976   5.858   1.877   7.639 -4.0820 -0.3693  2.7667
  165DOPC   C2319977   6.262   2.237   7.920  0.3705 -1.3776  0.3138
  165DOPC   H3R19978   6.352   2.182   7.952  1.1293 -0.6662 -0.5614
  165DOPC   H3S19979   6.298   2.340   7.898  0.9461 -1.3787  1.2340
  165DOPC   C2419980   6.205   2.172   7.799 -0.3335 -0.1203 -0.0264
  165DOPC   H4R19981   6.115   2.228   7.766 -0.9839 -1.2336 -0.1805
  165DOPC   H4S19982   6.188   2.064   7.815 -1.7328  0.2605  1.3403
  165DOPC   C2519983   6.306   2.173   7.685 -0.1395 -0.1719 -0.6745
  165DOPC   H5R19984   6.402   2.160   7.740  1.3675  1.9065 -2.5783
  165DOPC   H5S19985   6.327   2.273   7.640  2.1908 -0.9133 -1.4059
  165DOPC   C2619986   6.306   2.065   7.574 -0.0124 -0.5055  0.0628
  165DOPC   H6R19987   6.387   2.092   7.504  1.4289 -2.2216  0.9902
  165DOPC   H6S19988   6.210   2.061   7.519  0.2274  2.2411 -0.6892
  165DOPC   C2719989   6.330   1.920   7.614 -0.5670 -0.0016 -0.2957
  165DOPC   H7R19990   6.274   1.880   7.701  0.2733 -0.8066 -0.1004
  165DOPC   H7S19991   6.434   1.910   7.652 -0.4733 -0.4459 -0.6726
  165DOPC   C2819992   6.325   1.818   7.504 -0.4166 -0.5142 -0.6402
  165DOPC   H8R19993   6.364   1.726   7.554  2.3084  0.0973 -1.4864
  165DOPC   H8S19994   6.406   1.853   7.437 -1.0986  1.8066 -0.3379
  165DOPC   C2919995   6.186   1.805   7.448  0.0982  0.0677  0.0808
  165DOPC   H9R19996   6.116   1.762   7.522  0.5794 -1.5757 -0.3774
  165DOPC  C21019997   6.150   1.834   7.324  0.5785 -0.1559  0.3680
  165DOPC  H10R19998   6.043   1.827   7.299  0.4081  1.3099  0.6055
  165DOPC  C21119999   6.235   1.895   7.221 -0.1221 -0.2373 -0.3404
  165DOPC  H11R20000   6.244   1.821   7.138 -1.3150 -0.8340  0.0327
  165DOPC  H11S20001   6.336   1.913   7.263 -0.5557  1.5672 -0.0162
  165DOPC  C21220002   6.189   2.038   7.175 -0.2418  0.6999 -0.3393
  165DOPC  H12R20003   6.197   2.111   7.259  4.4881 -0.6848  0.7020
  165DOPC  H12S20004   6.090   2.037   7.126  0.6622  1.2500 -2.2511
  165DOPC  C21320005   6.284   2.091   7.066 -0.2311  0.4138  0.2339
  165DOPC  H13R20006   6.299   2.006   6.995  0.4041  1.6179 -1.1237
  165DOPC  H13S20007   6.388   2.107   7.102  0.4946 -1.1129 -1.0619
  165DOPC  C21420008   6.235   2.212   6.989  0.3997 -1.2899 -0.1249
  165DOPC  H14R20009   6.140   2.177   6.943 -0.3832 -1.2430  1.3972
  165DOPC  H14S20010   6.315   2.236   6.916  0.0853  2.0340  0.4760
  165DOPC  C21520011   6.190   2.327   7.079  0.1783  0.2702 -0.1458
  165DOPC  H15R20012   6.105   2.300   7.146  1.1846 -3.1837 -0.0534
  165DOPC  H15S20013   6.148   2.412   7.021 -1.5935  0.2117  0.9587
  165DOPC  C21620014   6.291   2.378   7.182  0.7706 -0.7256  0.6751
  165DOPC  H16R20015   6.367   2.436   7.125  0.2112  0.3675  1.0333
  165DOPC  H16S20016   6.328   2.292   7.242 -1.4144 -2.1934  0.0391
  165DOPC  C21720017   6.236   2.474   7.285  0.7207 -0.1933 -0.1586
  165DOPC  H17R20018   6.144   2.429   7.327 -0.9506  1.6562 -1.6144
  165DOPC  H17S20019   6.210   2.561   7.221  1.0940  0.9342  1.1701
  165DOPC  C21820020   6.337   2.504   7.388 -0.1739 -0.5110  1.4927
  165DOPC  H18R20021   6.422   2.551   7.335 -2.4875  3.2791  0.7600
  165DOPC  H18S20022   6.377   2.413   7.438  1.6770 -1.4397 -1.3866
  165DOPC  H18T20023   6.312   2.578   7.467 -0.7775  0.6142  0.2841
  165DOPC   C3320024   5.828   2.092   7.592 -0.0491 -0.1488 -0.0493
  165DOPC   H3X20025   5.860   2.193   7.624  1.2443  0.4528 -2.9357
  165DOPC   H3Y20026   5.718   2.099   7.598  0.0026  0.4645  0.2068
  165DOPC   C3420027   5.856   2.089   7.437  0.1737  0.6857  0.1050
  165DOPC   H4X20028   5.857   1.986   7.395  0.4083  0.9336 -0.4995
  165DOPC   H4Y20029   5.961   2.122   7.427  1.5989 -2.8355  1.6873
  165DOPC   C3520030   5.758   2.175   7.353  0.0948 -0.1465 -0.5077
  165DOPC   H5X20031   5.766   2.270   7.410  3.5370 -1.4476  1.5041
  165DOPC   H5Y20032   5.656   2.132   7.344 -0.1204  0.5260 -1.4763
  165DOPC   C3620033   5.805   2.213   7.213 -0.3815  1.2417 -0.1593
  165DOPC   H6X20034   5.914   2.237   7.213 -0.1852  0.5283  1.9000
  165DOPC   H6Y20035   5.796   2.121   7.152 -2.1819  0.9313  0.5376
  165DOPC   C3720036   5.725   2.334   7.154  0.0873 -0.3263  0.2151
  165DOPC   H7X20037   5.741   2.420   7.224 -2.4364  0.3294  0.1108
  165DOPC   H7Y20038   5.617   2.312   7.165 -0.0752 -0.0354 -0.7011
  165DOPC   C3820039   5.754   2.379   7.009 -0.5829  0.1740  0.2636
  165DOPC   H8X20040   5.859   2.411   6.993 -0.1810 -1.5991 -0.8436
  165DOPC   H8Y20041   5.689   2.465   6.981 -1.2235 -1.1599 -2.8107
  165DOPC   C3920042   5.719   2.273   6.907  0.2071 -0.1903 -0.0365
  165DOPC   H9X20043   5.627   2.217   6.932  1.5569 -1.1108  3.4946
  165DOPC  C31020044   5.791   2.241   6.794  0.2280  1.1834  0.0373
  165DOPC  H10X20045   5.766   2.161   6.723  1.5314  0.4443  0.3791
  165DOPC  C31120046   5.921   2.310   6.765  0.3123  0.2649  0.7546
  165DOPC  H11X20047   5.979   2.245   6.695 -0.9725 -0.1858  0.0609
  165DOPC  H11Y20048   5.978   2.322   6.859  2.3331 -4.0733  0.3265
  165DOPC  C31220049   5.899   2.448   6.687  0.2028  0.4281 -0.1872
  165DOPC  H12X20050   5.832   2.514   6.746  1.0498 -0.9834  2.5395
  165DOPC  H12Y20051   5.846   2.429   6.592 -0.7776  0.3904  0.3519
  165DOPC  C31320052   6.021   2.534   6.683 -0.4511  0.3781  0.1654
  165DOPC  H13X20053   5.986   2.638   6.666 -0.7776  0.0204 -1.6020
  165DOPC  H13Y20054   6.075   2.529   6.780  0.1579 -2.6772 -0.2186
  165DOPC  C31420055   6.108   2.492   6.570  0.0576  0.1539  0.6049
  165DOPC  H14X20056   6.139   2.387   6.592 -1.0307 -0.0998  1.0023
  165DOPC  H14Y20057   6.036   2.496   6.485 -1.6847 -1.0260  1.9432
  165DOPC  C31520058   6.231   2.580   6.551  0.2504 -0.1293  0.1024
  165DOPC  H15X20059   6.303   2.562   6.634  0.0457 -0.3941  0.2207
  165DOPC  H15Y20060   6.204   2.686   6.537 -1.2425 -0.5166 -0.0334
  165DOPC  C31620061   6.298   2.531   6.422  0.6086 -0.1601 -0.4001
  165DOPC  H16X20062   6.223   2.493   6.349  1.1150  3.0150 -2.7689
  165DOPC  H16Y20063   6.349   2.619   6.377  1.4480  0.0384  0.8975
  165DOPC  C31720064   6.414   2.433   6.445 -0.0717  0.3643  0.1149
  165DOPC  H17X20065   6.507   2.478   6.486  0.4705 -0.0246 -0.6526
  165DOPC  H17Y20066   6.382   2.364   6.526 -0.0996 -0.1647 -0.3373
  165DOPC  C31820067   6.463   2.353   6.319  0.4948  0.5174  0.4352
  165DOPC  H18X20068   6.492   2.422   6.237  0.0099  1.9564  1.4334
  165DOPC  H18Y20069   6.550   2.286   6.333  0.1384 -0.0518 -0.0157
  165DOPC  H18Z20070   6.379   2.289   6.285 -1.0679  3.0290 -0.7518
  166DOPC     N20071   6.375   2.137   8.491  0.0347 -0.4406  0.6663
  166DOPC   C1220072   6.436   2.207   8.612  0.2468  0.0131 -0.1156
  166DOPC  H12A20073   6.543   2.208   8.593  0.2342  1.6805 -0.2369
  166DOPC  H12B20074   6.413   2.145   8.697 -0.6414 -0.0836 -0.4168
  166DOPC   C1320075   6.409   2.220   8.362 -0.7529  0.9177  0.6871
  166DOPC  H13A20076   6.509   2.213   8.323 -1.1250  3.8980 -1.1036
  166DOPC  H13B20077   6.341   2.203   8.279  0.2877  3.1950 -0.7065
  166DOPC  H13C20078   6.395   2.326   8.376  0.3966  1.1527  0.1212
  166DOPC   C1420079   6.225   2.127   8.501  0.2585 -0.2453 -0.0428
  166DOPC  H14A20080   6.186   2.083   8.411  0.9236  0.5353 -0.7279
  166DOPC  H14B20081   6.185   2.069   8.583  0.7671  1.5873  1.5708
  166DOPC  H14C20082   6.191   2.229   8.492 -0.3538 -0.2751  1.5593
  166DOPC   C1520083   6.446   2.012   8.472  0.3173 -0.0980 -0.4653
  166DOPC  H15A20084   6.546   2.038   8.443  0.3864 -0.3185 -0.4285
  166DOPC  H15B20085   6.398   1.942   8.404  0.2451 -1.9420  1.3923
  166DOPC  H15C20086   6.455   1.955   8.563 -2.4757  2.0295  1.3138
  166DOPC   C1120087   6.391   2.346   8.662  0.3231  0.0689  0.1711
  166DOPC  H11A20088   6.283   2.329   8.683  0.5848 -0.4616  1.1197
  166DOPC  H11B20089   6.445   2.369   8.756 -0.0746  2.3017 -0.0775
  166DOPC     P20090   6.543   2.518   8.524 -0.5828  0.2371 -0.5165
  166DOPC   O1320091   6.660   2.423   8.541  0.3974  0.2660 -0.2721
  166DOPC   O1420092   6.552   2.648   8.595  0.1295  0.6517 -0.1575
  166DOPC   O1220093   6.402   2.450   8.563  0.5312 -0.3516 -0.0157
  166DOPC   O1120094   6.528   2.550   8.372 -0.3273 -0.0616  0.3620
  166DOPC    C120095   6.408   2.596   8.316 -0.3644 -0.5866 -0.6118
  166DOPC    HA20096   6.372   2.689   8.366  2.2161  0.3717 -0.4065
  166DOPC    HB20097   6.322   2.526   8.318 -1.4254  0.6597 -0.4754
  166DOPC    C220098   6.430   2.635   8.171 -0.6521 -0.6260  0.5608
  166DOPC    HS20099   6.470   2.739   8.176 -2.3838  0.0482  1.2866
  166DOPC   O2120100   6.310   2.632   8.092  0.0531 -0.3842 -0.5893
  166DOPC   C2120101   6.233   2.744   8.108  0.0263  0.5881  0.2030
  166DOPC   O2220102   6.270   2.841   8.173  0.6276 -0.2474  0.1611
  166DOPC   C2220103   6.093   2.737   8.047  0.0483 -0.6143  0.8308
  166DOPC   H2R20104   6.007   2.748   8.117 -1.4079  2.5525 -1.2076
  166DOPC   H2S20105   6.081   2.636   8.002 -0.0018 -0.5327  0.6612
  166DOPC    C320106   6.530   2.548   8.103  0.2434  0.2623  0.0072
  166DOPC    HX20107   6.503   2.442   8.120  1.6812 -0.2277 -0.6208
  166DOPC    HY20108   6.629   2.559   8.153  0.6020 -0.1324 -0.5918
  166DOPC   O3120109   6.544   2.570   7.960  0.4049  0.2398  0.8846
  166DOPC   C3120110   6.623   2.667   7.925  0.2869  0.1053  0.1605
  166DOPC   O3220111   6.668   2.746   8.006 -0.4609 -0.2280  0.3039
  166DOPC   C3220112   6.659   2.651   7.781  0.3697  0.5066 -0.4192
  166DOPC   H2X20113   6.748   2.585   7.777  0.6978  0.8180  1.0351
  166DOPC   H2Y20114   6.577   2.599   7.727  0.2795 -0.0624  0.2523
  166DOPC   C2320115   6.081   2.837   7.923 -0.3413  0.4100 -0.7633
  166DOPC   H3R20116   6.064   2.936   7.970 -1.2665  0.1708 -0.5844
  166DOPC   H3S20117   5.999   2.815   7.851  1.6414  1.2633 -3.4605
  166DOPC   C2420118   6.193   2.838   7.824  0.3188  0.5403 -0.6225
  166DOPC   H4R20119   6.211   2.731   7.802  1.9228  0.1612  2.0142
  166DOPC   H4S20120   6.287   2.872   7.873  0.7379 -3.5375  1.9237
  166DOPC   C2520121   6.162   2.935   7.700  0.1097  0.8839 -0.1162
  166DOPC   H5R20122   6.149   3.041   7.730 -3.1849  0.3615  0.6572
  166DOPC   H5S20123   6.061   2.908   7.661  0.1269  2.7725 -1.6519
  166DOPC   C2620124   6.274   2.926   7.588  0.5829 -0.1971 -0.0928
  166DOPC   H6R20125   6.311   2.821   7.580 -0.8953 -0.6202 -2.7548
  166DOPC   H6S20126   6.362   2.990   7.610  0.0934  0.3752  0.2268
  166DOPC   C2720127   6.211   2.974   7.455 -0.2500 -0.3790  0.8098
  166DOPC   H7R20128   6.218   3.085   7.453  0.3449 -0.3716 -2.0559
  166DOPC   H7S20129   6.102   2.962   7.440 -0.0783 -0.4263 -0.5981
  166DOPC   C2820130   6.272   2.914   7.332 -0.5822 -0.4370  0.3827
  166DOPC   H8R20131   6.207   2.922   7.242  1.7947 -0.5706 -1.4303
  166DOPC   H8S20132   6.278   2.804   7.344 -1.7615 -0.6039 -0.2996
  166DOPC   C2920133   6.406   2.975   7.305  0.5950  0.3945 -0.0186
  166DOPC   H9R20134   6.446   3.039   7.385 -1.3107  1.4265  0.1759
  166DOPC  C21020135   6.476   2.934   7.202 -0.1447 -0.1632  0.1445
  166DOPC  H10R20136   6.581   2.966   7.208 -0.5946  1.0785  2.2546
  166DOPC  C21120137   6.422   2.847   7.091  0.2171  0.1096 -0.4720
  166DOPC  H11R20138   6.419   2.914   7.002  2.2364  2.1222  0.8679
  166DOPC  H11S20139   6.319   2.810   7.109 -1.1750  3.2913 -1.1334
  166DOPC  C21220140   6.511   2.723   7.056  0.6453  0.0784  0.6723
  166DOPC  H12R20141   6.447   2.644   7.011 -0.3317  0.6717  0.9947
  166DOPC  H12S20142   6.553   2.676   7.147  1.0339  0.0804  0.5001
  166DOPC  C21320143   6.620   2.757   6.963 -0.0370 -0.5754 -0.5367
  166DOPC  H13R20144   6.675   2.660   6.957 -0.1307 -0.9138  2.4864
  166DOPC  H13S20145   6.683   2.837   7.007  1.6851 -2.0362 -0.2102
  166DOPC  C21420146   6.581   2.779   6.818 -0.0359  0.1235 -0.2811
  166DOPC  H14R20147   6.588   2.889   6.804  0.8861 -0.0818 -1.6103
  166DOPC  H14S20148   6.475   2.756   6.794  0.4516  0.7375 -3.3929
  166DOPC  C21520149   6.669   2.711   6.713 -0.4572 -0.3208  0.3869
  166DOPC  H15R20150   6.680   2.601   6.716 -3.3876 -0.6715  0.7894
  166DOPC  H15S20151   6.770   2.755   6.727  0.0025 -1.3591  0.4312
  166DOPC  C21620152   6.629   2.750   6.569  1.0987 -0.9960  0.1983
  166DOPC  H16R20153   6.621   2.861   6.572  1.7003 -0.9422  3.0093
  166DOPC  H16S20154   6.530   2.706   6.547  0.6273 -0.5085  1.2378
  166DOPC  C21720155   6.750   2.725   6.472  0.4415  0.4168 -0.4184
  166DOPC  H17R20156   6.787   2.623   6.493  3.3083  1.5641  0.5710
  166DOPC  H17S20157   6.826   2.801   6.501 -1.2466  1.4411  1.6234
  166DOPC  C21820158   6.708   2.743   6.326  0.4762  0.1514  0.5832
  166DOPC  H18R20159   6.663   2.844   6.330  0.7442  0.2853  0.2741
  166DOPC  H18S20160   6.634   2.664   6.298 -1.3236  1.8904  0.1974
  166DOPC  H18T20161   6.797   2.735   6.260  0.5321 -3.2532  0.8922
  166DOPC   C3320162   6.688   2.785   7.712  0.7382 -0.5040  0.5157
  166DOPC   H3X20163   6.767   2.833   7.774 -0.8537  1.2910  1.2301
  166DOPC   H3Y20164   6.588   2.833   7.707  0.8843 -0.2182  0.2810
  166DOPC   C3420165   6.740   2.768   7.567 -0.0858  0.2322 -0.0810
  166DOPC   H4X20166   6.653   2.748   7.501  1.6162 -1.0246 -2.0496
  166DOPC   H4Y20167   6.799   2.674   7.565 -0.4328  0.0185 -1.6521
  166DOPC   C3520168   6.830   2.887   7.515 -0.1029  0.5458 -0.0032
  166DOPC   H5X20169   6.926   2.886   7.572  0.3918  0.9140 -0.8109
  166DOPC   H5Y20170   6.780   2.983   7.539 -0.3160  0.4241  0.0431
  166DOPC   C3620171   6.872   2.892   7.365  0.0984  0.1096 -0.9594
  166DOPC   H6X20172   6.789   2.923   7.298 -1.6976 -2.4147 -0.0889
  166DOPC   H6Y20173   6.954   2.966   7.358 -1.0354  1.5595  0.3163
  166DOPC   C3720174   6.919   2.759   7.314 -0.3810 -0.2587 -0.1225
  166DOPC   H7X20175   6.972   2.714   7.400  0.4108 -1.7225 -1.3226
  166DOPC   H7Y20176   6.823   2.705   7.296 -0.6417  0.0243  0.4066
  166DOPC   C3820177   7.006   2.755   7.190 -0.3756 -0.3081  0.7590
  166DOPC   H8X20178   7.097   2.819   7.199  0.5773 -1.4222 -0.4411
  166DOPC   H8Y20179   6.959   2.795   7.098 -1.7821 -0.2813  1.4691
  166DOPC   C3920180   7.069   2.619   7.168 -0.4970 -0.2682  0.2651
  166DOPC   H9X20181   7.101   2.556   7.252 -0.1293  1.2467  1.3244
  166DOPC  C31020182   7.075   2.554   7.053 -0.2476 -0.3382  0.4959
  166DOPC  H10X20183   7.119   2.453   7.054 -2.1903 -1.3042 -1.6408
  166DOPC  C31120184   7.039   2.597   6.911  0.7473  0.1088 -0.1922
  166DOPC  H11X20185   7.002   2.701   6.919  0.8703  0.0383  1.7606
  166DOPC  H11Y20186   6.955   2.532   6.878  0.3556 -0.6130  1.9987
  166DOPC  C31220187   7.161   2.591   6.821  0.0109  0.3515  0.0645
  166DOPC  H12X20188   7.186   2.483   6.810 -3.3234 -0.4121 -1.1839
  166DOPC  H12Y20189   7.235   2.664   6.860 -0.7630  0.1585  1.9799
  166DOPC  C31320190   7.123   2.635   6.675  0.0294  0.2273 -0.3377
  166DOPC  H13X20191   7.048   2.565   6.631 -1.9545  2.1115 -0.0976
  166DOPC  H13Y20192   7.084   2.739   6.680  1.8660  0.9699 -0.7030
  166DOPC  C31420193   7.244   2.627   6.577  0.8323  0.4764  0.3258
  166DOPC  H14X20194   7.329   2.689   6.612  2.5166 -0.3732 -2.0042
  166DOPC  H14Y20195   7.279   2.522   6.561  0.5191  0.4806 -0.4251
  166DOPC  C31520196   7.205   2.686   6.442  0.2540  0.2707  0.6154
  166DOPC  H15X20197   7.164   2.789   6.447 -3.1008 -0.7881 -1.7023
  166DOPC  H15Y20198   7.124   2.633   6.387 -0.4465  0.3259  1.5732
  166DOPC  C31620199   7.329   2.677   6.347 -0.2910  0.4431 -0.7805
  166DOPC  H16X20200   7.413   2.743   6.379  1.0897 -1.4113 -0.4321
  166DOPC  H16Y20201   7.371   2.575   6.360  0.0282  0.7673  0.9767
  166DOPC  C31720202   7.295   2.708   6.204 -0.3189  0.2090 -0.2222
  166DOPC  H17X20203   7.372   2.662   6.139  0.4573  0.6352  0.3774
  166DOPC  H17Y20204   7.199   2.662   6.173 -1.6505  1.7890  1.3664
  166DOPC  C31820205   7.290   2.858   6.177  0.7773 -0.2568 -0.7603
  166DOPC  H18X20206   7.241   2.878   6.079  2.9592  0.3653 -1.7800
  166DOPC  H18Y20207   7.235   2.902   6.263 -0.5267  0.1880 -1.8029
  166DOPC  H18Z20208   7.394   2.898   6.173  0.8125 -0.2759 -0.1462
  167DOPC     N20209   1.165   3.118   8.852  0.2445 -0.2741  0.2842
  167DOPC   C1220210   1.123   3.180   8.714 -0.8819 -0.0600 -0.1292
  167DOPC  H12A20211   1.194   3.149   8.639 -2.0302 -1.4166 -0.6916
  167DOPC  H12B20212   1.120   3.287   8.721 -0.4588 -0.0947  0.8416
  167DOPC   C1320213   1.292   3.181   8.890 -0.3188 -0.4735  0.8205
  167DOPC  H13A20214   1.368   3.172   8.813 -1.3606  0.2647 -0.3418
  167DOPC  H13B20215   1.283   3.286   8.916  2.5690  0.1496 -0.2683
  167DOPC  H13C20216   1.341   3.136   8.975  3.0679  1.5377  0.1189
  167DOPC   C1420217   1.193   2.967   8.848  0.6912 -0.5336 -0.5127
  167DOPC  H14A20218   1.269   2.942   8.775  1.2024  0.5259 -0.3583
  167DOPC  H14B20219   1.215   2.934   8.949  0.1527 -1.2928 -0.6378
  167DOPC  H14C20220   1.099   2.922   8.819  0.7199 -0.6693 -0.3998
  167DOPC   C1520221   1.059   3.140   8.949  0.3320  0.1838  0.3866
  167DOPC  H15A20222   1.070   3.070   9.030  1.1708  1.2708  1.2474
  167DOPC  H15B20223   0.962   3.131   8.902 -0.2114 -0.1802  1.5441
  167DOPC  H15C20224   1.073   3.236   8.998  0.0262  0.5969 -0.3274
  167DOPC   C1120225   0.987   3.123   8.648 -0.0597 -0.7027 -0.5359
  167DOPC  H11A20226   0.989   3.144   8.539  0.3945 -1.8266 -0.7573
  167DOPC  H11B20227   0.990   3.012   8.650  0.1459 -0.7800  3.3594
  167DOPC     P20228   0.786   3.289   8.632  0.2412  0.1286 -0.4537
  167DOPC   O1320229   0.879   3.393   8.586  0.4061 -0.5914  0.2847
  167DOPC   O1420230   0.674   3.338   8.720  0.2417 -0.0754 -0.4696
  167DOPC   O1220231   0.866   3.169   8.710  0.1149  0.1892  0.5019
  167DOPC   O1120232   0.724   3.218   8.499 -0.0048  0.1369  0.2543
  167DOPC    C120233   0.652   3.098   8.508 -0.1007 -0.3674  0.0933
  167DOPC    HA20234   0.632   3.059   8.611  2.1013  0.2619  0.8110
  167DOPC    HB20235   0.716   3.022   8.459 -1.6024 -1.4996 -0.1805
  167DOPC    C220236   0.513   3.092   8.432 -0.1060  0.8712  0.1558
  167DOPC    HS20237   0.484   2.986   8.420 -0.3654  0.8438  0.9588
  167DOPC   O2120238   0.528   3.168   8.316  1.1095  0.5783  0.8760
  167DOPC   C2120239   0.443   3.132   8.212 -1.1457 -0.3076  0.5442
  167DOPC   O2220240   0.351   3.053   8.227 -0.3937  0.2712 -0.2469
  167DOPC   C2220241   0.477   3.211   8.084  0.1836 -0.2208 -0.2444
  167DOPC   H2R20242   0.581   3.191   8.049  0.3547  2.3995 -1.4164
  167DOPC   H2S20243   0.473   3.317   8.115  2.8305 -0.1618  0.1844
  167DOPC    C320244   0.403   3.153   8.532 -0.7417  1.1341  0.0173
  167DOPC    HX20245   0.444   3.248   8.572  2.7940 -1.7970  4.3060
  167DOPC    HY20246   0.401   3.092   8.626  0.7155 -0.2006 -0.7780
  167DOPC   O3120247   0.276   3.149   8.481 -0.0753 -0.2535  0.0259
  167DOPC   C3120248   0.235   3.255   8.423 -0.6571  0.1197 -0.0531
  167DOPC   O3220249   0.293   3.364   8.418 -0.1873 -0.2475  0.1702
  167DOPC   C3220250   0.089   3.229   8.379  0.1666 -0.1474  0.1433
  167DOPC   H2X20251   0.086   3.153   8.298 -1.1541 -0.4221  0.4396
  167DOPC   H2Y20252   0.031   3.190   8.465  2.0831 -2.1135  0.6288
  167DOPC   C2320253   0.394   3.170   7.964  0.0253 -0.4209 -0.2534
  167DOPC   H3R20254   0.293   3.203   7.997  0.3314  1.0674 -0.6967
  167DOPC   H3S20255   0.401   3.061   7.946 -2.6412 -0.8561  0.8478
  167DOPC   C2420256   0.426   3.243   7.837  0.1668  0.8109  0.4674
  167DOPC   H4R20257   0.521   3.199   7.801 -2.1186 -3.0120 -1.5770
  167DOPC   H4S20258   0.432   3.354   7.839 -1.6685  1.0160 -1.3501
  167DOPC   C2520259   0.327   3.202   7.713 -0.4193 -0.2242 -0.0290
  167DOPC   H5R20260   0.232   3.238   7.759 -0.1739 -0.8928  1.0360
  167DOPC   H5S20261   0.326   3.091   7.714  1.2226 -0.2616  1.0226
  167DOPC   C2620262   0.351   3.260   7.571 -0.2368  0.2190 -0.2685
  167DOPC   H6R20263   0.447   3.224   7.528 -0.7440 -1.7988  0.1615
  167DOPC   H6S20264   0.344   3.370   7.580  0.8395  0.2480  0.4185
  167DOPC   C2720265   0.244   3.205   7.471 -0.2972 -0.3868 -0.0790
  167DOPC   H7R20266   0.149   3.186   7.526 -0.9560  1.3579 -0.5538
  167DOPC   H7S20267   0.285   3.107   7.438  0.1997 -0.5074  0.8529
  167DOPC   C2820268   0.213   3.291   7.340  0.7481 -0.4929  1.3619
  167DOPC   H8R20269   0.191   3.396   7.369 -1.3655 -0.0728 -1.3453
  167DOPC   H8S20270   0.115   3.253   7.304  0.2794  0.7754  1.2506
  167DOPC   C2920271   0.322   3.292   7.233  0.3467 -0.4057 -0.3269
  167DOPC   H9R20272   0.415   3.350   7.239  0.6008 -0.3139 -3.4351
  167DOPC  C21020273   0.306   3.216   7.127 -0.3334  0.1256 -0.1400
  167DOPC  H10R20274   0.393   3.217   7.060 -0.4386 -1.1013 -0.3079
  167DOPC  C21120275   0.190   3.131   7.080 -0.4975  0.3122 -0.2793
  167DOPC  H11R20276   0.098   3.182   7.116 -0.1315  0.9033 -0.1755
  167DOPC  H11S20277   0.209   3.030   7.122  3.0071  1.2812  0.7612
  167DOPC  C21220278   0.205   3.120   6.925  0.6396 -0.4720  0.0746
  167DOPC  H12R20279   0.179   3.216   6.876 -0.9666 -1.1153 -0.3905
  167DOPC  H12S20280   0.309   3.106   6.889  0.8000  3.6197 -1.5660
  167DOPC  C21320281   0.118   3.019   6.848  0.3346 -0.5562  0.7320
  167DOPC  H13R20282   0.010   3.038   6.863  0.3307 -0.1772  0.2342
  167DOPC  H13S20283   0.137   2.919   6.891 -0.7489 -0.8522  0.5550
  167DOPC  C21420284   0.171   3.016   6.705 -0.1417 -0.2381 -0.1923
  167DOPC  H14R20285   0.148   2.916   6.663  0.4044 -0.7797  0.7528
  167DOPC  H14S20286   0.280   3.034   6.700  0.1144 -1.8991 -1.6980
  167DOPC  C21520287   0.103   3.115   6.608  0.0094 -0.8708 -0.0763
  167DOPC  H15R20288   0.104   3.218   6.649  0.2085 -0.2431 -1.6045
  167DOPC  H15S20289  -0.001   3.082   6.592 -0.3123 -0.3898  0.9375
  167DOPC  C21620290   0.170   3.105   6.471  0.3987 -0.3283  0.7469
  167DOPC  H16R20291   0.139   3.014   6.416 -0.4116 -0.7040  1.7937
  167DOPC  H16S20292   0.280   3.123   6.469  0.8563 -2.8256  0.5885
  167DOPC  C21720293   0.111   3.217   6.382 -0.6163  0.6127  0.3018
  167DOPC  H17R20294   0.122   3.320   6.421 -1.8817  1.5813 -1.7519
  167DOPC  H17S20295   0.001   3.207   6.371 -0.2963 -0.9645 -2.3202
  167DOPC  C21820296   0.179   3.225   6.238 -0.2979  0.0761  0.6192
  167DOPC  H18R20297   0.133   3.310   6.184 -1.0081  0.0777  1.2015
  167DOPC  H18S20298   0.156   3.128   6.188  0.4949  0.1796  0.0578
  167DOPC  H18T20299   0.289   3.215   6.241 -0.4482 -3.3554 -0.7712
  167DOPC   C3320300   0.015   3.355   8.324 -0.2203  0.6002 -0.3284
  167DOPC   H3X20301   0.036   3.449   8.379 -1.0996  2.2360 -2.6400
  167DOPC   H3Y20302  -0.096   3.351   8.330 -0.2935  0.3756 -1.6477
  167DOPC   C3420303   0.033   3.376   8.178  0.0603  0.1673 -0.2537
  167DOPC   H4X20304   0.140   3.390   8.154  0.1285 -1.2499 -0.8950
  167DOPC   H4Y20305  -0.016   3.474   8.159 -1.2136 -0.5529 -0.8615
  167DOPC   C3520306  -0.021   3.270   8.086 -0.6615 -0.0612 -0.8707
  167DOPC   H5X20307  -0.110   3.227   8.137 -0.4082 -0.9852 -1.1905
  167DOPC   H5Y20308   0.049   3.183   8.093  0.6730  1.0999  1.4583
  167DOPC   C3620309  -0.068   3.320   7.954 -0.4241 -0.1425  0.5922
  167DOPC   H6X20310  -0.127   3.414   7.965  0.9539  1.5068 -3.6709
  167DOPC   H6Y20311   0.025   3.346   7.900 -0.5451 -1.0679 -0.0757
  167DOPC   C3720312  -0.151   3.225   7.863  0.6444  0.3567 -0.0360
  167DOPC   H7X20313  -0.087   3.145   7.820  1.7475  0.5772  1.1232
  167DOPC   H7Y20314  -0.229   3.184   7.931 -0.0828 -0.3061 -1.2357
  167DOPC   C3820315  -0.242   3.299   7.753 -0.7004 -0.0675 -0.2956
  167DOPC   H8X20316  -0.312   3.354   7.819  0.0913  1.1563 -0.4401
  167DOPC   H8Y20317  -0.296   3.223   7.692  0.2289 -1.3051  0.3563
  167DOPC   C3920318  -0.160   3.396   7.679  0.3884  0.3464  0.3339
  167DOPC   H9X20319  -0.116   3.480   7.735 -0.0179  0.1611  0.9403
  167DOPC  C31020320  -0.151   3.400   7.543  0.5088  0.1307 -0.0838
  167DOPC  H10X20321  -0.092   3.486   7.510 -0.8818  0.6010 -1.5048
  167DOPC  C31120322  -0.189   3.307   7.430 -0.7029  0.3249  0.6835
  167DOPC  H11X20323  -0.268   3.236   7.463  0.8443 -1.0201  1.6379
  167DOPC  H11Y20324  -0.103   3.241   7.405  1.0333  2.1849  1.4907
  167DOPC  C31220325  -0.252   3.365   7.306 -0.8005  0.2387  0.1234
  167DOPC  H12X20326  -0.329   3.442   7.331 -1.2449 -0.4693  0.9705
  167DOPC  H12Y20327  -0.296   3.284   7.244  1.2278  0.5581 -1.8833
  167DOPC  C31320328  -0.146   3.424   7.215  0.4756  0.1023 -0.4777
  167DOPC  H13X20329  -0.097   3.507   7.270 -1.8445  0.5980  0.9861
  167DOPC  H13Y20330  -0.065   3.353   7.185  2.2674  2.7400 -2.2779
  167DOPC  C31420331  -0.195   3.496   7.090  0.5457 -0.9732  0.3724
  167DOPC  H14X20332  -0.251   3.421   7.030 -2.9555  0.8145  1.0905
  167DOPC  H14Y20333  -0.273   3.565   7.131  0.8190 -0.6608  0.3711
  167DOPC  C31520334  -0.093   3.577   7.006  0.4455 -0.2464 -0.7493
  167DOPC  H15X20335  -0.003   3.512   6.995  0.7677 -0.0503  0.6156
  167DOPC  H15Y20336  -0.085   3.671   7.063 -2.7769  0.2709 -0.9629
  167DOPC  C31620337  -0.149   3.612   6.867 -0.3612 -0.0509 -0.1133
  167DOPC  H16X20338  -0.189   3.520   6.820 -1.3733  0.2169  0.2019
  167DOPC  H16Y20339  -0.238   3.678   6.873 -1.0537 -0.7630 -1.9232
  167DOPC  C31720340  -0.046   3.681   6.779 -0.2628 -1.0855  0.9135
  167DOPC  H17X20341   0.048   3.624   6.762  1.4552  1.4964  1.3362
  167DOPC  H17Y20342  -0.083   3.695   6.675 -0.9855  2.6032  1.5191
  167DOPC  C31820343   0.001   3.823   6.823 -0.1506  0.7832  0.0038
  167DOPC  H18X20344   0.086   3.856   6.760  0.4632 -1.1287 -0.2222
  167DOPC  H18Y20345  -0.085   3.894   6.818 -0.6908  0.0403 -2.9847
  167DOPC  H18Z20346   0.037   3.812   6.928 -0.1788 -0.9340 -0.1382
  168DOPC     N20347   1.780   2.323   8.246  0.2358  0.3825  0.0212
  168DOPC   C1220348   1.901   2.275   8.169 -0.3038  0.4954 -0.0905
  168DOPC  H12A20349   1.867   2.190   8.111  1.1338 -0.1708  0.0044
  168DOPC  H12B20350   1.973   2.242   8.242 -0.3567  3.1465  1.2732
  168DOPC   C1320351   1.799   2.451   8.310  0.4945 -0.1367  0.4800
  168DOPC  H13A20352   1.800   2.533   8.239 -0.7387  0.4871  1.1384
  168DOPC  H13B20353   1.717   2.471   8.377 -0.1033 -3.3239  0.8306
  168DOPC  H13C20354   1.886   2.451   8.374  0.6657 -0.6164  0.2500
  168DOPC   C1420355   1.742   2.226   8.356  0.5381 -0.4736 -0.0083
  168DOPC  H14A20356   1.815   2.231   8.435 -0.8391  1.1298  1.2237
  168DOPC  H14B20357   1.643   2.238   8.395  1.7011  0.9887  2.7146
  168DOPC  H14C20358   1.740   2.126   8.315  0.6171 -0.6677  0.4566
  168DOPC   C1520359   1.674   2.336   8.149 -0.2095 -0.5510  0.3014
  168DOPC  H15A20360   1.581   2.376   8.187  0.2409  2.1957 -1.2438
  168DOPC  H15B20361   1.637   2.241   8.113 -1.4266 -0.3482  0.9587
  168DOPC  H15C20362   1.711   2.383   8.059 -0.0631 -2.0423 -0.4479
  168DOPC   C1120363   1.968   2.375   8.069  0.6389 -0.2319  0.4996
  168DOPC  H11A20364   1.990   2.473   8.116  2.0886  0.1201 -0.8305
  168DOPC  H11B20365   2.068   2.334   8.042  0.2771 -0.5832 -0.3464
  168DOPC     P20366   1.896   2.296   7.825 -0.5162 -0.2258  0.0560
  168DOPC   O1320367   1.841   2.350   7.701  0.0486  0.4619  0.3755
  168DOPC   O1420368   1.819   2.180   7.870 -0.1324 -0.6734  0.6860
  168DOPC   O1220369   1.898   2.400   7.949 -0.6460 -0.2442  0.0880
  168DOPC   O1120370   2.041   2.244   7.812 -0.3531  0.0123 -0.5441
  168DOPC    C120371   2.127   2.306   7.716 -0.0340 -0.0295  0.4315
  168DOPC    HA20372   2.231   2.309   7.755 -0.6640 -0.9680  2.3229
  168DOPC    HB20373   2.091   2.410   7.700 -2.8004 -0.5749  2.2177
  168DOPC    C220374   2.123   2.220   7.591  0.1029  0.2757  0.6945
  168DOPC    HS20375   2.016   2.195   7.577  0.0738  0.2200  1.0121
  168DOPC   O2120376   2.214   2.110   7.605  0.2099  0.6999  0.3876
  168DOPC   C2120377   2.170   1.998   7.561 -0.7571 -0.0695 -0.2781
  168DOPC   O2220378   2.058   1.979   7.513  0.2034  0.2322  0.4498
  168DOPC   C2220379   2.274   1.895   7.598 -0.3556  0.2258  0.1757
  168DOPC   H2R20380   2.215   1.817   7.650 -0.6923  0.5686  0.3147
  168DOPC   H2S20381   2.346   1.938   7.671 -0.2837 -0.5747  0.5858
  168DOPC    C320382   2.155   2.294   7.461  1.1541 -0.8398 -0.0423
  168DOPC    HX20383   2.159   2.227   7.373  0.0019  0.9195 -1.5007
  168DOPC    HY20384   2.259   2.329   7.476  0.5420  0.5584  1.2460
  168DOPC   O3120385   2.063   2.408   7.442 -0.0102  0.0349 -0.3230
  168DOPC   C3120386   1.944   2.363   7.379 -0.3483 -0.1502 -0.0552
  168DOPC   O3220387   1.918   2.254   7.336 -0.1576  0.4770 -0.9894
  168DOPC   C3220388   1.845   2.483   7.374  0.2569  0.0565  0.3078
  168DOPC   H2X20389   1.745   2.434   7.370  0.3977 -0.3047  1.0327
  168DOPC   H2Y20390   1.862   2.539   7.468  1.4878  0.3500 -0.0690
  168DOPC   C2320391   2.357   1.841   7.480  0.2575  0.2186 -0.3604
  168DOPC   H3R20392   2.427   1.771   7.530 -1.0602 -0.4706  0.5798
  168DOPC   H3S20393   2.419   1.916   7.427  2.6524 -2.2956 -1.3400
  168DOPC   C2420394   2.278   1.747   7.392 -0.0497 -0.4682  0.0660
  168DOPC   H4R20395   2.199   1.803   7.338  1.3229  2.1575  0.6098
  168DOPC   H4S20396   2.237   1.658   7.444  0.4213  0.3824  1.9952
  168DOPC   C2520397   2.371   1.702   7.281 -0.9054  0.3145  0.9993
  168DOPC   H5R20398   2.416   1.604   7.309 -1.4708 -1.2930 -3.1208
  168DOPC   H5S20399   2.462   1.764   7.269 -1.0767  0.5796  1.0409
  168DOPC   C2620400   2.301   1.672   7.148 -0.1159 -0.0177  1.1402
  168DOPC   H6R20401   2.276   1.771   7.103 -0.5306 -0.2504  0.8558
  168DOPC   H6S20402   2.212   1.608   7.164 -0.4582 -0.6772 -2.4511
  168DOPC   C2720403   2.386   1.597   7.038  0.4359  0.6883  0.7190
  168DOPC   H7R20404   2.381   1.487   7.058 -0.6967  0.3541 -1.1142
  168DOPC   H7S20405   2.490   1.626   7.064  1.7630 -1.4479 -1.6960
  168DOPC   C2820406   2.341   1.629   6.897 -0.2112 -0.1675 -0.3738
  168DOPC   H8R20407   2.398   1.558   6.833 -0.3320 -1.0811  0.5002
  168DOPC   H8S20408   2.374   1.733   6.874  1.2803 -0.2190  1.2537
  168DOPC   C2920409   2.198   1.588   6.869 -0.0937  0.5448 -0.4981
  168DOPC   H9R20410   2.175   1.480   6.873 -1.1054  0.7758  2.7401
  168DOPC  C21020411   2.104   1.674   6.823  0.2851  0.5057 -0.0989
  168DOPC  H10R20412   2.005   1.633   6.802 -0.1457  0.2355  2.2265
  168DOPC  C21120413   2.123   1.821   6.790 -0.6427 -0.7145  0.1510
  168DOPC  H11R20414   2.218   1.848   6.840 -0.6529 -0.3599 -0.0136
  168DOPC  H11S20415   2.038   1.874   6.838 -0.3678 -0.2263  0.1076
  168DOPC  C21220416   2.133   1.855   6.639 -0.5264 -0.3861  0.6653
  168DOPC  H12R20417   2.225   1.808   6.598  0.7697  0.1820  2.7724
  168DOPC  H12S20418   2.135   1.966   6.634 -0.8698 -0.3921  0.3651
  168DOPC  C21320419   2.002   1.831   6.570  0.0598 -0.0211  0.7927
  168DOPC  H13R20420   1.918   1.885   6.618 -0.2352  1.0245 -0.8278
  168DOPC  H13S20421   1.985   1.724   6.595  1.5637  0.0683  2.4648
  168DOPC  C21420422   2.012   1.858   6.421 -0.5932  0.5560 -0.2494
  168DOPC  H14R20423   2.114   1.839   6.381 -0.2071  1.9107  0.0449
  168DOPC  H14S20424   2.008   1.969   6.417  1.2483  0.6159 -2.3759
  168DOPC  C21520425   1.899   1.786   6.337 -0.5744  0.1027  0.4138
  168DOPC  H15R20426   1.891   1.823   6.233  1.2976 -0.4783  0.0257
  168DOPC  H15S20427   1.802   1.802   6.389 -1.4048 -0.9149 -0.7610
  168DOPC  C21620428   1.914   1.638   6.335 -0.2598  0.4512 -0.4321
  168DOPC  H16R20429   1.814   1.599   6.306  0.9377 -3.1701 -0.1777
  168DOPC  H16S20430   1.924   1.600   6.439 -1.4624  1.5605  0.1205
  168DOPC  C21720431   2.037   1.571   6.273  0.0077 -0.4280  0.3088
  168DOPC  H17R20432   2.121   1.634   6.309 -0.1669  0.4477 -0.7808
  168DOPC  H17S20433   2.044   1.582   6.163  0.4339 -1.9120  0.1567
  168DOPC  C21820434   2.049   1.423   6.312  0.2779  0.3556  0.5814
  168DOPC  H18R20435   2.046   1.398   6.420  1.4852 -0.4227  0.4574
  168DOPC  H18S20436   2.144   1.389   6.265 -1.5574  0.1293 -3.3312
  168DOPC  H18T20437   1.971   1.359   6.265 -0.2544 -0.2936  2.2784
  168DOPC   C3320438   1.866   2.583   7.263 -0.2196 -0.3984  0.6213
  168DOPC   H3X20439   1.961   2.640   7.256  1.1375 -2.2143  2.7532
  168DOPC   H3Y20440   1.779   2.652   7.269 -0.4262 -0.5559 -0.3587
  168DOPC   C3420441   1.841   2.518   7.120  0.2037  0.2259 -0.4175
  168DOPC   H4X20442   1.752   2.452   7.116  0.6405 -0.3216 -1.6320
  168DOPC   H4Y20443   1.923   2.444   7.113  2.1777  2.3655 -1.5865
  168DOPC   C3520444   1.854   2.610   6.996 -0.7406 -0.1484  0.4851
  168DOPC   H5X20445   1.960   2.642   6.995 -0.5791 -0.6225 -1.1233
  168DOPC   H5Y20446   1.789   2.699   7.006  1.4806  1.4939  1.1880
  168DOPC   C3620447   1.839   2.517   6.872 -0.3340 -0.3680 -0.0939
  168DOPC   H6X20448   1.872   2.413   6.892 -1.3407 -0.3059  2.1581
  168DOPC   H6Y20449   1.731   2.520   6.850 -0.1387  2.5198 -0.9999
  168DOPC   C3720450   1.909   2.568   6.745 -0.5652  0.7629  0.1309
  168DOPC   H7X20451   1.879   2.674   6.737 -0.6382  1.0386  2.8473
  168DOPC   H7Y20452   2.017   2.555   6.768 -0.7316 -0.6568  0.1985
  168DOPC   C3820453   1.882   2.468   6.622  0.0056  0.1258 -0.0429
  168DOPC   H8X20454   1.908   2.529   6.533 -0.8971  1.3213  0.4733
  168DOPC   H8Y20455   1.771   2.456   6.620  0.0059 -0.3221  1.5251
  168DOPC   C3920456   1.971   2.341   6.628 -0.0617 -0.4042  0.4111
  168DOPC   H9X20457   1.939   2.260   6.695 -1.5033 -0.8291 -0.7492
  168DOPC  C31020458   2.089   2.318   6.569 -0.4847 -0.0274  0.1328
  168DOPC  H10X20459   2.144   2.224   6.585  2.6484  1.7455  0.4867
  168DOPC  C31120460   2.161   2.412   6.471  0.0239 -0.1801 -0.2574
  168DOPC  H11X20461   2.222   2.486   6.526  0.2742 -0.7505  0.2529
  168DOPC  H11Y20462   2.082   2.468   6.418  0.0122  1.6901  1.5945
  168DOPC  C31220463   2.243   2.342   6.363 -0.4684  0.9611  0.0145
  168DOPC  H12X20464   2.258   2.407   6.274 -0.1384 -1.3531 -1.7074
  168DOPC  H12Y20465   2.183   2.254   6.333 -0.0174  0.6634 -0.0235
  168DOPC  C31320466   2.383   2.296   6.413  0.1318 -0.2319  0.1116
  168DOPC  H13X20467   2.449   2.382   6.436 -0.1312  0.3076 -1.0505
  168DOPC  H13Y20468   2.375   2.233   6.504  0.9274 -0.9427 -0.2945
  168DOPC  C31420469   2.452   2.202   6.315  0.1072 -0.0818  0.0531
  168DOPC  H14X20470   2.388   2.119   6.279 -1.5583  1.0823  0.2662
  168DOPC  H14Y20471   2.472   2.260   6.223 -0.1564 -2.9774 -1.9797
  168DOPC  C31520472   2.591   2.156   6.365  0.3693 -0.4174  0.6397
  168DOPC  H15X20473   2.637   2.253   6.393 -0.1887 -0.4879  1.9059
  168DOPC  H15Y20474   2.657   2.109   6.290  0.6432 -2.3620  2.0006
  168DOPC  C31620475   2.596   2.060   6.489  0.1689  0.6287 -0.0543
  168DOPC  H16X20476   2.701   2.049   6.523  0.1672  0.9917  0.0734
  168DOPC  H16Y20477   2.529   2.101   6.567 -0.3554  2.4456 -1.3790
  168DOPC  C31720478   2.542   1.924   6.464  0.0393  0.6175  0.1928
  168DOPC  H17X20479   2.437   1.921   6.427  0.2712 -0.2412 -0.4366
  168DOPC  H17Y20480   2.588   1.888   6.369 -0.1189  0.0904  0.3154
  168DOPC  C31820481   2.559   1.823   6.577  0.3683 -0.2403  0.2486
  168DOPC  H18X20482   2.512   1.725   6.553  0.7162  0.0174 -1.6736
  168DOPC  H18Y20483   2.667   1.810   6.600  0.7426  1.0690 -0.6667
  168DOPC  H18Z20484   2.515   1.862   6.671  1.3507 -0.4887  0.8302
  169DOPC     N20485   1.088   1.788   7.856 -0.0469  0.2712 -0.1107
  169DOPC   C1220486   0.965   1.877   7.847 -0.5432  0.8091  0.2115
  169DOPC  H12A20487   0.900   1.835   7.923  0.8614 -0.1978  0.8874
  169DOPC  H12B20488   0.922   1.860   7.750  0.6116  0.4490 -0.2513
  169DOPC   C1320489   1.054   1.642   7.843 -0.0876 -0.0884  0.2877
  169DOPC  H13A20490   1.006   1.616   7.750 -0.2904 -1.8042  0.8433
  169DOPC  H13B20491   1.144   1.583   7.855  2.8543  3.5158 -1.6223
  169DOPC  H13C20492   0.991   1.606   7.922  0.0752 -0.1472  0.3922
  169DOPC   C1420493   1.147   1.803   7.990  0.1206 -0.0295  0.0822
  169DOPC  H14A20494   1.239   1.747   7.994 -1.6240 -3.2575 -0.7809
  169DOPC  H14B20495   1.160   1.908   8.008  0.5915 -0.0605 -0.0675
  169DOPC  H14C20496   1.081   1.764   8.067  0.6270  1.8696  1.5332
  169DOPC   C1520497   1.184   1.817   7.745  0.0942 -0.8480  0.0212
  169DOPC  H15A20498   1.162   1.775   7.649 -3.2119 -1.2875  0.8370
  169DOPC  H15B20499   1.283   1.783   7.771 -0.0612 -0.2918  1.4348
  169DOPC  H15C20500   1.195   1.924   7.736  1.9565 -0.8509  1.5745
  169DOPC   C1120501   0.968   2.037   7.867  0.1463  0.5098 -0.4135
  169DOPC  H11A20502   0.981   2.070   7.762  1.1876 -0.7340 -0.7020
  169DOPC  H11B20503   0.866   2.066   7.898 -3.0920 -5.3523 -3.7379
  169DOPC     P20504   1.090   2.241   7.948  0.1554  0.1051 -0.1611
  169DOPC   O1320505   1.215   2.276   8.019  0.3252 -0.4767  0.3212
  169DOPC   O1420506   0.962   2.287   8.004 -0.1211 -0.3322 -0.3066
  169DOPC   O1220507   1.079   2.080   7.946  0.1497 -0.0453  0.3769
  169DOPC   O1120508   1.081   2.284   7.798  0.0375 -0.0331  0.1016
  169DOPC    C120509   1.194   2.278   7.714 -0.3860  0.1383 -0.1347
  169DOPC    HA20510   1.272   2.206   7.747  2.3505  2.9497  0.0031
  169DOPC    HB20511   1.253   2.372   7.708  2.7269 -1.6215  0.9276
  169DOPC    C220512   1.159   2.227   7.575 -0.2983 -0.2133  0.1264
  169DOPC    HS20513   1.151   2.117   7.582 -1.9513 -0.1137  0.3643
  169DOPC   O2120514   1.276   2.266   7.500  0.3056  0.5947  0.4339
  169DOPC   C2120515   1.306   2.185   7.394 -0.0993 -0.0254 -0.5177
  169DOPC   O2220516   1.257   2.074   7.377 -0.2679 -0.2934  0.7063
  169DOPC   C2220517   1.413   2.248   7.299  0.4792  0.1079 -0.1294
  169DOPC   H2R20518   1.501   2.283   7.357  1.8832  0.7125 -2.4913
  169DOPC   H2S20519   1.368   2.333   7.244  1.0770 -0.8994 -2.3252
  169DOPC    C320520   1.033   2.284   7.519 -0.1150 -0.3668 -0.3034
  169DOPC    HX20521   1.060   2.392   7.526  2.4467 -0.9816  0.4802
  169DOPC    HY20522   0.942   2.276   7.583 -1.1135  0.1065 -1.6256
  169DOPC   O3120523   1.001   2.229   7.391 -0.5889 -0.0444  0.1493
  169DOPC   C3120524   0.947   2.111   7.386  0.2883  0.0029  0.4847
  169DOPC   O3220525   0.898   2.058   7.485  0.2228 -0.2056 -0.1074
  169DOPC   C3220526   0.958   2.053   7.244 -0.2906  0.4319 -0.1162
  169DOPC   H2X20527   0.969   2.142   7.177  0.8201 -0.5415 -1.2864
  169DOPC   H2Y20528   1.053   1.995   7.245 -0.7619 -0.3440  1.8153
  169DOPC   C2320529   1.468   2.146   7.186 -0.9710 -0.2738 -0.0821
  169DOPC   H3R20530   1.404   2.141   7.095 -0.5255 -1.5391 -0.3532
  169DOPC   H3S20531   1.478   2.052   7.245 -1.9139  0.4411  1.2678
  169DOPC   C2420532   1.604   2.192   7.123  0.4756 -0.0095  0.0304
  169DOPC   H4R20533   1.680   2.191   7.204  0.4083  3.5284  0.3093
  169DOPC   H4S20534   1.603   2.302   7.106 -0.1129 -0.0954 -0.5529
  169DOPC   C2520535   1.639   2.118   6.993  0.0888  0.3894 -0.2237
  169DOPC   H5R20536   1.646   2.008   7.009  0.1882  0.4864  0.4198
  169DOPC   H5S20537   1.744   2.153   6.982  0.0648  0.3024 -0.8037
  169DOPC   C2620538   1.572   2.171   6.866 -0.0541  0.4661 -0.0392
  169DOPC   H6R20539   1.575   2.282   6.872 -2.4027  0.4815  3.1862
  169DOPC   H6S20540   1.463   2.155   6.881  0.1128  1.6068  2.9119
  169DOPC   C2720541   1.620   2.123   6.732  0.0231 -0.6784  0.0318
  169DOPC   H7R20542   1.592   2.015   6.737 -1.2423 -0.3541  0.3157
  169DOPC   H7S20543   1.731   2.125   6.732  0.0278  0.1225 -1.0778
  169DOPC   C2820544   1.558   2.194   6.606 -0.4502  0.0808  0.0546
  169DOPC   H8R20545   1.553   2.304   6.625 -1.2221  0.3610 -1.6365
  169DOPC   H8S20546   1.449   2.174   6.609 -0.3494 -0.4524  0.2173
  169DOPC   C2920547   1.612   2.165   6.470 -0.0719 -0.1477  0.8826
  169DOPC   H9R20548   1.695   2.093   6.473  0.1213  0.0560  0.4330
  169DOPC  C21020549   1.560   2.191   6.345  0.0070  0.2693 -0.7927
  169DOPC  H10R20550   1.627   2.176   6.259  1.3654 -2.6030  0.6434
  169DOPC  C21120551   1.438   2.279   6.315 -0.0266  0.1381  0.1395
  169DOPC  H11R20552   1.357   2.287   6.390 -1.8449  1.2781 -1.8279
  169DOPC  H11S20553   1.396   2.243   6.218  0.8391 -2.1802  0.5632
  169DOPC  C21220554   1.481   2.424   6.280 -0.4051  0.0893  0.1693
  169DOPC  H12R20555   1.523   2.436   6.177  2.7461  2.0059  1.5216
  169DOPC  H12S20556   1.560   2.459   6.349 -1.5308  1.8617  0.6347
  169DOPC  C21320557   1.364   2.529   6.300 -0.7217  1.3196  0.2496
  169DOPC  H13R20558   1.338   2.518   6.407  0.5038 -0.0228  0.4398
  169DOPC  H13S20559   1.279   2.484   6.245  0.4736  0.4298 -0.9360
  169DOPC  C21420560   1.386   2.675   6.255 -0.2340 -0.4833  0.0539
  169DOPC  H14R20561   1.492   2.702   6.275 -0.0183  1.4150 -2.9377
  169DOPC  H14S20562   1.323   2.746   6.313 -1.3854 -1.2915 -0.1808
  169DOPC  C21520563   1.396   2.683   6.098 -0.7375 -0.2140  0.6801
  169DOPC  H15R20564   1.296   2.666   6.052 -0.2261  1.3828 -1.1248
  169DOPC  H15S20565   1.463   2.601   6.064 -2.5677 -2.1568  1.4548
  169DOPC  C21620566   1.451   2.818   6.054  0.5232 -0.2406  0.2164
  169DOPC  H16R20567   1.541   2.832   6.117 -0.2575 -1.3227  1.6375
  169DOPC  H16S20568   1.376   2.899   6.069  1.4221  0.4752  0.9352
  169DOPC  C21720569   1.489   2.831   5.908 -0.1441 -0.1939 -0.3305
  169DOPC  H17R20570   1.398   2.840   5.844 -0.2787 -1.4486 -0.3355
  169DOPC  H17S20571   1.555   2.747   5.879 -1.2557 -0.5444 -1.9946
  169DOPC  C21820572   1.578   2.954   5.885  0.2732 -0.1575  0.6650
  169DOPC  H18R20573   1.684   2.931   5.909  0.5654  0.0552 -0.3814
  169DOPC  H18S20574   1.558   3.042   5.950 -1.6802 -1.0727  1.3943
  169DOPC  H18T20575   1.578   2.980   5.777  2.6437  2.8340  1.2390
  169DOPC   C3320576   0.840   1.967   7.189 -0.5070 -0.2028 -0.1550
  169DOPC   H3X20577   0.845   1.978   7.079 -1.6863  1.6064 -0.0576
  169DOPC   H3Y20578   0.741   2.005   7.221  0.0831 -0.5393  2.2697
  169DOPC   C3420579   0.862   1.819   7.230 -1.0776  0.0449 -0.2632
  169DOPC   H4X20580   0.859   1.804   7.340 -0.5820  3.4868  0.3438
  169DOPC   H4Y20581   0.957   1.780   7.186 -0.0404  0.9743  1.0786
  169DOPC   C3520582   0.753   1.732   7.162 -0.4311  0.3391  0.5400
  169DOPC   H5X20583   0.658   1.757   7.214 -0.6609  0.4493  0.0667
  169DOPC   H5Y20584   0.783   1.628   7.188  1.7239 -0.1686 -3.2290
  169DOPC   C3620585   0.736   1.750   7.007 -0.3355 -0.0430 -0.7221
  169DOPC   H6X20586   0.663   1.674   6.972 -2.1457  1.2357  0.1205
  169DOPC   H6Y20587   0.699   1.853   6.990  2.0656  1.3705  1.8442
  169DOPC   C3720588   0.872   1.733   6.931 -0.1820  0.0960  0.7990
  169DOPC   H7X20589   0.928   1.828   6.944  0.4601 -0.1670  0.0152
  169DOPC   H7Y20590   0.925   1.646   6.975  0.0498 -0.5276 -0.6653
  169DOPC   C3820591   0.834   1.727   6.781 -0.8013  1.0565 -0.0780
  169DOPC   H8X20592   0.920   1.767   6.722  0.4390  0.2978  1.1541
  169DOPC   H8Y20593   0.759   1.807   6.767  0.1870  2.1571  0.6389
  169DOPC   C3920594   0.782   1.597   6.727  0.5738 -0.2113  0.0496
  169DOPC   H9X20595   0.697   1.562   6.787  0.6807 -0.5393  0.0109
  169DOPC  C31020596   0.819   1.528   6.615 -0.3389 -0.4690 -0.4986
  169DOPC  H10X20597   0.771   1.432   6.589 -0.3807 -0.4866 -0.3563
  169DOPC  C31120598   0.923   1.591   6.525 -0.6087  0.1633  0.5417
  169DOPC  H11X20599   1.016   1.615   6.581 -1.8872  2.2577  1.8813
  169DOPC  H11Y20600   0.882   1.684   6.481  1.1850  0.2243 -1.0948
  169DOPC  C31220601   0.953   1.501   6.404 -0.0221 -0.6178 -0.2146
  169DOPC  H12X20602   0.857   1.473   6.356  0.1211  0.2498 -1.0372
  169DOPC  H12Y20603   0.989   1.407   6.452 -1.6441 -0.7554  0.7871
  169DOPC  C31320604   1.063   1.569   6.323 -0.4480  0.4143 -0.1148
  169DOPC  H13X20605   1.041   1.672   6.290  0.7133  0.9148  0.6191
  169DOPC  H13Y20606   1.154   1.594   6.382 -1.1093 -0.6566  1.4358
  169DOPC  C31420607   1.094   1.496   6.193 -0.0915  0.8183  0.6072
  169DOPC  H14X20608   1.146   1.403   6.223 -0.4359 -0.0531 -1.3203
  169DOPC  H14Y20609   1.000   1.469   6.139  1.5391  0.4823 -2.3117
  169DOPC  C31520610   1.188   1.580   6.104  0.0493  0.1173  0.0646
  169DOPC  H15X20611   1.284   1.590   6.158 -0.0037  3.6507 -0.2702
  169DOPC  H15Y20612   1.154   1.686   6.100  0.5700  0.5372  3.7257
  169DOPC  C31620613   1.224   1.530   5.964 -0.6660 -0.2344 -0.0998
  169DOPC  H16X20614   1.138   1.536   5.894 -0.3071  2.7566 -0.4279
  169DOPC  H16Y20615   1.303   1.589   5.913  0.3975 -0.9790  0.6490
  169DOPC  C31720616   1.276   1.389   5.973 -0.3234 -0.1171  0.2774
  169DOPC  H17X20617   1.373   1.383   6.027 -1.1986  1.6316  2.1799
  169DOPC  H17Y20618   1.204   1.332   6.036 -2.2764  0.6112 -1.2005
  169DOPC  C31820619   1.279   1.314   5.837  0.1026 -0.6032 -0.1402
  169DOPC  H18X20620   1.308   1.207   5.844  0.1372 -0.6460 -0.8783
  169DOPC  H18Y20621   1.180   1.334   5.790  0.2738 -0.3110 -0.3855
  169DOPC  H18Z20622   1.353   1.367   5.773 -1.0266  2.3803  0.8440
  170DOPC     N20623   1.195   1.114   8.503 -0.1230  0.2050  0.2508
  170DOPC   C1220624   1.136   1.056   8.375  0.0278  0.7005  0.0074
  170DOPC  H12A20625   1.155   1.119   8.289  0.3695 -3.0946 -2.9475
  170DOPC  H12B20626   1.030   1.042   8.389  0.4457 -3.6435  0.2044
  170DOPC   C1320627   1.347   1.123   8.491  0.1234  0.1696 -0.0240
  170DOPC  H13A20628   1.384   1.168   8.582  0.0536  0.0974  0.0408
  170DOPC  H13B20629   1.394   1.026   8.486  0.1553  0.1957 -0.2398
  170DOPC  H13C20630   1.382   1.173   8.402 -0.3337 -1.1999 -0.9930
  170DOPC   C1420631   1.158   1.040   8.623  0.4838  0.2964 -0.2531
  170DOPC  H14A20632   1.053   1.043   8.647  0.9938  1.7004  2.1459
  170DOPC  H14B20633   1.187   0.936   8.627 -0.1131  0.1396  0.2318
  170DOPC  H14C20634   1.206   1.090   8.706 -1.9904  1.7594  0.4035
  170DOPC   C1520635   1.148   1.259   8.510  0.4577  0.2776 -0.1260
  170DOPC  H15A20636   1.212   1.322   8.571 -0.8347 -1.4441  3.2994
  170DOPC  H15B20637   1.051   1.257   8.556  0.9832 -1.9687  1.0305
  170DOPC  H15C20638   1.123   1.286   8.409 -1.0446 -0.8307 -0.0856
  170DOPC   C1120639   1.188   0.916   8.338 -0.1352 -0.1576 -0.0289
  170DOPC  H11A20640   1.169   0.898   8.230 -0.7852 -0.7011  0.1741
  170DOPC  H11B20641   1.298   0.904   8.350 -0.1623 -1.6767 -1.0388
  170DOPC     P20642   0.978   0.787   8.388  0.1254  0.2241 -0.1516
  170DOPC   O1320643   0.897   0.905   8.416 -0.3740 -0.3865 -0.2753
  170DOPC   O1420644   0.949   0.668   8.471  0.1964  0.4765  0.0591
  170DOPC   O1220645   1.130   0.819   8.415  0.7841 -0.1409  0.8008
  170DOPC   O1120646   0.960   0.757   8.234 -0.1084 -0.2347  0.7968
  170DOPC    C120647   1.005   0.635   8.174 -0.2123 -0.1340 -0.1780
  170DOPC    HA20648   0.920   0.576   8.135 -2.0864 -0.1955  3.5499
  170DOPC    HB20649   1.054   0.570   8.250 -0.7164 -0.0502  0.2252
  170DOPC    C220650   1.103   0.676   8.065  0.7112  0.8366 -0.8110
  170DOPC    HS20651   1.181   0.745   8.103  1.1231 -0.1938  0.2652
  170DOPC   O2120652   1.017   0.743   7.969 -0.2212 -0.1693 -0.1121
  170DOPC   C2120653   1.089   0.820   7.895  0.4804  0.9748  0.0507
  170DOPC   O2220654   1.212   0.837   7.901  0.0778  0.7444  0.2624
  170DOPC   C2220655   0.993   0.894   7.805 -0.2288  0.8619  0.2081
  170DOPC   H2R20656   0.980   0.991   7.858  0.1469  0.6806  0.6431
  170DOPC   H2S20657   0.891   0.852   7.796  0.3618 -0.7130  0.5463
  170DOPC    C320658   1.175   0.545   8.011 -0.0691 -0.0077 -0.5781
  170DOPC    HX20659   1.097   0.465   8.008 -0.6192  0.5265 -0.9889
  170DOPC    HY20660   1.246   0.511   8.088  1.2916  0.9789 -1.3610
  170DOPC   O3120661   1.232   0.557   7.874  0.0523  0.3213 -0.0124
  170DOPC   C3120662   1.365   0.587   7.886  1.2141 -0.4649 -0.1309
  170DOPC   O3220663   1.425   0.609   7.987  0.0914 -0.3039 -0.0269
  170DOPC   C3220664   1.428   0.578   7.748 -0.4762 -0.0650  0.0943
  170DOPC   H2X20665   1.531   0.621   7.756 -1.1220  1.8393 -1.1979
  170DOPC   H2Y20666   1.425   0.472   7.715 -0.8036 -0.1890  0.5237
  170DOPC   C2320667   1.066   0.912   7.676 -0.3611  0.0734  0.2790
  170DOPC   H3R20668   1.101   0.820   7.624  2.0529  1.7185 -1.2660
  170DOPC   H3S20669   1.156   0.975   7.694 -0.3759 -0.0039  0.6124
  170DOPC   C2420670   0.975   0.979   7.576 -0.1421 -0.3666 -0.2791
  170DOPC   H4R20671   0.947   1.080   7.613  1.5480  0.0240  0.0016
  170DOPC   H4S20672   0.884   0.918   7.556 -0.0543 -0.4830 -0.3243
  170DOPC   C2520673   1.047   0.990   7.437 -0.1084  0.3558 -0.3996
  170DOPC   H5R20674   1.080   0.889   7.404 -3.1541 -1.5550  1.9242
  170DOPC   H5S20675   1.137   1.055   7.449  1.4484 -1.9234  1.3007
  170DOPC   C2620676   0.948   1.035   7.327  0.2910 -0.3460 -0.2658
  170DOPC   H6R20677   0.946   1.146   7.322  0.2736 -0.2736  1.1370
  170DOPC   H6S20678   0.846   0.991   7.325 -0.3452  0.9732  1.0865
  170DOPC   C2720679   1.015   0.997   7.193 -0.6445 -0.5739  1.2091
  170DOPC   H7R20680   1.036   0.888   7.199  0.7229 -0.3523  0.9150
  170DOPC   H7S20681   1.105   1.063   7.191  1.1022 -2.7753 -1.9215
  170DOPC   C2820682   0.927   1.029   7.070  0.7200 -0.7307  0.3976
  170DOPC   H8R20683   0.881   1.130   7.085 -0.1070 -0.8525 -1.0935
  170DOPC   H8S20684   0.845   0.954   7.066 -0.9842  1.0541  0.1017
  170DOPC   C2920685   1.028   1.025   6.949 -0.6341 -0.1902  1.1706
  170DOPC   H9R20686   1.122   1.080   6.963 -2.2416  2.6878  1.4879
  170DOPC  C21020687   1.018   0.960   6.841  0.5004 -0.1372 -0.2495
  170DOPC  H10R20688   1.102   0.964   6.770  1.3667 -4.7174  0.1695
  170DOPC  C21120689   0.905   0.868   6.789  0.2229  0.4389  0.3218
  170DOPC  H11R20690   0.821   0.863   6.862  0.7876  2.8534  1.2400
  170DOPC  H11S20691   0.945   0.765   6.794 -0.8583  0.0206  0.6717
  170DOPC  C21220692   0.872   0.889   6.642 -0.6756 -0.6166  0.0041
  170DOPC  H12R20693   0.825   0.989   6.636 -0.0254 -0.3749 -1.5398
  170DOPC  H12S20694   0.800   0.810   6.610 -0.8454  0.0523 -1.3115
  170DOPC  C21320695   0.996   0.880   6.552 -0.1889 -0.2553  0.2499
  170DOPC  H13R20696   1.057   0.791   6.578  0.7058  0.9150  2.4178
  170DOPC  H13S20697   1.064   0.966   6.573 -2.7431  1.9128  0.1968
  170DOPC  C21420698   0.969   0.870   6.404  0.0015 -0.2838  0.2648
  170DOPC  H14R20699   0.917   0.960   6.363 -0.6782  0.0656  1.8196
  170DOPC  H14S20700   0.903   0.783   6.386  0.9637 -0.6958 -1.4325
  170DOPC  C21520701   1.099   0.852   6.330  0.0558 -0.1911 -0.0320
  170DOPC  H15R20702   1.158   0.766   6.369  0.2186  0.4317  1.1321
  170DOPC  H15S20703   1.165   0.940   6.342 -0.9373  0.5448  0.1572
  170DOPC  C21620704   1.075   0.839   6.177  0.5752 -0.3358 -0.0902
  170DOPC  H16R20705   1.010   0.924   6.148 -1.8704 -2.6589 -1.9787
  170DOPC  H16S20706   1.024   0.744   6.151 -0.5060  1.2565 -4.9620
  170DOPC  C21720707   1.211   0.830   6.105  0.9064  0.0279 -0.1210
  170DOPC  H17R20708   1.216   0.744   6.035  1.5064 -0.6607  0.7382
  170DOPC  H17S20709   1.292   0.819   6.180  2.4886  0.1435 -1.7268
  170DOPC  C21820710   1.235   0.960   6.025 -0.3207 -0.1649 -0.0032
  170DOPC  H18R20711   1.324   0.945   5.960 -1.3260 -1.5980 -1.1277
  170DOPC  H18S20712   1.249   1.040   6.101  1.6208 -2.3002  2.0098
  170DOPC  H18T20713   1.158   0.993   5.950  0.7766  0.4644 -0.8869
  170DOPC   C3320714   1.362   0.666   7.642  0.0298 -0.3803 -1.2357
  170DOPC   H3X20715   1.382   0.774   7.661  1.1615 -0.6806 -0.6353
  170DOPC   H3Y20716   1.252   0.653   7.651 -0.3230  2.4221 -0.3683
  170DOPC   C3420717   1.422   0.645   7.503 -0.4619  0.7039  0.1266
  170DOPC   H4X20718   1.425   0.535   7.489  3.3257  0.5217  1.3050
  170DOPC   H4Y20719   1.531   0.663   7.498  0.2350 -3.0454 -0.4730
  170DOPC   C3520720   1.346   0.702   7.387  0.5052 -0.1277  0.4273
  170DOPC   H5X20721   1.320   0.809   7.398 -0.7880 -0.2660 -0.9050
  170DOPC   H5Y20722   1.249   0.647   7.383 -0.1031  0.8942  0.8171
  170DOPC   C3620723   1.415   0.679   7.253  0.6402  0.4401 -0.0541
  170DOPC   H6X20724   1.523   0.706   7.261  1.1455 -1.8751  2.4377
  170DOPC   H6Y20725   1.412   0.569   7.236 -0.9149  0.6210 -1.0906
  170DOPC   C3720726   1.349   0.754   7.145 -0.1616  0.0825 -0.0045
  170DOPC   H7X20727   1.253   0.802   7.173  0.0185  0.9794 -0.8577
  170DOPC   H7Y20728   1.412   0.842   7.121 -1.0026  1.2971  1.9318
  170DOPC   C3820729   1.318   0.662   7.026  0.1357  0.0299 -0.1398
  170DOPC   H8X20730   1.230   0.696   6.967  1.0579  0.3277 -1.3757
  170DOPC   H8Y20731   1.288   0.563   7.067  0.9366  0.4569  1.5449
  170DOPC   C3920732   1.445   0.654   6.933 -0.2491  0.5481 -0.1632
  170DOPC   H9X20733   1.532   0.606   6.981 -0.4204  1.3007  0.9597
  170DOPC  C31020734   1.458   0.688   6.802  0.1085  0.7048 -0.5124
  170DOPC  H10X20735   1.558   0.688   6.757  0.7409 -0.3803  0.8095
  170DOPC  C31120736   1.334   0.747   6.724  0.0323 -0.3802  0.7689
  170DOPC  H11X20737   1.245   0.772   6.785  0.2146  2.0229  0.1651
  170DOPC  H11Y20738   1.297   0.679   6.645 -3.2734  1.5588  0.4590
  170DOPC  C31220739   1.386   0.868   6.646 -0.5684 -0.0780 -0.0752
  170DOPC  H12X20740   1.423   0.949   6.712  1.0950 -0.0820 -0.9630
  170DOPC  H12Y20741   1.299   0.916   6.597  1.3457 -1.3214 -5.2703
  170DOPC  C31320742   1.498   0.841   6.538  0.0165 -0.2573 -0.0494
  170DOPC  H13X20743   1.504   0.931   6.473 -0.0365 -1.4270 -1.7494
  170DOPC  H13Y20744   1.598   0.822   6.583  0.1896  0.8774  0.0871
  170DOPC  C31420745   1.460   0.726   6.439 -0.6447 -0.1144 -0.0172
  170DOPC  H14X20746   1.483   0.626   6.481 -1.0434 -0.7206 -1.2159
  170DOPC  H14Y20747   1.350   0.732   6.450 -0.5890  1.9468 -0.0409
  170DOPC  C31520748   1.521   0.733   6.297 -0.3082 -0.4176  0.5457
  170DOPC  H15X20749   1.629   0.749   6.318 -0.2425  0.9764 -0.7224
  170DOPC  H15Y20750   1.488   0.834   6.263  0.5403  0.2791  1.7039
  170DOPC  C31620751   1.487   0.621   6.204 -0.0076 -0.8048 -0.2171
  170DOPC  H16X20752   1.536   0.531   6.247 -1.1145 -1.1639  0.3236
  170DOPC  H16Y20753   1.377   0.607   6.214  0.2271 -1.1012  2.5955
  170DOPC  C31720754   1.502   0.650   6.055  0.4025  0.0163 -0.7019
  170DOPC  H17X20755   1.462   0.568   5.992 -0.8232  0.1837 -0.1654
  170DOPC  H17Y20756   1.463   0.747   6.019 -0.1739  0.6020  1.3377
  170DOPC  C31820757   1.649   0.657   6.028 -0.3404  0.5225  0.5584
  170DOPC  H18X20758   1.663   0.691   5.924  0.0315  0.3073  0.5350
  170DOPC  H18Y20759   1.699   0.733   6.092  0.4942  0.9018 -0.5267
  170DOPC  H18Z20760   1.694   0.556   6.039 -1.1323  0.2600  1.5843
  171DOPC     N20761   5.492   3.555   3.318 -0.3733  0.0224 -0.4771
  171DOPC   C1220762   5.561   3.546   3.463  0.3920  0.1746  0.0049
  171DOPC  H12A20763   5.593   3.446   3.485 -1.4151 -0.6136 -0.7267
  171DOPC  H12B20764   5.480   3.562   3.533  0.8440 -1.7968  1.0494
  171DOPC   C1320765   5.362   3.482   3.310 -0.1556  0.6656 -0.8401
  171DOPC  H13A20766   5.298   3.529   3.383 -0.0749 -0.3305 -0.1051
  171DOPC  H13B20767   5.322   3.484   3.209 -2.8343  1.4410  0.1551
  171DOPC  H13C20768   5.374   3.381   3.347 -0.4642  1.1637  0.6714
  171DOPC   C1420769   5.587   3.504   3.211  0.4434  0.6596 -0.3081
  171DOPC  H14A20770   5.671   3.571   3.202 -0.1963  1.5608  0.3045
  171DOPC  H14B20771   5.622   3.404   3.230  0.1663  0.7640  0.8373
  171DOPC  H14C20772   5.533   3.504   3.117 -0.2953  0.1735  0.1100
  171DOPC   C1520773   5.470   3.695   3.279  0.5941  0.0769 -0.3606
  171DOPC  H15A20774   5.414   3.749   3.353  0.1975 -0.1397 -0.4948
  171DOPC  H15B20775   5.399   3.699   3.197  1.6636 -2.4216 -1.5399
  171DOPC  H15C20776   5.558   3.752   3.257  0.2493  2.0875  2.8918
  171DOPC   C1120777   5.671   3.661   3.500  0.0368 -0.1169 -0.4042
  171DOPC  H11A20778   5.708   3.630   3.600  2.2395 -0.5934 -1.2976
  171DOPC  H11B20779   5.755   3.658   3.427  1.7900 -0.9529  1.5322
  171DOPC     P20780   5.508   3.845   3.597  0.4877  0.0250  0.2011
  171DOPC   O1320781   5.466   3.736   3.684 -0.4101 -0.0024 -0.6955
  171DOPC   O1420782   5.404   3.906   3.507 -0.0622  0.2868  0.3543
  171DOPC   O1220783   5.620   3.795   3.502 -0.0195  0.1180 -0.4509
  171DOPC   O1120784   5.582   3.959   3.674  1.1720 -0.3509  0.7682
  171DOPC    C120785   5.540   3.997   3.799  0.7045 -0.2221  0.6397
  171DOPC    HA20786   5.454   3.936   3.834  2.2422 -2.3372  0.9069
  171DOPC    HB20787   5.499   4.100   3.784  0.3910 -0.3546  0.5809
  171DOPC    C220788   5.653   3.996   3.898  0.0712  0.4653  0.4945
  171DOPC    HS20789   5.721   4.077   3.862 -0.6708  0.7122 -0.3794
  171DOPC   O2120790   5.719   3.865   3.911  0.1947 -0.1563 -0.2664
  171DOPC   C2120791   5.837   3.834   3.841  0.8394  0.6849 -0.0644
  171DOPC   O2220792   5.903   3.916   3.782 -0.5349  0.1652  0.1540
  171DOPC   C2220793   5.865   3.685   3.866  0.4610 -0.2320  0.7743
  171DOPC   H2R20794   5.969   3.674   3.827  1.0270  0.3484  2.0628
  171DOPC   H2S20795   5.799   3.628   3.796  2.3007  0.4835 -1.6809
  171DOPC    C320796   5.599   4.025   4.034 -0.6404 -0.5138  0.1966
  171DOPC    HX20797   5.558   4.127   4.020 -1.1302 -0.8014 -0.4964
  171DOPC    HY20798   5.680   4.033   4.109  0.1602 -0.2971 -0.6783
  171DOPC   O3120799   5.496   3.927   4.076  0.2217  0.0221 -0.1654
  171DOPC   C3120800   5.413   3.980   4.162  0.2283  0.0498 -0.1566
  171DOPC   O3220801   5.393   4.095   4.189 -0.0264  0.5993  0.3237
  171DOPC   C3220802   5.331   3.870   4.229 -0.0675 -1.5124  0.8326
  171DOPC   H2X20803   5.268   3.834   4.145  0.0318  0.7043 -0.2877
  171DOPC   H2Y20804   5.398   3.788   4.259 -0.0329 -1.7814  0.0452
  171DOPC   C2320805   5.850   3.632   4.011 -0.1596  0.1106 -0.2615
  171DOPC   H3R20806   5.877   3.525   4.021  3.0025  0.8076 -0.0359
  171DOPC   H3S20807   5.744   3.651   4.036 -0.2513  1.0544 -1.3061
  171DOPC   C2420808   5.936   3.707   4.117  0.2080  0.2632  0.4967
  171DOPC   H4R20809   5.908   3.814   4.113  0.1069  0.1886 -1.7772
  171DOPC   H4S20810   6.041   3.709   4.081  0.2419  0.3300  0.5958
  171DOPC   C2520811   5.909   3.632   4.247 -0.1155  0.2750  0.4450
  171DOPC   H5R20812   5.810   3.582   4.238 -0.4933  1.0805 -0.0348
  171DOPC   H5S20813   5.910   3.696   4.338  0.1272  1.1611 -0.1652
  171DOPC   C2620814   6.014   3.525   4.263  0.1178  0.2792  0.1064
  171DOPC   H6R20815   6.116   3.563   4.284  0.4602 -1.5494  2.0300
  171DOPC   H6S20816   6.011   3.466   4.168  0.6671  2.3143 -1.2342
  171DOPC   C2720817   5.977   3.430   4.378 -0.0443  0.0933 -0.1744
  171DOPC   H7R20818   6.054   3.350   4.388 -0.3894 -0.2511 -0.2675
  171DOPC   H7S20819   5.882   3.384   4.344  0.0424 -0.3263  0.1450
  171DOPC   C2820820   5.952   3.498   4.516  0.4466  0.6882  0.3612
  171DOPC   H8R20821   5.929   3.418   4.589 -0.4737 -1.8222 -2.4681
  171DOPC   H8S20822   5.861   3.562   4.513  0.2731  0.4335  0.1583
  171DOPC   C2920823   6.073   3.583   4.557  0.1417  0.0090  0.3702
  171DOPC   H9R20824   6.102   3.659   4.483 -0.6646  0.6659  0.7193
  171DOPC  C21020825   6.152   3.564   4.657  0.4032 -0.1167 -0.5989
  171DOPC  H10R20826   6.229   3.640   4.675 -0.2295  0.5395 -0.5836
  171DOPC  C21120827   6.131   3.466   4.768  0.2446  0.0873 -0.2051
  171DOPC  H11R20828   6.222   3.404   4.785  0.3331  0.7709  2.1923
  171DOPC  H11S20829   6.054   3.389   4.747  1.8706 -1.5294 -0.5451
  171DOPC  C21220830   6.096   3.544   4.895  0.1887  0.3444  0.3250
  171DOPC  H12R20831   5.999   3.591   4.868  0.2390  0.1031 -0.2985
  171DOPC  H12S20832   6.176   3.620   4.906  2.4258 -1.8958  0.3691
  171DOPC  C21320833   6.069   3.454   5.013  0.4653  0.1909 -0.8463
  171DOPC  H13R20834   6.170   3.432   5.052  0.1629  2.9424  1.8780
  171DOPC  H13S20835   6.013   3.363   4.984 -0.0297  0.0789  0.4159
  171DOPC  C21420836   5.983   3.522   5.121  0.0819  0.1359  0.0641
  171DOPC  H14R20837   5.971   3.446   5.200  0.8429 -0.0804 -0.0124
  171DOPC  H14S20838   5.881   3.533   5.079  0.9326  0.8913 -1.9637
  171DOPC  C21520839   6.044   3.648   5.179 -0.1466 -0.8036 -0.2180
  171DOPC  H15R20840   6.074   3.714   5.095 -1.1444 -0.3222 -0.2133
  171DOPC  H15S20841   6.137   3.638   5.238  0.1961  3.1969  0.1858
  171DOPC  C21620842   5.950   3.717   5.275 -0.1969 -0.3155 -0.0200
  171DOPC  H16R20843   5.848   3.722   5.232  0.6798 -0.9206 -2.3296
  171DOPC  H16S20844   5.985   3.821   5.291  1.1845 -0.6561 -0.6799
  171DOPC  C21720845   5.938   3.650   5.414  0.3562 -0.4671  0.1956
  171DOPC  H17R20846   6.041   3.643   5.454  0.2324 -1.6794  0.3570
  171DOPC  H17S20847   5.892   3.551   5.391 -1.9699  0.7345 -0.6207
  171DOPC  C21820848   5.862   3.724   5.526 -0.1269 -0.2636  0.3675
  171DOPC  H18R20849   5.927   3.806   5.562  1.1021 -1.3646  0.7368
  171DOPC  H18S20850   5.832   3.657   5.609  0.3770 -1.0169 -0.0481
  171DOPC  H18T20851   5.769   3.767   5.483  0.4328  1.0713  0.4580
  171DOPC   C3320852   5.242   3.918   4.347  0.1238 -0.1120  0.6377
  171DOPC   H3X20853   5.166   3.842   4.376 -0.2113  0.5367  1.5178
  171DOPC   H3Y20854   5.181   4.005   4.312  0.5726 -1.3225 -3.7356
  171DOPC   C3420855   5.328   3.938   4.475 -0.4223 -0.1616 -0.1124
  171DOPC   H4X20856   5.389   4.030   4.472  0.4432 -0.7543 -0.9448
  171DOPC   H4Y20857   5.398   3.852   4.482 -0.6055 -0.4144 -1.1481
  171DOPC   C3520858   5.243   3.926   4.604 -0.0893  0.0366  0.7434
  171DOPC   H5X20859   5.170   3.842   4.604 -0.2814  0.1149 -2.4351
  171DOPC   H5Y20860   5.184   4.019   4.611 -0.9905 -0.5210  0.6597
  171DOPC   C3620861   5.328   3.930   4.738  0.1186 -0.3166 -0.0857
  171DOPC   H6X20862   5.388   3.837   4.739 -1.3844 -1.3111  0.2042
  171DOPC   H6Y20863   5.394   4.019   4.727 -2.0544  1.3120 -0.6133
  171DOPC   C3720864   5.241   3.949   4.866 -0.1281  1.0352  0.0154
  171DOPC   H7X20865   5.178   4.037   4.841  0.2813  1.1301 -0.7388
  171DOPC   H7Y20866   5.178   3.858   4.877  0.1669  0.8085 -0.1487
  171DOPC   C3820867   5.316   3.976   5.002 -0.2117 -0.5343 -0.2711
  171DOPC   H8X20868   5.253   4.018   5.084  0.9596 -2.3972  1.7037
  171DOPC   H8Y20869   5.387   4.058   4.980 -1.3243  0.4220 -0.4241
  171DOPC   C3920870   5.384   3.858   5.058 -0.1611  0.9781 -0.7069
  171DOPC   H9X20871   5.399   3.775   4.987  2.7029 -0.2507  1.1504
  171DOPC  C31020872   5.420   3.842   5.196 -0.1478 -0.7540  0.1606
  171DOPC  H10X20873   5.475   3.752   5.228  0.0372 -1.1171 -1.1405
  171DOPC  C31120874   5.394   3.943   5.306 -0.7073  0.1039  0.7273
  171DOPC  H11X20875   5.361   3.912   5.408  0.0809  2.1429  1.6687
  171DOPC  H11Y20876   5.313   4.014   5.277 -1.7794 -1.3134  0.1587
  171DOPC  C31220877   5.524   4.027   5.315 -0.0127  0.1052  0.1025
  171DOPC  H12X20878   5.543   4.069   5.214  2.2186 -0.5636  0.1759
  171DOPC  H12Y20879   5.615   3.966   5.337 -0.3983  0.2022  2.2087
  171DOPC  C31320880   5.500   4.154   5.405  0.1526  0.4206  0.3375
  171DOPC  H13X20881   5.597   4.208   5.400  0.7397 -0.5084  1.2096
  171DOPC  H13Y20882   5.411   4.208   5.366 -1.6921 -2.6939 -0.1706
  171DOPC  C31420883   5.482   4.110   5.552 -0.6753  0.1698  0.5364
  171DOPC  H14X20884   5.382   4.068   5.576 -0.5218 -0.1106  0.6927
  171DOPC  H14Y20885   5.558   4.030   5.565 -0.0178  0.5820 -0.6503
  171DOPC  C31520886   5.520   4.231   5.645 -0.4058 -0.0869  0.4627
  171DOPC  H15X20887   5.627   4.247   5.619 -0.4015 -0.5489  0.1817
  171DOPC  H15Y20888   5.507   4.194   5.748 -0.2700 -0.5035  0.3311
  171DOPC  C31620889   5.433   4.362   5.626 -0.1678 -0.6522 -0.8677
  171DOPC  H16X20890   5.433   4.401   5.521  3.1716  1.1153 -0.3486
  171DOPC  H16Y20891   5.331   4.328   5.654 -0.5071  0.5592 -0.6055
  171DOPC  C31720892   5.458   4.486   5.714 -0.5190 -0.1764  0.2598
  171DOPC  H17X20893   5.459   4.455   5.821 -2.5094 -1.3202 -0.0090
  171DOPC  H17Y20894   5.558   4.533   5.701 -0.6829  0.3243  0.7873
  171DOPC  C31820895   5.343   4.586   5.691  0.1434 -0.3893  0.4361
  171DOPC  H18X20896   5.355   4.680   5.748 -0.8238 -0.1277  0.2209
  171DOPC  H18Y20897   5.348   4.615   5.584 -0.5725 -0.2801  0.4273
  171DOPC  H18Z20898   5.243   4.545   5.717  0.7965 -0.4945  3.1299
  172DOPC     N20899   2.486   5.786   3.919 -0.3625  0.0335 -0.2762
  172DOPC   C1220900   2.485   5.805   4.070  0.3341 -0.4053 -0.5961
  172DOPC  H12A20901   2.404   5.746   4.109 -0.1072 -2.1721 -3.8249
  172DOPC  H12B20902   2.470   5.910   4.093  0.4973 -0.8419  1.6566
  172DOPC   C1320903   2.540   5.650   3.895  0.4979  0.2861 -0.1066
  172DOPC  H13A20904   2.497   5.581   3.966  2.5117  1.5153  2.4569
  172DOPC  H13B20905   2.514   5.627   3.793 -2.4178  1.8532  0.1709
  172DOPC  H13C20906   2.648   5.655   3.898  0.6221 -1.3999 -0.4077
  172DOPC   C1420907   2.573   5.884   3.849  0.0268  0.3055 -0.2007
  172DOPC  H14A20908   2.533   5.983   3.860  0.2217  0.5716 -1.6028
  172DOPC  H14B20909   2.675   5.882   3.884  0.4652 -0.6049 -1.4391
  172DOPC  H14C20910   2.586   5.856   3.745  0.6245  0.9049 -0.3000
  172DOPC   C1520911   2.345   5.795   3.873  0.4021 -0.0996 -0.0513
  172DOPC  H15A20912   2.341   5.783   3.766 -3.4861  1.6604 -0.2621
  172DOPC  H15B20913   2.311   5.897   3.875  4.0255  1.2531  1.5250
  172DOPC  H15C20914   2.280   5.725   3.923  0.0115  1.9013  2.4059
  172DOPC   C1120915   2.614   5.766   4.146 -0.4137 -0.3058 -0.5654
  172DOPC  H11A20916   2.703   5.810   4.096 -0.9355 -0.1517 -1.3807
  172DOPC  H11B20917   2.609   5.800   4.251  0.3349 -3.7460  0.7267
  172DOPC     P20918   2.560   5.520   4.233  0.4623  0.1979  0.1314
  172DOPC   O1320919   2.638   5.399   4.209 -0.1021 -0.1112  0.4964
  172DOPC   O1420920   2.417   5.519   4.185  0.1126 -0.2576  0.7191
  172DOPC   O1220921   2.638   5.626   4.155 -0.1033 -0.0739 -0.4445
  172DOPC   O1120922   2.570   5.561   4.385  0.0440 -0.2297  0.2093
  172DOPC    C120923   2.467   5.646   4.443 -0.3208 -0.5692  0.1789
  172DOPC    HA20924   2.362   5.614   4.427 -0.7806  0.6973  0.5391
  172DOPC    HB20925   2.478   5.748   4.402 -0.1133 -0.0568  1.4456
  172DOPC    C220926   2.487   5.664   4.594  0.1011 -0.0186  0.3619
  172DOPC    HS20927   2.590   5.703   4.607  0.6278 -0.7854 -1.2817
  172DOPC   O2120928   2.467   5.536   4.658  0.5392  0.3034  0.4520
  172DOPC   C2120929   2.543   5.512   4.766 -0.1187  0.7092 -0.0762
  172DOPC   O2220930   2.610   5.598   4.823  0.6904 -0.4145  0.0757
  172DOPC   C2220931   2.536   5.363   4.811 -0.6891  0.1134  0.8116
  172DOPC   H2R20932   2.528   5.304   4.717 -1.2227  3.0065 -1.0901
  172DOPC   H2S20933   2.446   5.338   4.872  0.9398  0.9374  3.7648
  172DOPC    C320934   2.373   5.761   4.646 -0.4948  0.2671  0.0202
  172DOPC    HX20935   2.277   5.748   4.591 -1.6786  0.3513  1.9465
  172DOPC    HY20936   2.400   5.863   4.614  0.3489  0.0018 -0.1368
  172DOPC   O3120937   2.334   5.753   4.785  0.1537  0.4364  0.1816
  172DOPC   C3120938   2.414   5.815   4.867 -0.9015 -0.0706 -0.4456
  172DOPC   O3220939   2.511   5.881   4.837 -0.2031 -0.3390  0.2390
  172DOPC   C3220940   2.380   5.771   5.006  0.3061 -0.0201 -0.1233
  172DOPC   H2X20941   2.346   5.864   5.058  1.9227  0.6146 -0.1147
  172DOPC   H2Y20942   2.305   5.690   5.001  3.0515 -2.7516  0.1129
  172DOPC   C2320943   2.663   5.325   4.890  0.0413 -0.8454 -0.7504
  172DOPC   H3R20944   2.693   5.406   4.960  0.3096 -1.3459 -0.2819
  172DOPC   H3S20945   2.750   5.327   4.821  1.1683  0.6213  0.6487
  172DOPC   C2420946   2.660   5.186   4.963  0.4129  0.1744 -0.2944
  172DOPC   H4R20947   2.643   5.107   4.887 -0.3590 -0.3731  0.4380
  172DOPC   H4S20948   2.565   5.185   5.020  0.3564 -1.5418 -0.3556
  172DOPC   C2520949   2.778   5.151   5.054  0.2087 -0.5041 -0.2936
  172DOPC   H5R20950   2.864   5.195   4.997  0.4851  0.0587  0.5365
  172DOPC   H5S20951   2.804   5.043   5.055 -1.1500 -0.8577 -1.2183
  172DOPC   C2620952   2.774   5.231   5.186  0.1798  0.7553 -0.1268
  172DOPC   H6R20953   2.772   5.340   5.164  1.4479  0.5928 -1.1301
  172DOPC   H6S20954   2.875   5.220   5.231 -0.4912  2.6656  2.0358
  172DOPC   C2720955   2.673   5.178   5.285 -0.1387 -0.0376  0.7552
  172DOPC   H7R20956   2.639   5.075   5.259  1.1892 -0.1162 -0.8296
  172DOPC   H7S20957   2.582   5.241   5.269 -1.0055 -0.7811  2.4504
  172DOPC   C2820958   2.710   5.199   5.427 -0.9813  0.2203 -0.0698
  172DOPC   H8R20959   2.749   5.299   5.455 -1.4132 -0.2596  2.5427
  172DOPC   H8S20960   2.805   5.145   5.447 -1.1966  0.1499  0.8231
  172DOPC   C2920961   2.600   5.152   5.522 -0.4611  0.1275 -0.4848
  172DOPC   H9R20962   2.510   5.215   5.528  0.1902  0.9632  1.4249
  172DOPC  C21020963   2.607   5.046   5.600 -0.0498  0.3335 -0.9407
  172DOPC  H10R20964   2.518   5.032   5.663 -0.7632  2.7038 -1.3282
  172DOPC  C21120965   2.723   4.960   5.633  0.3405  0.1142  0.3128
  172DOPC  H11R20966   2.783   4.949   5.540 -0.8574  2.5494 -0.8250
  172DOPC  H11S20967   2.671   4.864   5.654 -1.1231  1.1190  1.4273
  172DOPC  C21220968   2.809   5.003   5.753  0.0371 -0.7933 -0.0198
  172DOPC  H12R20969   2.883   5.083   5.730 -1.0329 -0.0891 -1.1682
  172DOPC  H12S20970   2.885   4.923   5.763  1.4326  0.3574 -0.8360
  172DOPC  C21320971   2.730   5.024   5.887 -0.4548  0.1876  0.5504
  172DOPC  H13R20972   2.656   4.942   5.899 -0.9827  0.4669 -0.6136
  172DOPC  H13S20973   2.665   5.113   5.871 -0.6039 -0.0837 -0.4038
  172DOPC  C21420974   2.815   5.055   6.002 -0.0576  0.5887 -0.1503
  172DOPC  H14R20975   2.819   5.167   6.001 -3.0299  0.7851  0.6348
  172DOPC  H14S20976   2.918   5.014   5.998 -0.1819  0.0647  1.4058
  172DOPC  C21520977   2.754   5.025   6.141  0.1836  0.0435  0.2232
  172DOPC  H15R20978   2.775   4.918   6.162  1.7389  0.6109  1.9166
  172DOPC  H15S20979   2.645   5.044   6.137  0.3821  1.0269 -1.0176
  172DOPC  C21620980   2.839   5.093   6.249 -1.3720 -0.8346 -0.2867
  172DOPC  H16R20981   2.846   5.201   6.223  0.9570 -0.8082  0.2563
  172DOPC  H16S20982   2.943   5.054   6.252 -0.4895  1.3701  0.3591
  172DOPC  C21720983   2.798   5.072   6.393 -0.0093  0.2180 -0.0879
  172DOPC  H17R20984   2.731   4.985   6.405 -0.0764  0.1890 -0.6781
  172DOPC  H17S20985   2.734   5.154   6.432 -1.8354 -1.4160  0.5062
  172DOPC  C21820986   2.925   5.062   6.484 -0.2318  0.6580  0.0024
  172DOPC  H18R20987   2.999   5.142   6.464  0.1298 -0.0329 -1.5358
  172DOPC  H18S20988   2.971   4.962   6.484  0.8893  1.1241 -1.6723
  172DOPC  H18T20989   2.889   5.086   6.586  2.5774 -0.4187  1.3403
  172DOPC   C3320990   2.501   5.712   5.090 -0.0587  0.1006 -0.0422
  172DOPC   H3X20991   2.590   5.774   5.067 -0.8741  0.2260 -3.2444
  172DOPC   H3Y20992   2.518   5.608   5.055 -1.2359  0.6977 -2.6152
  172DOPC   C3420993   2.462   5.715   5.240  0.5748  0.2247  0.6769
  172DOPC   H4X20994   2.430   5.816   5.275 -1.8175 -0.0905 -0.3406
  172DOPC   H4Y20995   2.560   5.685   5.282  0.8840  1.1139  0.6206
  172DOPC   C3520996   2.357   5.607   5.270 -0.0703 -0.9912 -1.0334
  172DOPC   H5X20997   2.393   5.507   5.240 -0.2256 -0.9837 -1.2517
  172DOPC   H5Y20998   2.260   5.630   5.220 -0.7108  1.7363  1.1733
  172DOPC   C3620999   2.324   5.595   5.425  0.4230 -0.4410  0.0211
  172DOPC   H6X21000   2.274   5.689   5.457 -2.5240 -1.3657 -1.5229
  172DOPC   H6Y21001   2.248   5.515   5.436 -1.5696  1.6149  2.7873
  172DOPC   C3721002   2.449   5.560   5.503  0.9732 -0.0139 -0.6244
  172DOPC   H7X21003   2.496   5.463   5.476 -0.4554 -0.1488 -2.8819
  172DOPC   H7Y21004   2.518   5.647   5.502  0.3339  0.5128 -0.3044
  172DOPC   C3821005   2.431   5.534   5.657  0.7195  0.0578 -0.5669
  172DOPC   H8X21006   2.526   5.493   5.699 -0.9773 -1.3858  2.1118
  172DOPC   H8Y21007   2.361   5.448   5.666  1.0221 -0.1464 -0.0798
  172DOPC   C3921008   2.380   5.653   5.728  0.5468  0.2382  0.0568
  172DOPC   H9X21009   2.421   5.747   5.688  0.5562  0.0487 -0.3787
  172DOPC  C31021010   2.285   5.660   5.821 -0.2869  0.6661 -0.0650
  172DOPC  H10X21011   2.249   5.760   5.849 -2.3993  0.5159 -1.9830
  172DOPC  C31121012   2.212   5.540   5.885  0.5993 -0.1834 -0.8203
  172DOPC  H11X21013   2.234   5.538   5.994  2.0874  1.2315 -1.0566
  172DOPC  H11Y21014   2.248   5.446   5.838  0.9322  0.2032 -1.3555
  172DOPC  C31221015   2.057   5.543   5.868 -0.2255  0.1975 -0.1825
  172DOPC  H12X21016   2.029   5.544   5.761 -0.7566 -2.5924 -0.1394
  172DOPC  H12Y21017   2.022   5.637   5.916 -0.2319  1.4211 -2.4340
  172DOPC  C31321018   1.989   5.425   5.940  0.2230  0.9303  0.1321
  172DOPC  H13X21019   1.881   5.407   5.919  0.7772 -1.8655 -0.7811
  172DOPC  H13Y21020   2.043   5.332   5.913 -0.7758 -0.2345  1.9333
  172DOPC  C31421021   1.994   5.438   6.091  0.3130  0.3571  0.1279
  172DOPC  H14X21022   2.101   5.437   6.119  0.3937  3.2491  0.2645
  172DOPC  H14Y21023   1.963   5.541   6.120 -1.3810  0.7691 -2.6864
  172DOPC  C31521024   1.920   5.333   6.169  0.6559 -1.0976  0.0419
  172DOPC  H15X21025   1.813   5.354   6.148  0.7430 -1.1983 -0.4956
  172DOPC  H15Y21026   1.947   5.348   6.276 -0.2641  0.5348  0.0875
  172DOPC  C31621027   1.965   5.193   6.137  0.6128 -0.1186 -0.0943
  172DOPC  H16X21028   1.890   5.150   6.068  0.1311 -2.5405  1.7847
  172DOPC  H16Y21029   2.068   5.197   6.096  0.4420 -2.6399 -0.9649
  172DOPC  C31721030   1.971   5.092   6.260  0.2455  0.1664  0.2969
  172DOPC  H17X21031   1.984   4.993   6.211 -0.6230  1.3439 -2.5407
  172DOPC  H17Y21032   2.059   5.111   6.324 -0.9374  1.5772  1.5726
  172DOPC  C31821033   1.855   5.081   6.362 -0.5632  0.3987 -0.3355
  172DOPC  H18X21034   1.871   5.164   6.434  0.6295  0.8778 -1.1345
  172DOPC  H18Y21035   1.752   5.087   6.320 -0.4973  0.7646 -0.4498
  172DOPC  H18Z21036   1.863   4.987   6.420 -1.0017 -0.9149 -2.3244
  173DOPC     N21037   3.074   2.423   3.957 -0.7651 -0.3065  0.0321
  173DOPC   C1221038   3.109   2.508   4.085  0.1021  0.2286 -0.4812
  173DOPC  H12A21039   3.136   2.609   4.057  0.9333  0.3808  0.7817
  173DOPC  H12B21040   3.191   2.461   4.136  0.0437  1.1259  0.4748
  173DOPC   C1321041   2.952   2.495   3.891 -0.5371 -0.4356  0.2541
  173DOPC  H13A21042   2.960   2.602   3.880 -3.6810 -0.1985 -0.7253
  173DOPC  H13B21043   2.928   2.441   3.801 -2.9639 -0.5762  0.9323
  173DOPC  H13C21044   2.862   2.488   3.950 -1.3185  2.5797 -0.4221
  173DOPC   C1421045   3.023   2.291   4.005  0.0293 -0.4461 -0.1030
  173DOPC  H14A21046   3.095   2.214   4.028 -0.3572 -0.4441  1.1683
  173DOPC  H14B21047   2.957   2.309   4.088 -0.0449  0.5925 -0.3688
  173DOPC  H14C21048   2.960   2.248   3.928 -0.0277 -1.4043  0.4693
  173DOPC   C1521049   3.175   2.403   3.858 -0.2758  0.8841 -0.1926
  173DOPC  H15A21050   3.138   2.357   3.768  0.2467 -1.3837  0.6657
  173DOPC  H15B21051   3.256   2.339   3.892  0.1144  0.5147 -1.7650
  173DOPC  H15C21052   3.218   2.497   3.825  1.4857  0.4129  0.6283
  173DOPC   C1121053   3.005   2.540   4.198 -0.8931  0.1981 -0.0854
  173DOPC  H11A21054   2.958   2.451   4.246 -0.7098  1.4422  2.5542
  173DOPC  H11B21055   3.065   2.586   4.279  2.5588 -3.5022 -0.2372
  173DOPC     P21056   2.902   2.779   4.142  0.3218  0.2338 -0.0111
  173DOPC   O1321057   2.773   2.818   4.073 -0.8826  0.1722  0.3860
  173DOPC   O1421058   3.033   2.821   4.087 -0.2669 -0.3227  0.0976
  173DOPC   O1221059   2.904   2.626   4.146 -0.1040  0.0902 -0.2417
  173DOPC   O1121060   2.888   2.808   4.295  0.0339 -0.9441 -0.0845
  173DOPC    C121061   2.768   2.779   4.363  0.7015  0.6017  0.2521
  173DOPC    HA21062   2.752   2.669   4.373  0.2829  0.7698  1.5450
  173DOPC    HB21063   2.685   2.830   4.309  0.0339  0.9297  1.5603
  173DOPC    C221064   2.775   2.847   4.505  0.0663  0.2410  0.0007
  173DOPC    HS21065   2.679   2.814   4.552 -0.2062  2.5982  1.2516
  173DOPC   O2121066   2.781   2.988   4.480 -0.2007 -0.0984 -0.5851
  173DOPC   C2121067   2.735   3.063   4.572 -0.2822  0.1535 -0.4359
  173DOPC   O2221068   2.685   3.027   4.677 -0.3862  0.1755 -0.5258
  173DOPC   C2221069   2.761   3.211   4.526  0.0990  0.5223 -0.2847
  173DOPC   H2R21070   2.729   3.229   4.421 -4.3815  0.2203  0.8394
  173DOPC   H2S21071   2.872   3.223   4.533  0.1551 -1.0663  2.9062
  173DOPC    C321072   2.894   2.781   4.581 -0.1322 -0.0113 -0.4097
  173DOPC    HX21073   2.985   2.828   4.536 -0.7760  0.3444 -1.3644
  173DOPC    HY21074   2.893   2.680   4.535  2.2527  0.4960 -1.7460
  173DOPC   O3121075   2.886   2.762   4.722 -0.4306 -0.9630 -0.5009
  173DOPC   C3121076   3.007   2.764   4.788  0.6086 -0.4770  0.3063
  173DOPC   O3221077   3.118   2.776   4.736  0.1570 -0.2937 -0.3521
  173DOPC   C3221078   2.971   2.744   4.937 -0.3484  0.1523  0.4338
  173DOPC   H2X21079   2.932   2.841   4.975  0.3163  0.8585 -0.6421
  173DOPC   H2Y21080   2.887   2.672   4.942 -0.4767  0.2633 -0.1055
  173DOPC   C2321081   2.691   3.304   4.619 -0.1276 -0.4751 -0.4778
  173DOPC   H3R21082   2.701   3.289   4.729 -0.0925 -0.3016 -0.4573
  173DOPC   H3S21083   2.583   3.308   4.595 -0.2417  1.4976  0.2479
  173DOPC   C2421084   2.732   3.458   4.596 -0.4822 -0.5559 -0.2768
  173DOPC   H4R21085   2.665   3.522   4.657  0.0671 -2.3285  2.3818
  173DOPC   H4S21086   2.712   3.474   4.488 -1.1724 -1.9128 -0.3702
  173DOPC   C2521087   2.868   3.500   4.645  0.4103  1.3105  0.1172
  173DOPC   H5R21088   2.945   3.424   4.619 -0.6215  0.8505 -1.7505
  173DOPC   H5S21089   2.858   3.501   4.756 -1.2114 -1.5252  0.0886
  173DOPC   C2621090   2.923   3.634   4.603 -0.1218 -0.0912 -0.0233
  173DOPC   H6R21091   2.858   3.715   4.644  0.8862  1.3260 -1.0885
  173DOPC   H6S21092   2.916   3.653   4.493 -1.8482 -1.7402 -0.2490
  173DOPC   C2721093   3.068   3.658   4.639 -0.6105 -0.2507  0.0664
  173DOPC   H7R21094   3.135   3.597   4.574  0.2479  0.7815 -0.0463
  173DOPC   H7S21095   3.093   3.603   4.732 -0.3770 -1.0248 -0.4404
  173DOPC   C2821096   3.117   3.804   4.658  0.3290  0.4242 -0.1049
  173DOPC   H8R21097   3.084   3.867   4.572 -1.0703  0.5496  0.5010
  173DOPC   H8S21098   3.228   3.803   4.658  0.3959 -2.3463  1.3318
  173DOPC   C2921099   3.064   3.862   4.790 -0.0162 -0.1093 -0.1783
  173DOPC   H9R21100   2.977   3.928   4.793  1.3588  1.7411  1.5330
  173DOPC  C21021101   3.118   3.836   4.911  0.5507 -0.2820 -0.0543
  173DOPC  H10R21102   3.079   3.867   5.009  1.7666  0.2719  0.2776
  173DOPC  C21121103   3.241   3.745   4.931  0.0519 -0.3300 -0.1617
  173DOPC  H11R21104   3.327   3.807   4.965  0.2538 -1.1103  0.7843
  173DOPC  H11S21105   3.282   3.701   4.838  0.5987  1.5926 -0.8925
  173DOPC  C21221106   3.219   3.636   5.035 -0.5976 -0.0875  0.5780
  173DOPC  H12R21107   3.296   3.558   5.018  0.1710  0.9972 -1.2105
  173DOPC  H12S21108   3.124   3.584   5.012 -0.0218 -0.6935 -0.5230
  173DOPC  C21321109   3.237   3.671   5.185 -0.0331  1.2370 -0.3343
  173DOPC  H13R21110   3.158   3.735   5.229  0.7968  0.8362  1.9106
  173DOPC  H13S21111   3.335   3.718   5.207 -0.8750  2.8955  0.0225
  173DOPC  C21421112   3.200   3.549   5.280 -0.1462 -0.8206 -0.0029
  173DOPC  H14R21113   3.235   3.458   5.228 -2.6034 -0.8940 -1.7069
  173DOPC  H14S21114   3.089   3.541   5.273 -0.3563  1.4254 -0.0702
  173DOPC  C21521115   3.237   3.555   5.436 -0.4926  0.0081 -0.4490
  173DOPC  H15R21116   3.347   3.573   5.436 -0.7242  1.6747  1.2004
  173DOPC  H15S21117   3.211   3.460   5.488 -1.2758  0.5404  0.1455
  173DOPC  C21621118   3.188   3.675   5.513  0.5052 -0.0500 -0.0121
  173DOPC  H16R21119   3.079   3.665   5.531  0.2199  2.3966 -0.0745
  173DOPC  H16S21120   3.193   3.774   5.462  0.0887 -0.0091  0.0239
  173DOPC  C21721121   3.255   3.686   5.648  0.3166 -0.3991  0.0910
  173DOPC  H17R21122   3.217   3.778   5.698 -0.8282 -1.1769  0.6966
  173DOPC  H17S21123   3.366   3.698   5.641  0.3232 -0.0730  0.6733
  173DOPC  C21821124   3.238   3.570   5.749  0.2088  0.3323  0.3792
  173DOPC  H18R21125   3.319   3.577   5.825  0.2472  1.6621  0.2386
  173DOPC  H18S21126   3.258   3.475   5.694 -2.4849 -0.3092  0.3759
  173DOPC  H18T21127   3.138   3.560   5.796  0.9337  0.9690  2.1204
  173DOPC   C3321128   3.092   2.692   5.010 -0.5864 -0.0840 -0.0723
  173DOPC   H3X21129   3.181   2.739   4.963 -2.6606  3.1723 -1.1277
  173DOPC   H3Y21130   3.105   2.585   4.986  0.5249  0.4725 -2.2330
  173DOPC   C3421131   3.096   2.727   5.156 -0.0528 -0.3908  0.1391
  173DOPC   H4X21132   3.090   2.838   5.153  2.1695 -0.1561  1.8046
  173DOPC   H4Y21133   3.191   2.687   5.199  1.2464 -1.0500 -3.0701
  173DOPC   C3521134   2.976   2.687   5.237 -0.5498  0.1608  0.1779
  173DOPC   H5X21135   2.986   2.580   5.264  0.4489  1.0544  3.9676
  173DOPC   H5Y21136   2.884   2.700   5.177 -2.8158 -1.4741  3.0340
  173DOPC   C3621137   2.958   2.754   5.370 -0.1491 -0.2384 -0.1925
  173DOPC   H6X21138   3.047   2.727   5.430 -0.0341 -2.4684 -1.2867
  173DOPC   H6Y21139   2.964   2.864   5.352  2.7614  0.1248  2.1730
  173DOPC   C3721140   2.829   2.718   5.447  0.2313  0.0365  0.2367
  173DOPC   H7X21141   2.754   2.771   5.385 -2.7318 -2.1288  1.7322
  173DOPC   H7Y21142   2.812   2.609   5.437  1.4930 -0.3165  1.5241
  173DOPC   C3821143   2.818   2.753   5.595 -0.2032 -0.0644  0.2181
  173DOPC   H8X21144   2.911   2.707   5.634  1.2803  0.9518 -1.9301
  173DOPC   H8Y21145   2.731   2.714   5.652 -1.4379  0.1365 -1.4715
  173DOPC   C3921146   2.825   2.901   5.627 -0.3965 -0.0202  0.1110
  173DOPC   H9X21147   2.908   2.956   5.579 -0.2478 -0.4805 -0.1682
  173DOPC  C31021148   2.751   2.972   5.714  0.0258 -0.5181 -0.2378
  173DOPC  H10X21149   2.773   3.080   5.712  0.2860 -0.5767 -0.8127
  173DOPC  C31121150   2.645   2.926   5.808  0.5613 -0.5289 -0.6971
  173DOPC  H11X21151   2.652   2.818   5.830 -1.3521 -0.5751 -0.1264
  173DOPC  H11Y21152   2.543   2.946   5.769 -0.4106  1.7830  2.5347
  173DOPC  C31221153   2.636   3.007   5.940  0.0290  0.1841 -0.0622
  173DOPC  H12X21154   2.574   2.948   6.011  1.0729  1.3825  1.9635
  173DOPC  H12Y21155   2.591   3.108   5.930  0.1881  0.4168  1.3876
  173DOPC  C31321156   2.770   3.009   6.023 -1.0449  0.8612 -0.6320
  173DOPC  H13X21157   2.807   2.905   6.017  0.4044  1.3262 -0.2459
  173DOPC  H13Y21158   2.833   3.079   5.965  0.7254 -0.9230 -0.9764
  173DOPC  C31421159   2.760   3.044   6.172  0.0708 -0.0306 -0.8133
  173DOPC  H14X21160   2.704   3.139   6.186  0.6979 -0.2318  5.5104
  173DOPC  H14Y21161   2.713   2.959   6.225  0.9361 -0.1162 -0.1714
  173DOPC  C31521162   2.897   3.069   6.247 -0.0731  0.6025  0.1290
  173DOPC  H15X21163   2.952   2.974   6.231 -2.2883 -0.6625 -0.4179
  173DOPC  H15Y21164   2.880   3.074   6.357  2.3014 -1.1183  0.6691
  173DOPC  C31621165   2.981   3.195   6.206  0.2633 -0.1423 -0.0511
  173DOPC  H16X21166   3.075   3.184   6.265  1.5367  0.8386 -1.8023
  173DOPC  H16Y21167   3.019   3.202   6.102  1.5280 -0.3632  0.3720
  173DOPC  C31721168   2.910   3.334   6.239  0.1156  0.1155  0.5617
  173DOPC  H17X21169   2.814   3.342   6.184 -0.5522 -3.6217  0.8552
  173DOPC  H17Y21170   2.889   3.334   6.348 -1.2173 -1.1085  0.3483
  173DOPC  C31821171   3.007   3.444   6.203  0.1677  0.7910 -0.1619
  173DOPC  H18X21172   3.110   3.416   6.235  1.6447  2.7787 -2.7133
  173DOPC  H18Y21173   3.008   3.455   6.092  0.1555 -1.2356 -0.4013
  173DOPC  H18Z21174   2.988   3.547   6.240  0.0229  0.1673  1.5953
  174DOPC     N21175   5.678   2.874   3.679  0.6442 -0.0333 -0.0750
  174DOPC   C1221176   5.592   2.800   3.781 -0.0313 -0.2081  0.1026
  174DOPC  H12A21177   5.573   2.705   3.733 -0.8892 -0.1602  0.3325
  174DOPC  H12B21178   5.495   2.846   3.790 -0.5226 -1.0644 -0.5776
  174DOPC   C1321179   5.806   2.795   3.665  0.3892 -0.3802 -0.6361
  174DOPC  H13A21180   5.788   2.693   3.634 -1.4522 -0.1394 -0.4682
  174DOPC  H13B21181   5.871   2.840   3.592 -0.2445  2.5374  0.4828
  174DOPC  H13C21182   5.846   2.786   3.765  0.6285  0.3295 -0.6636
  174DOPC   C1421183   5.714   3.013   3.720  0.4024  0.4107  1.0387
  174DOPC  H14A21184   5.799   3.041   3.660  0.0509  1.4030  0.9917
  174DOPC  H14B21185   5.636   3.082   3.691 -0.4443 -1.4609 -1.5049
  174DOPC  H14C21186   5.732   3.034   3.824 -0.5314 -0.6620  1.4364
  174DOPC   C1521187   5.617   2.871   3.543  0.2269 -0.4329  0.1069
  174DOPC  H15A21188   5.684   2.897   3.462  0.1561  2.1450  0.7830
  174DOPC  H15B21189   5.545   2.952   3.538 -2.0448 -2.3284  0.4442
  174DOPC  H15C21190   5.565   2.778   3.523 -0.8283 -0.5264  2.8389
  174DOPC   C1121191   5.643   2.762   3.922  0.1124 -0.3156  0.4400
  174DOPC  H11A21192   5.692   2.848   3.972 -2.7723  1.0697  1.1394
  174DOPC  H11B21193   5.556   2.746   3.990 -1.4961  2.2935 -0.8184
  174DOPC     P21194   5.687   2.510   3.946  0.1590 -0.1585  0.1840
  174DOPC   O1321195   5.797   2.435   3.997  0.3686  0.0758 -0.0564
  174DOPC   O1421196   5.629   2.445   3.825  0.0560 -0.1602 -0.4338
  174DOPC   O1221197   5.735   2.652   3.910 -0.1224 -0.4827  0.3394
  174DOPC   O1121198   5.578   2.529   4.057  0.7719  0.1220 -0.3451
  174DOPC    C121199   5.604   2.570   4.192  0.2501  0.4533  0.2067
  174DOPC    HA21200   5.705   2.610   4.216  0.4233 -2.0107  4.4290
  174DOPC    HB21201   5.583   2.484   4.258 -0.6598  1.5962  1.4587
  174DOPC    C221202   5.492   2.660   4.246 -0.3372 -0.3817 -0.5749
  174DOPC    HS21203   5.527   2.765   4.231 -2.4027  0.2658 -1.2377
  174DOPC   O2121204   5.467   2.642   4.386  0.4610  0.0318 -0.1613
  174DOPC   C2121205   5.559   2.664   4.470 -0.0671 -0.5823 -0.8691
  174DOPC   O2221206   5.677   2.690   4.447 -0.3059  0.4982 -0.4736
  174DOPC   C2221207   5.495   2.665   4.612 -0.0863  0.1439  0.2902
  174DOPC   H2R21208   5.453   2.563   4.630  0.5252  0.0691  1.3899
  174DOPC   H2S21209   5.410   2.736   4.614 -0.6912 -0.5811  0.7351
  174DOPC    C321210   5.364   2.644   4.164  0.1480 -0.2023  0.1935
  174DOPC    HX21211   5.334   2.540   4.191  0.6385 -0.0269  1.4426
  174DOPC    HY21212   5.393   2.652   4.057 -0.1015 -0.7878  0.0754
  174DOPC   O3121213   5.258   2.733   4.194  0.3185 -0.0147 -0.1062
  174DOPC   C3121214   5.266   2.855   4.140  0.7358  0.0587  0.5266
  174DOPC   O3221215   5.352   2.888   4.059 -0.1196  0.2174  0.1576
  174DOPC   C3221216   5.155   2.946   4.182  0.0888  0.6228 -0.5141
  174DOPC   H2X21217   5.082   2.955   4.099 -1.3548 -0.2154  0.6029
  174DOPC   H2Y21218   5.109   2.910   4.277  1.1610  0.2009 -0.1501
  174DOPC   C2321219   5.601   2.707   4.722  1.4012 -0.0918 -0.1115
  174DOPC   H3R21220   5.627   2.814   4.714  0.6478  0.1121  0.0799
  174DOPC   H3S21221   5.703   2.665   4.706  1.1828 -0.0221 -1.8717
  174DOPC   C2421222   5.563   2.658   4.855  0.1351  0.0346 -0.0769
  174DOPC   H4R21223   5.550   2.548   4.847  0.9222 -0.0768  0.0851
  174DOPC   H4S21224   5.469   2.707   4.889  0.7434  0.9778  0.2794
  174DOPC   C2521225   5.676   2.678   4.952 -0.1436  0.3653 -0.2350
  174DOPC   H5R21226   5.680   2.789   4.953 -2.6978  0.5891 -2.7476
  174DOPC   H5S21227   5.768   2.632   4.908  0.7320 -0.1015  1.9237
  174DOPC   C2621228   5.631   2.618   5.091  0.5125  0.0030 -0.6847
  174DOPC   H6R21229   5.607   2.510   5.075  3.2699 -0.6346 -1.0642
  174DOPC   H6S21230   5.541   2.672   5.126 -0.4062 -0.7326 -1.8548
  174DOPC   C2721231   5.740   2.612   5.198  0.9695  0.8351  0.5365
  174DOPC   H7R21232   5.768   2.715   5.228 -0.4843  1.3526  0.2060
  174DOPC   H7S21233   5.832   2.564   5.158 -0.1499 -1.1845  0.2547
  174DOPC   C2821234   5.683   2.536   5.319 -0.1880 -0.5630 -0.5557
  174DOPC   H8R21235   5.679   2.426   5.302  0.7802 -1.0299  1.8825
  174DOPC   H8S21236   5.581   2.571   5.349  0.0373 -0.2276 -0.1591
  174DOPC   C2921237   5.777   2.567   5.433 -0.0582 -0.7161 -1.0200
  174DOPC   H9R21238   5.847   2.486   5.460 -1.6020 -1.5279  0.8296
  174DOPC  C21021239   5.774   2.669   5.518  0.2424  0.2595 -0.3307
  174DOPC  H10R21240   5.840   2.671   5.606 -1.3335  2.7943  0.9389
  174DOPC  C21121241   5.668   2.773   5.513  0.3023  0.0668 -0.5614
  174DOPC  H11R21242   5.568   2.724   5.522  0.3037  0.2473  0.6484
  174DOPC  H11S21243   5.667   2.825   5.415 -0.1248  1.0935 -0.0326
  174DOPC  C21221244   5.663   2.868   5.634  0.1570  0.2251 -0.0208
  174DOPC  H12R21245   5.578   2.933   5.605 -0.9021 -0.1012  2.1689
  174DOPC  H12S21246   5.746   2.942   5.627  0.0467  0.3653  0.1692
  174DOPC  C21321247   5.644   2.804   5.767  0.1484  0.3531 -0.1210
  174DOPC  H13R21248   5.735   2.757   5.809  0.7130  2.7377  1.5523
  174DOPC  H13S21249   5.576   2.718   5.749 -0.7797  0.5908  1.8467
  174DOPC  C21421250   5.588   2.902   5.869  0.6087 -0.2435  0.3848
  174DOPC  H14R21251   5.521   2.972   5.814 -0.4442 -0.7826  0.9426
  174DOPC  H14S21252   5.673   2.963   5.906  0.4698 -0.0601  0.4047
  174DOPC  C21521253   5.507   2.832   5.978  0.5577  0.2797 -0.4333
  174DOPC  H15R21254   5.575   2.760   6.027  0.7159  0.9130  0.3131
  174DOPC  H15S21255   5.438   2.762   5.927  0.2741 -2.4496  3.2678
  174DOPC  C21621256   5.458   2.921   6.092  0.2243  0.3127  0.4464
  174DOPC  H16R21257   5.419   3.012   6.041 -0.9736 -1.5834 -2.2810
  174DOPC  H16S21258   5.550   2.949   6.147  2.0613 -0.6209 -1.9613
  174DOPC  C21721259   5.346   2.870   6.179 -0.5260  0.4314 -0.3463
  174DOPC  H17R21260   5.319   2.941   6.261 -1.1598 -0.1108 -0.0772
  174DOPC  H17S21261   5.396   2.783   6.226  0.1161 -0.2964 -2.2718
  174DOPC  C21821262   5.217   2.816   6.111  0.0209 -0.2997  0.1116
  174DOPC  H18R21263   5.192   2.887   6.030 -0.9714  2.4540  2.6776
  174DOPC  H18S21264   5.130   2.805   6.178 -1.0385  1.6278 -0.8433
  174DOPC  H18T21265   5.239   2.714   6.071  0.4028 -0.2080  0.0804
  174DOPC   C3321266   5.211   3.090   4.206 -0.3150  0.1753  0.1599
  174DOPC   H3X21267   5.132   3.161   4.239 -0.5248 -0.6730  1.5712
  174DOPC   H3Y21268   5.259   3.125   4.112  0.2616 -3.0677 -0.8898
  174DOPC   C3421269   5.314   3.089   4.319 -0.2694 -0.6314  0.7019
  174DOPC   H4X21270   5.346   3.191   4.348  1.5268 -1.2850  1.1764
  174DOPC   H4Y21271   5.409   3.044   4.284 -0.3475 -0.1621 -0.1451
  174DOPC   C3521272   5.263   3.031   4.455 -0.1111  0.2845  1.1541
  174DOPC   H5X21273   5.243   2.924   4.435 -0.9298  0.6722 -0.2223
  174DOPC   H5Y21274   5.164   3.075   4.480 -0.0584  1.3959 -0.4676
  174DOPC   C3621275   5.363   3.040   4.570  0.3432  0.0407 -0.0858
  174DOPC   H6X21276   5.458   2.992   4.540  0.0159 -0.2713 -0.6414
  174DOPC   H6Y21277   5.402   3.144   4.569 -1.5161  0.7932 -1.6005
  174DOPC   C3721278   5.320   3.009   4.714  0.6869 -0.5271 -0.4411
  174DOPC   H7X21279   5.239   3.078   4.746  0.8985 -0.2653 -0.4656
  174DOPC   H7Y21280   5.271   2.909   4.715  0.1738 -0.3207  2.1408
  174DOPC   C3821281   5.433   3.007   4.822  0.3201 -0.3173 -0.4901
  174DOPC   H8X21282   5.503   3.093   4.824  1.0680 -0.9069 -0.6022
  174DOPC   H8Y21283   5.503   2.924   4.796 -0.7942 -0.9608 -1.5127
  174DOPC   C3921284   5.365   2.977   4.952 -0.2143 -0.3526 -0.3283
  174DOPC   H9X21285   5.262   2.941   4.937 -0.7610  1.0902 -0.2028
  174DOPC  C31021286   5.415   3.021   5.072 -0.3830  0.5428 -0.1000
  174DOPC  H10X21287   5.349   3.015   5.159 -0.4570  3.1009  0.0918
  174DOPC  C31121288   5.555   3.080   5.101 -0.3986  0.7219  0.1641
  174DOPC  H11X21289   5.631   3.049   5.026  1.8342  1.6295  1.9298
  174DOPC  H11Y21290   5.591   3.042   5.199 -0.9268 -0.9504 -0.2568
  174DOPC  C31221291   5.557   3.239   5.103 -0.4333  0.2516 -0.2945
  174DOPC  H12X21292   5.662   3.273   5.118 -0.9976  3.0223 -2.0310
  174DOPC  H12Y21293   5.500   3.273   5.192  0.1130  0.5555 -0.0595
  174DOPC  C31321294   5.529   3.302   4.968  0.2540 -0.2709 -0.0701
  174DOPC  H13X21295   5.607   3.260   4.901 -1.4310 -0.1594 -2.2680
  174DOPC  H13Y21296   5.428   3.268   4.933 -0.4330  1.1624  0.4609
  174DOPC  C31421297   5.536   3.461   4.949  0.7565 -0.2472  0.0634
  174DOPC  H14X21298   5.470   3.506   5.027 -0.4712 -0.0099 -1.0609
  174DOPC  H14Y21299   5.639   3.498   4.968  0.8070  0.2166 -1.0381
  174DOPC  C31521300   5.474   3.516   4.828 -0.2842  0.0127  0.4775
  174DOPC  H15X21301   5.453   3.625   4.836 -0.9623 -0.1255  0.6663
  174DOPC  H15Y21302   5.375   3.473   4.802 -1.6787  2.8404  0.7283
  174DOPC  C31621303   5.566   3.490   4.706 -0.1530 -0.7956 -0.0038
  174DOPC  H16X21304   5.662   3.546   4.708 -0.6529  0.2255 -1.9706
  174DOPC  H16Y21305   5.594   3.382   4.703  0.5713 -0.6376  0.6675
  174DOPC  C31721306   5.494   3.532   4.582  0.1289 -0.4402 -0.0474
  174DOPC  H17X21307   5.394   3.484   4.586  0.2762 -0.7011  0.7158
  174DOPC  H17Y21308   5.477   3.641   4.589  0.6684 -0.1773 -2.1280
  174DOPC  C31821309   5.549   3.506   4.446 -0.4626  0.3559  0.2649
  174DOPC  H18X21310   5.653   3.543   4.434  0.1512 -1.7342 -1.5226
  174DOPC  H18Y21311   5.561   3.398   4.422 -0.0966  0.1562  1.2891
  174DOPC  H18Z21312   5.488   3.558   4.368 -1.6688 -1.2946  0.0502
  175DOPC     N21313   3.947   6.046   3.644  0.0094 -0.0973  0.1274
  175DOPC   C1221314   4.066   6.044   3.738  0.5960  0.5833 -0.5960
  175DOPC  H12A21315   4.094   6.144   3.767 -2.2464  0.6818  2.4623
  175DOPC  H12B21316   4.154   6.011   3.685  1.1037  1.1292 -0.1026
  175DOPC   C1321317   3.975   6.115   3.516  0.0730  0.1227  0.0253
  175DOPC  H13A21318   4.064   6.068   3.478 -1.2856 -1.2222 -1.6451
  175DOPC  H13B21319   3.896   6.094   3.445 -0.8327 -2.0059  1.5586
  175DOPC  H13C21320   3.988   6.222   3.529 -1.2755  0.5075 -1.4822
  175DOPC   C1421321   3.827   6.119   3.704 -0.1756  0.7146 -0.2128
  175DOPC  H14A21322   3.852   6.223   3.714 -0.7473  1.0112 -1.7155
  175DOPC  H14B21323   3.736   6.113   3.647 -1.0083  2.6583  0.8075
  175DOPC  H14C21324   3.801   6.074   3.799 -0.1190 -1.4625 -1.1598
  175DOPC   C1521325   3.903   5.905   3.610  0.5747 -0.2572  0.3767
  175DOPC  H15A21326   3.851   5.852   3.689 -0.3544 -0.7461 -0.5327
  175DOPC  H15B21327   3.992   5.848   3.589  1.0549  0.1983  1.1126
  175DOPC  H15C21328   3.843   5.908   3.520  1.3582  0.6387 -0.1323
  175DOPC   C1121329   4.050   5.963   3.868  0.2719  0.5529 -0.1057
  175DOPC  H11A21330   4.034   5.856   3.846 -0.0135  0.9704 -2.0878
  175DOPC  H11B21331   4.157   5.958   3.899  0.2855  1.7895  0.1032
  175DOPC     P21332   4.036   6.150   4.054  0.0238  0.0734  0.3779
  175DOPC   O1321333   3.924   6.231   4.109 -0.0059  0.2299 -0.4069
  175DOPC   O1421334   4.123   6.230   3.968 -0.2495 -0.0850  0.2413
  175DOPC   O1221335   3.968   6.034   3.965 -0.3520  0.0921  0.0111
  175DOPC   O1121336   4.119   6.073   4.164 -0.0572  0.7606 -0.4730
  175DOPC    C121337   4.066   5.987   4.264 -0.1906 -0.0773 -0.5937
  175DOPC    HA21338   4.067   5.883   4.223 -0.3252 -0.2396 -0.1885
  175DOPC    HB21339   3.959   6.009   4.282  0.3050  2.4199 -0.4479
  175DOPC    C221340   4.134   5.992   4.398 -0.6974 -0.5741 -0.1943
  175DOPC    HS21341   4.059   5.953   4.471 -0.0908 -0.4491  0.5078
  175DOPC   O2121342   4.182   6.126   4.435  0.1084  0.6453 -0.2119
  175DOPC   C2121343   4.087   6.202   4.479 -0.7203 -0.3757  0.0227
  175DOPC   O2221344   3.976   6.163   4.506 -0.1063 -0.6052  0.0615
  175DOPC   C2221345   4.140   6.349   4.494  0.4755  0.2974  0.1677
  175DOPC   H2R21346   4.056   6.419   4.513 -0.0847 -0.4755  0.6220
  175DOPC   H2S21347   4.192   6.383   4.401 -0.5227  1.6683  0.0773
  175DOPC    C321348   4.257   5.907   4.394 -0.5802  0.8753 -0.4267
  175DOPC    HX21349   4.322   5.939   4.310 -1.5470 -0.5039 -1.7687
  175DOPC    HY21350   4.233   5.800   4.375  0.2704  0.3220  1.4198
  175DOPC   O3121351   4.332   5.927   4.514 -0.5938  0.4212 -0.2695
  175DOPC   C3121352   4.281   5.867   4.623 -0.1768  0.0957  0.0894
  175DOPC   O3221353   4.172   5.810   4.630 -0.0756 -0.2286  0.4854
  175DOPC   C3221354   4.374   5.867   4.745  0.3022 -1.1388 -0.3610
  175DOPC   H2X21355   4.471   5.817   4.721  1.1980 -0.6606  2.0014
  175DOPC   H2Y21356   4.392   5.976   4.757 -0.3071 -1.1412  0.6715
  175DOPC   C2321357   4.235   6.355   4.616  0.3603  0.5074  0.0623
  175DOPC   H3R21358   4.256   6.462   4.636  2.3510 -0.3149  2.9630
  175DOPC   H3S21359   4.325   6.295   4.593  0.1661  0.0717  0.4326
  175DOPC   C2421360   4.185   6.296   4.751 -0.3968 -0.2394  0.6498
  175DOPC   H4R21361   4.173   6.186   4.739  0.4488 -0.1934 -0.7626
  175DOPC   H4S21362   4.086   6.345   4.768 -0.9827 -0.3201 -1.9803
  175DOPC   C2521363   4.287   6.330   4.862 -0.5621  0.6888  0.5879
  175DOPC   H5R21364   4.281   6.438   4.883  0.5879  0.5785  1.5698
  175DOPC   H5S21365   4.392   6.302   4.841 -0.1538 -0.0262  3.2240
  175DOPC   C2621366   4.248   6.266   4.999 -0.3784  0.4959 -1.1781
  175DOPC   H6R21367   4.234   6.157   4.986  1.2765  0.1869 -0.4990
  175DOPC   H6S21368   4.156   6.308   5.046  1.2059  0.2715  2.4466
  175DOPC   C2721369   4.362   6.282   5.104 -0.2906  0.7985 -0.7940
  175DOPC   H7R21370   4.376   6.392   5.109 -0.3290  0.7861 -0.3713
  175DOPC   H7S21371   4.457   6.233   5.075  0.1507  1.0308  0.2344
  175DOPC   C2821372   4.337   6.223   5.246 -0.1942 -0.4188  0.3859
  175DOPC   H8R21373   4.427   6.227   5.311  1.2700  1.3200 -1.6146
  175DOPC   H8S21374   4.326   6.113   5.233  0.4768 -0.2402 -2.5518
  175DOPC   C2921375   4.208   6.268   5.317  0.3904  0.3906  0.0928
  175DOPC   H9R21376   4.113   6.256   5.264 -1.0577  0.3629  2.5396
  175DOPC  C21021377   4.200   6.305   5.446  0.0816 -0.1592 -0.0311
  175DOPC  H10R21378   4.097   6.324   5.477 -0.8690 -2.0206 -1.7960
  175DOPC  C21121379   4.306   6.313   5.551 -0.0472  0.1342  0.6053
  175DOPC  H11R21380   4.310   6.416   5.592  0.3141 -0.1807  1.3926
  175DOPC  H11S21381   4.407   6.291   5.509  0.5694 -0.2375  2.1982
  175DOPC  C21221382   4.284   6.231   5.677 -0.1766 -0.0786 -0.4262
  175DOPC  H12R21383   4.380   6.224   5.732 -0.0900  0.6027 -0.4844
  175DOPC  H12S21384   4.253   6.125   5.660 -1.0118  0.2429 -0.9898
  175DOPC  C21321385   4.183   6.297   5.775 -0.0709  0.3684 -0.0807
  175DOPC  H13R21386   4.077   6.293   5.742  0.4325  0.9001 -1.8357
  175DOPC  H13S21387   4.219   6.401   5.791  0.3528 -0.1869  3.3850
  175DOPC  C21421388   4.206   6.227   5.907 -0.3270  0.0094  0.7879
  175DOPC  H14R21389   4.306   6.255   5.944  0.1329  1.5794 -1.4339
  175DOPC  H14S21390   4.206   6.119   5.878  1.7655  0.2656 -0.3509
  175DOPC  C21521391   4.099   6.265   6.012 -0.6363  0.3236 -0.1267
  175DOPC  H15R21392   3.996   6.273   5.972 -0.3916  2.0114 -0.5012
  175DOPC  H15S21393   4.124   6.367   6.048 -0.4818  0.5843 -0.9432
  175DOPC  C21621394   4.104   6.175   6.135  0.4404  0.8648  0.0128
  175DOPC  H16R21395   4.195   6.190   6.198  0.2068  2.4035  0.0397
  175DOPC  H16S21396   4.099   6.073   6.093  1.6421  1.0653 -0.6457
  175DOPC  C21721397   3.978   6.190   6.217  0.1343 -0.0363  0.0966
  175DOPC  H17R21398   3.895   6.138   6.165 -0.0211 -0.6386  0.9298
  175DOPC  H17S21399   3.962   6.299   6.232 -1.2690 -0.4313  1.8570
  175DOPC  C21821400   3.987   6.137   6.363  0.5489 -0.1417  0.0361
  175DOPC  H18R21401   4.007   6.028   6.365  0.1609 -0.2405  3.4703
  175DOPC  H18S21402   3.899   6.158   6.427  0.0033  0.6021 -0.9231
  175DOPC  H18T21403   4.069   6.183   6.421 -0.7619  1.1010  0.9869
  175DOPC   C3321404   4.325   5.786   4.869 -0.7789 -0.0797  0.0272
  175DOPC   H3X21405   4.305   5.684   4.831  2.6972 -0.7357 -0.4287
  175DOPC   H3Y21406   4.233   5.819   4.921 -0.1391 -1.4309  2.1515
  175DOPC   C3421407   4.441   5.776   4.973  0.4804 -0.5119  0.7499
  175DOPC   H4X21408   4.482   5.879   4.974 -0.8374  0.0407  0.8199
  175DOPC   H4Y21409   4.516   5.717   4.916  0.5943  1.4225 -1.2272
  175DOPC   C3521410   4.403   5.716   5.105 -0.2800 -0.0952 -0.0715
  175DOPC   H5X21411   4.366   5.611   5.102 -1.2337  0.2140 -3.2412
  175DOPC   H5Y21412   4.333   5.789   5.152  1.5078  1.7251 -0.1068
  175DOPC   C3621413   4.516   5.744   5.211  0.3459  0.2606 -0.1115
  175DOPC   H6X21414   4.605   5.692   5.172 -0.7518 -0.8445 -1.2340
  175DOPC   H6Y21415   4.534   5.854   5.207 -1.8227  0.6286 -1.6337
  175DOPC   C3721416   4.482   5.699   5.355  0.0709 -0.2697  0.4061
  175DOPC   H7X21417   4.432   5.601   5.343 -1.4692  0.4166  0.9377
  175DOPC   H7Y21418   4.576   5.689   5.413  0.9278  0.3943 -0.8050
  175DOPC   C3821419   4.380   5.793   5.428 -0.3392  0.6484  0.8727
  175DOPC   H8X21420   4.341   5.742   5.519  1.0574  0.3142  1.3125
  175DOPC   H8Y21421   4.300   5.808   5.353 -0.4071  0.2691  0.8656
  175DOPC   C3921422   4.442   5.925   5.462 -0.2751  0.1723 -0.2295
  175DOPC   H9X21423   4.428   6.001   5.383 -0.3390 -1.9417 -2.3586
  175DOPC  C31021424   4.485   5.965   5.580 -0.5270  0.5006  0.7314
  175DOPC  H10X21425   4.520   6.068   5.592  0.8455 -0.1803  3.2563
  175DOPC  C31121426   4.490   5.878   5.704 -0.1323 -0.8135 -0.5103
  175DOPC  H11X21427   4.493   5.771   5.676  1.1384 -0.2106 -2.9226
  175DOPC  H11Y21428   4.394   5.886   5.760 -0.5549 -1.7931 -1.0645
  175DOPC  C31221429   4.613   5.918   5.789  0.0282 -0.3790 -0.5486
  175DOPC  H12X21430   4.619   6.027   5.807  0.2383 -0.2911 -1.1187
  175DOPC  H12Y21431   4.702   5.872   5.742 -0.0813 -0.4717 -0.6648
  175DOPC  C31321432   4.613   5.846   5.926  0.3760 -0.3142  0.2022
  175DOPC  H13X21433   4.554   5.753   5.910 -0.3693  0.0146  0.9248
  175DOPC  H13Y21434   4.719   5.822   5.951  0.9704  1.3264 -0.5938
  175DOPC  C31421435   4.550   5.927   6.035  0.1561 -0.0579  0.6038
  175DOPC  H14X21436   4.606   6.022   6.038  2.0904 -1.0922 -0.7356
  175DOPC  H14Y21437   4.446   5.948   6.003  0.3464 -0.7321 -0.4957
  175DOPC  C31521438   4.545   5.868   6.174  0.7627 -0.2835 -0.7595
  175DOPC  H15X21439   4.495   5.770   6.158 -1.6284  0.7663 -0.1154
  175DOPC  H15Y21440   4.469   5.908   6.244  0.6088 -0.3341 -0.8973
  175DOPC  C31621441   4.681   5.851   6.242  0.2691 -0.1441 -0.0807
  175DOPC  H16X21442   4.760   5.817   6.172 -0.6182 -0.3405 -1.0071
  175DOPC  H16Y21443   4.721   5.951   6.269 -1.7567  1.2216 -1.7654
  175DOPC  C31721444   4.684   5.763   6.368  0.3484 -0.2530  0.2727
  175DOPC  H17X21445   4.594   5.798   6.423 -0.8736 -0.8119 -1.2718
  175DOPC  H17Y21446   4.670   5.655   6.344 -0.7343 -0.0843  0.0541
  175DOPC  C31821447   4.811   5.793   6.449  0.0361  0.0529  0.0502
  175DOPC  H18X21448   4.875   5.860   6.388 -1.6801  1.6173 -0.1579
  175DOPC  H18Y21449   4.776   5.856   6.534  1.2365  1.4661 -0.4575
  175DOPC  H18Z21450   4.865   5.709   6.496 -1.1930  0.1328  1.7022
  176DOPC     N21451   3.557   3.032   4.213 -0.3848 -0.3819 -0.1279
  176DOPC   C1221452   3.683   3.010   4.293 -0.3376 -0.7257 -0.0096
  176DOPC  H12A21453   3.712   2.906   4.290  3.2166  0.1363 -0.5474
  176DOPC  H12B21454   3.673   3.039   4.396 -0.1190  0.3864 -0.2870
  176DOPC   C1321455   3.443   2.975   4.285 -0.1082  0.1547 -0.3974
  176DOPC  H13A21456   3.356   2.982   4.221 -1.4733  1.9683  1.5238
  176DOPC  H13B21457   3.449   2.868   4.302 -3.1417 -0.3726 -1.8455
  176DOPC  H13C21458   3.423   3.035   4.372  2.2150  1.4422 -0.6768
  176DOPC   C1421459   3.558   2.971   4.077 -0.5188 -0.6576 -0.0988
  176DOPC  H14A21460   3.626   3.026   4.014  1.3204 -2.1585  0.4912
  176DOPC  H14B21461   3.573   2.864   4.079 -1.0223 -0.8914 -3.4251
  176DOPC  H14C21462   3.453   2.975   4.051 -0.6694 -2.6542  0.0453
  176DOPC   C1521463   3.532   3.181   4.192 -0.0236  0.3158 -0.2424
  176DOPC  H15A21464   3.449   3.197   4.124 -0.8744 -0.0885  0.6742
  176DOPC  H15B21465   3.615   3.234   4.149  0.5946 -0.4990 -0.0762
  176DOPC  H15C21466   3.515   3.239   4.282  0.8551 -0.6938  0.6035
  176DOPC   C1121467   3.806   3.084   4.236 -0.0332 -0.2395  0.6779
  176DOPC  H11A21468   3.778   3.191   4.227  0.6038 -0.1136  0.1413
  176DOPC  H11B21469   3.899   3.073   4.297  1.8856 -0.0447 -2.0286
  176DOPC     P21470   3.914   2.912   4.073  0.3228  0.4840 -0.2205
  176DOPC   O1321471   4.058   2.928   4.101  0.1204 -0.4589 -0.2822
  176DOPC   O1421472   3.886   2.869   3.928  0.5810  0.1518  0.1154
  176DOPC   O1221473   3.835   3.041   4.102  0.0775 -0.4426  0.1772
  176DOPC   O1121474   3.845   2.804   4.167 -0.4107  0.0177  0.5538
  176DOPC    C121475   3.933   2.734   4.260 -0.1583 -0.3858 -0.3997
  176DOPC    HA21476   3.946   2.789   4.356 -1.4324 -0.1422 -0.3539
  176DOPC    HB21477   4.029   2.708   4.212 -0.2542 -1.2174 -0.1486
  176DOPC    C221478   3.870   2.594   4.280  0.0549 -0.2536 -0.5123
  176DOPC    HS21479   3.835   2.544   4.187 -1.3331 -1.4567  0.6001
  176DOPC   O2121480   3.759   2.613   4.372 -0.0877  0.4696  0.3003
  176DOPC   C2121481   3.677   2.520   4.376  0.3131  0.9026  0.1983
  176DOPC   O2221482   3.664   2.417   4.309 -0.1251 -0.4400 -0.6728
  176DOPC   C2221483   3.595   2.539   4.497  0.0813  0.9112 -0.5953
  176DOPC   H2R21484   3.541   2.636   4.488  2.7919  2.4322 -1.5390
  176DOPC   H2S21485   3.665   2.551   4.582 -0.4060 -0.1405 -0.0228
  176DOPC    C321486   3.990   2.508   4.346  0.9525  0.2444 -0.1924
  176DOPC    HX21487   4.049   2.479   4.256  1.3008 -1.5416  0.5652
  176DOPC    HY21488   3.935   2.416   4.375  1.7115 -0.7175 -1.6720
  176DOPC   O3121489   4.063   2.566   4.452  0.1452  0.1119  0.5636
  176DOPC   C3121490   4.008   2.548   4.572 -0.0116 -0.3415 -0.4435
  176DOPC   O3221491   3.905   2.486   4.592 -0.3790 -0.3219 -0.2164
  176DOPC   C3221492   4.103   2.599   4.678  0.2743 -0.5603 -0.3732
  176DOPC   H2X21493   4.147   2.523   4.746 -0.6396 -1.2468 -0.5203
  176DOPC   H2Y21494   4.191   2.649   4.632  0.0810 -2.5957 -3.2243
  176DOPC   C2321495   3.491   2.424   4.521 -0.7353  0.4144  0.1275
  176DOPC   H3R21496   3.539   2.323   4.524 -0.0996  0.5859 -2.4063
  176DOPC   H3S21497   3.419   2.417   4.437 -2.5837 -2.7672  1.7414
  176DOPC   C2421498   3.402   2.440   4.645  0.5298  0.4728  0.1630
  176DOPC   H4R21499   3.321   2.364   4.647 -0.5567  1.5051 -1.9245
  176DOPC   H4S21500   3.341   2.533   4.642  0.7815  0.6138 -1.1760
  176DOPC   C2521501   3.474   2.447   4.781 -0.2477  0.3779  0.0271
  176DOPC   H5R21502   3.568   2.507   4.776 -0.4633  0.7568  0.4624
  176DOPC   H5S21503   3.499   2.344   4.813 -0.2734 -0.4380 -2.3632
  176DOPC   C2621504   3.395   2.524   4.888 -0.5442  0.7424  0.1422
  176DOPC   H6R21505   3.290   2.496   4.866 -0.9701  0.0392  2.6886
  176DOPC   H6S21506   3.399   2.629   4.854  0.4116  0.2282 -1.4280
  176DOPC   C2721507   3.421   2.489   5.033  0.3142 -0.5882 -0.2048
  176DOPC   H7R21508   3.432   2.379   5.045 -1.0575 -0.5969  1.4713
  176DOPC   H7S21509   3.330   2.519   5.090 -0.5988  0.4695 -2.1040
  176DOPC   C2821510   3.547   2.565   5.083 -0.5156  0.6526 -0.3984
  176DOPC   H8R21511   3.627   2.552   5.007 -0.0147  0.8845  0.0804
  176DOPC   H8S21512   3.583   2.514   5.175 -0.3406 -4.3152 -2.8640
  176DOPC   C2921513   3.521   2.710   5.101 -0.8780 -0.3223 -0.4009
  176DOPC   H9R21514   3.547   2.770   5.012  3.1689  2.0540  2.0630
  176DOPC  C21021515   3.490   2.774   5.217  1.2129  0.5103 -0.1220
  176DOPC  H10R21516   3.476   2.883   5.210 -2.2692  0.0708 -3.7234
  176DOPC  C21121517   3.445   2.706   5.347  0.2530 -0.3414  0.0686
  176DOPC  H11R21518   3.404   2.604   5.331  0.3447  0.0329 -3.0835
  176DOPC  H11S21519   3.350   2.754   5.380  0.7629 -0.4040  1.7005
  176DOPC  C21221520   3.549   2.706   5.461 -0.5103  0.5395 -0.7304
  176DOPC  H12R21521   3.586   2.810   5.477  0.8466 -0.0664  0.2358
  176DOPC  H12S21522   3.633   2.642   5.425 -1.0285  0.0130 -1.0118
  176DOPC  C21321523   3.494   2.642   5.588 -0.6693  0.1627 -0.0700
  176DOPC  H13R21524   3.462   2.538   5.565 -0.5329  0.4857 -1.8276
  176DOPC  H13S21525   3.407   2.699   5.627 -1.7353 -1.5508  0.1606
  176DOPC  C21421526   3.591   2.635   5.700 -0.4498 -0.4492  0.1425
  176DOPC  H14R21527   3.603   2.738   5.740 -0.1179  0.0584 -1.1822
  176DOPC  H14S21528   3.697   2.619   5.669  0.7407  0.5778  3.2644
  176DOPC  C21521529   3.537   2.557   5.818  0.1532  1.1301 -0.4312
  176DOPC  H15R21530   3.521   2.451   5.789  0.1591  0.1557  2.7094
  176DOPC  H15S21531   3.438   2.603   5.835 -1.2001 -1.6427 -0.2626
  176DOPC  C21621532   3.621   2.564   5.941  0.4022 -0.5827  0.3167
  176DOPC  H16R21533   3.644   2.671   5.964 -1.3212 -0.1379  0.0565
  176DOPC  H16S21534   3.714   2.508   5.916  1.8497  1.7077  0.2093
  176DOPC  C21721535   3.559   2.504   6.063  1.0289 -0.7711  0.1908
  176DOPC  H17R21536   3.541   2.398   6.037 -0.1751 -0.4041 -0.5442
  176DOPC  H17S21537   3.460   2.549   6.085  2.4636  2.3500  0.8132
  176DOPC  C21821538   3.656   2.527   6.181 -0.1714  0.5882 -0.5442
  176DOPC  H18R21539   3.697   2.630   6.186  0.0150  0.6099 -1.9743
  176DOPC  H18S21540   3.741   2.457   6.192 -1.9707 -1.5994  0.3093
  176DOPC  H18T21541   3.602   2.505   6.276  2.2239 -0.4199  0.6549
  176DOPC   C3321542   4.033   2.700   4.770  0.1418  0.4228 -0.6993
  176DOPC   H3X21543   3.928   2.726   4.745 -0.6659 -1.9625 -0.0446
  176DOPC   H3Y21544   4.096   2.791   4.767  0.3720  0.2552 -1.0708
  176DOPC   C3421545   4.022   2.647   4.911 -0.3397 -0.5347  0.1793
  176DOPC   H4X21546   4.112   2.589   4.942 -1.0746 -0.3060  2.9116
  176DOPC   H4Y21547   3.944   2.568   4.908 -0.8838  0.0173 -1.3632
  176DOPC   C3521548   3.975   2.754   5.008  0.7029 -0.2802 -0.4426
  176DOPC   H5X21549   3.883   2.803   4.971 -0.7087 -1.0265  1.9163
  176DOPC   H5Y21550   4.053   2.833   5.015 -0.2274  0.6499 -0.2961
  176DOPC   C3621551   3.948   2.703   5.150 -0.2428  0.6763  0.1164
  176DOPC   H6X21552   3.941   2.792   5.215  1.3177  1.6104 -0.9166
  176DOPC   H6Y21553   3.849   2.654   5.138  0.9863 -1.6326 -1.3939
  176DOPC   C3721554   4.038   2.591   5.212 -0.7979  1.1019 -0.3777
  176DOPC   H7X21555   3.989   2.540   5.298  2.0550 -4.2256 -1.4799
  176DOPC   H7Y21556   4.028   2.505   5.143 -0.9941  0.7872  0.0363
  176DOPC   C3821557   4.181   2.629   5.249  0.1837  0.0570 -1.0943
  176DOPC   H8X21558   4.235   2.669   5.160  0.4580 -0.2867 -1.0886
  176DOPC   H8Y21559   4.235   2.536   5.279 -1.3300 -0.2280  0.9298
  176DOPC   C3921560   4.177   2.729   5.362 -0.0499 -0.6274  0.0521
  176DOPC   H9X21561   4.183   2.832   5.327 -0.3812 -1.0739 -1.3780
  176DOPC  C31021562   4.153   2.701   5.492  0.7342 -0.0925  0.4044
  176DOPC  H10X21563   4.142   2.787   5.561  0.1214 -0.5458  0.8862
  176DOPC  C31121564   4.123   2.566   5.545  0.2795 -0.1038 -0.1693
  176DOPC  H11X21565   4.191   2.528   5.624  1.8569 -0.9081 -1.8325
  176DOPC  H11Y21566   4.125   2.488   5.465  1.6646 -0.6658  0.3834
  176DOPC  C31221567   3.981   2.570   5.604  0.0058 -0.1021 -0.5523
  176DOPC  H12X21568   3.939   2.467   5.607  0.6408 -0.3884 -1.3854
  176DOPC  H12Y21569   3.905   2.624   5.544 -0.1655  1.0187  0.6257
  176DOPC  C31321570   3.985   2.646   5.745  0.6384 -0.3313  0.4176
  176DOPC  H13X21571   4.037   2.743   5.756 -1.1415  0.5559  1.4649
  176DOPC  H13Y21572   3.878   2.671   5.761  0.4773 -1.2797  0.8871
  176DOPC  C31421573   4.023   2.550   5.851 -0.4863  0.0130 -0.5322
  176DOPC  H14X21574   3.961   2.458   5.845 -0.3655 -0.2891  1.8201
  176DOPC  H14Y21575   4.127   2.520   5.825 -1.2436 -0.4906 -3.3632
  176DOPC  C31521576   4.022   2.601   5.995 -0.2013 -0.5053  0.5477
  176DOPC  H15X21577   3.934   2.665   6.017 -0.4260 -0.0533 -1.4670
  176DOPC  H15Y21578   4.115   2.659   6.013  0.4948 -1.7956  1.2725
  176DOPC  C31621579   4.034   2.486   6.097 -0.1751 -0.4361 -0.0861
  176DOPC  H16X21580   3.944   2.422   6.088 -2.8939  2.9259  0.9640
  176DOPC  H16Y21581   4.128   2.430   6.076  1.5179  2.0145  0.4421
  176DOPC  C31721582   4.042   2.535   6.244 -0.6280 -0.7887  0.0644
  176DOPC  H17X21583   4.143   2.572   6.275 -0.4272 -2.9055  2.2435
  176DOPC  H17Y21584   3.983   2.629   6.250 -0.8828 -0.8899 -0.8350
  176DOPC  C31821585   4.005   2.429   6.346 -0.3526  0.6056 -0.1956
  176DOPC  H18X21586   4.086   2.356   6.367 -0.7306 -0.0477 -0.9396
  176DOPC  H18Y21587   3.968   2.475   6.440 -0.5782  0.6658 -0.3120
  176DOPC  H18Z21588   3.922   2.370   6.301  1.1758 -0.6357 -1.5258
  177DOPC     N21589   4.950   5.755   3.546 -0.0907  0.1772 -0.3592
  177DOPC   C1221590   5.006   5.737   3.689 -0.4859 -0.1099  0.3312
  177DOPC  H12A21591   5.060   5.828   3.710 -1.1790  0.9577 -2.2546
  177DOPC  H12B21592   5.080   5.658   3.686  0.3190  0.2628  4.4633
  177DOPC   C1321593   5.057   5.809   3.457  0.3709 -0.9021  0.2836
  177DOPC  H13A21594   5.092   5.905   3.490  0.1282 -1.5287  2.5054
  177DOPC  H13B21595   5.134   5.738   3.431  0.5078 -0.6248 -0.0676
  177DOPC  H13C21596   5.002   5.821   3.364  1.3181 -0.7548 -0.2708
  177DOPC   C1421597   4.846   5.857   3.559 -0.0773 -0.3070 -0.8027
  177DOPC  H14A21598   4.782   5.825   3.639  0.5563 -3.5534 -1.4590
  177DOPC  H14B21599   4.894   5.947   3.595  0.2570 -0.3414 -1.1442
  177DOPC  H14C21600   4.794   5.872   3.465 -0.5711 -0.6879 -0.5920
  177DOPC   C1521601   4.891   5.626   3.498  0.0719  0.6607 -0.2336
  177DOPC  H15A21602   4.817   5.590   3.567  0.6976 -1.8098 -0.7671
  177DOPC  H15B21603   4.965   5.548   3.506  0.1588  0.5612 -1.7692
  177DOPC  H15C21604   4.845   5.638   3.401  0.0785  1.1179 -0.1834
  177DOPC   C1121605   4.903   5.715   3.798 -0.0984  0.2534 -0.6415
  177DOPC  H11A21606   4.959   5.688   3.890  1.2865 -1.7836 -2.0002
  177DOPC  H11B21607   4.840   5.805   3.813 -1.2452 -0.2666 -2.1044
  177DOPC     P21608   4.871   5.461   3.794  0.3063  0.1232  0.1605
  177DOPC   O1321609   5.012   5.453   3.758 -0.2124 -0.4796  0.4791
  177DOPC   O1421610   4.787   5.368   3.714  0.7848  0.8714 -0.4955
  177DOPC   O1221611   4.819   5.605   3.770  0.5044 -0.3923 -0.0718
  177DOPC   O1121612   4.847   5.435   3.945 -0.8505  0.0573 -0.4719
  177DOPC    C121613   4.710   5.446   4.003  0.1600 -0.1636 -0.1220
  177DOPC    HA21614   4.641   5.384   3.943 -0.3888  1.8587 -1.6893
  177DOPC    HB21615   4.685   5.553   3.989  1.9158  0.6790  2.3560
  177DOPC    C221616   4.702   5.411   4.154 -0.3157 -0.3697 -0.2148
  177DOPC    HS21617   4.600   5.441   4.186 -0.5368 -0.2530 -1.0249
  177DOPC   O2121618   4.808   5.480   4.229 -0.5966 -0.1528  0.3598
  177DOPC   C2121619   4.777   5.604   4.249 -0.1363  0.7123 -0.8291
  177DOPC   O2221620   4.662   5.650   4.247 -0.5124  0.0724 -0.4685
  177DOPC   C2221621   4.900   5.685   4.283 -0.0972  0.1458 -0.0322
  177DOPC   H2R21622   4.849   5.775   4.323 -0.5616 -0.4773  0.8150
  177DOPC   H2S21623   4.948   5.704   4.185 -1.6416  0.6762 -0.7177
  177DOPC    C321624   4.721   5.258   4.184 -0.7774  0.8355  0.2339
  177DOPC    HX21625   4.826   5.236   4.155 -0.7873 -2.4096  2.2708
  177DOPC    HY21626   4.658   5.210   4.106  0.3604 -1.3467  0.5911
  177DOPC   O3121627   4.687   5.219   4.319  0.2222 -0.1780 -0.4925
  177DOPC   C3121628   4.787   5.165   4.394  0.2494 -0.4360 -0.6520
  177DOPC   O3221629   4.905   5.177   4.366  0.4825  0.2196  0.0037
  177DOPC   C3221630   4.750   5.091   4.520 -0.4139 -0.2437  0.9478
  177DOPC   H2X21631   4.641   5.107   4.539 -0.5648 -0.7784  0.5426
  177DOPC   H2Y21632   4.741   4.982   4.499 -1.3249 -0.0470  0.2494
  177DOPC   C2321633   4.999   5.614   4.381 -0.4624 -0.2004 -0.4060
  177DOPC   H3R21634   5.086   5.681   4.393  0.3011 -1.1518 -0.4596
  177DOPC   H3S21635   5.037   5.519   4.337  0.2254  0.2240 -0.7422
  177DOPC   C2421636   4.946   5.575   4.518  0.6576  0.8746 -0.1188
  177DOPC   H4R21637   4.859   5.506   4.506  1.1476  0.2487 -0.1468
  177DOPC   H4S21638   4.911   5.670   4.563 -0.1772  0.9296 -0.8364
  177DOPC   C2521639   5.040   5.513   4.620 -0.7760  0.1574 -0.6522
  177DOPC   H5R21640   5.134   5.573   4.630 -0.6231  0.3474 -2.7594
  177DOPC   H5S21641   5.071   5.415   4.578  1.1731  1.2128 -1.8512
  177DOPC   C2621642   4.991   5.513   4.768 -0.5622  0.4275 -0.2531
  177DOPC   H6R21643   4.882   5.495   4.772 -0.7356  0.9483 -1.9375
  177DOPC   H6S21644   5.010   5.615   4.807 -0.5663  0.4969 -0.4302
  177DOPC   C2721645   5.049   5.402   4.856  0.5906  1.1904 -1.1895
  177DOPC   H7R21646   5.160   5.411   4.849  0.8959 -0.1358  1.0632
  177DOPC   H7S21647   5.021   5.302   4.817 -0.1506  1.5543 -1.6124
  177DOPC   C2821648   5.018   5.424   5.003 -0.1212 -0.3589 -0.3173
  177DOPC   H8R21649   4.910   5.439   5.024  0.3699 -0.7352  3.2678
  177DOPC   H8S21650   5.065   5.521   5.031  0.1634 -0.7182  0.5162
  177DOPC   C2921651   5.080   5.314   5.091 -0.2269 -0.9154 -0.1083
  177DOPC   H9R21652   5.063   5.215   5.047  0.3685  0.3332 -3.5233
  177DOPC  C21021653   5.164   5.335   5.195 -0.9678  0.5661 -0.0023
  177DOPC  H10R21654   5.192   5.247   5.254 -3.1807 -1.1071 -1.2637
  177DOPC  C21121655   5.176   5.475   5.253  0.0773  0.5167 -0.4504
  177DOPC  H11R21656   5.078   5.511   5.291  0.4334  1.0792 -0.0534
  177DOPC  H11S21657   5.199   5.553   5.177 -2.1400  1.0713 -0.6132
  177DOPC  C21221658   5.273   5.494   5.375  0.0867 -0.0645  0.4302
  177DOPC  H12R21659   5.272   5.603   5.396 -0.0575 -0.2956  1.6860
  177DOPC  H12S21660   5.377   5.457   5.357  0.6761  1.9236 -0.4994
  177DOPC  C21321661   5.213   5.441   5.506 -0.3843  0.9804 -0.3724
  177DOPC  H13R21662   5.217   5.330   5.502  0.2061  1.0303 -1.8293
  177DOPC  H13S21663   5.106   5.468   5.515 -0.7949  0.4783 -3.0205
  177DOPC  C21421664   5.300   5.491   5.621  0.8792  0.2987  0.8068
  177DOPC  H14R21665   5.279   5.600   5.618  0.1469  0.1501  0.2236
  177DOPC  H14S21666   5.410   5.482   5.608  0.8585 -1.6391  1.6193
  177DOPC  C21521667   5.262   5.423   5.753 -0.2615 -0.0064  0.0047
  177DOPC  H15R21668   5.277   5.315   5.733 -0.1881  0.2873 -1.6535
  177DOPC  H15S21669   5.154   5.442   5.771 -0.2786  0.6510 -0.7033
  177DOPC  C21621670   5.340   5.463   5.881  0.0429  0.2181  0.1068
  177DOPC  H16R21671   5.450   5.460   5.865 -0.0369 -2.0234 -0.3569
  177DOPC  H16S21672   5.322   5.393   5.965 -1.0802 -1.1217 -1.1996
  177DOPC  C21721673   5.307   5.607   5.929 -0.2139  1.0255  0.2765
  177DOPC  H17R21674   5.200   5.614   5.960 -0.5160 -0.4948 -0.3006
  177DOPC  H17S21675   5.323   5.659   5.832 -1.1276 -0.6297 -0.8220
  177DOPC  C21821676   5.391   5.654   6.039  0.2152  0.2324  0.2083
  177DOPC  H18R21677   5.393   5.586   6.126  0.6470 -0.2144 -0.1465
  177DOPC  H18S21678   5.359   5.750   6.086  2.2902 -1.4128  5.7707
  177DOPC  H18T21679   5.496   5.677   6.008  1.1026 -3.4975 -0.0574
  177DOPC   C3321680   4.848   5.105   4.644  0.3965 -0.4615 -0.3243
  177DOPC   H3X21681   4.819   5.205   4.684 -1.5800 -0.1504 -2.3074
  177DOPC   H3Y21682   4.950   5.104   4.599 -0.5613 -1.8305 -2.6613
  177DOPC   C3421683   4.834   4.995   4.752 -0.1157 -0.3233  0.1071
  177DOPC   H4X21684   4.833   4.895   4.703 -0.7913  0.4072 -1.4389
  177DOPC   H4Y21685   4.739   5.012   4.808  1.0588 -1.6064  2.6849
  177DOPC   C3521686   4.946   4.997   4.857 -0.2323 -0.3577  0.4422
  177DOPC   H5X21687   4.966   5.096   4.902 -0.9211  1.0676 -2.1675
  177DOPC   H5Y21688   5.040   4.974   4.801  0.2522  2.5754 -0.0951
  177DOPC   C3621689   4.919   4.906   4.981  0.0035  0.6973 -0.7172
  177DOPC   H6X21690   4.839   4.954   5.041 -0.2745 -0.9953  0.3159
  177DOPC   H6Y21691   4.893   4.804   4.946  4.0097 -0.1743 -1.7128
  177DOPC   C3721692   5.045   4.908   5.067 -0.6213 -0.1115 -0.0166
  177DOPC   H7X21693   5.124   4.865   5.001 -1.0521 -1.5955  0.4074
  177DOPC   H7Y21694   5.071   5.015   5.084 -0.6815 -0.2042  0.6901
  177DOPC   C3821695   5.042   4.836   5.204 -0.2648  0.2803 -0.7886
  177DOPC   H8X21696   5.018   4.728   5.192  0.1530  0.3623 -2.6649
  177DOPC   H8Y21697   4.960   4.877   5.266  0.9286  1.3767  0.1101
  177DOPC   C3921698   5.180   4.839   5.267 -0.0969  0.3654  0.2632
  177DOPC   H9X21699   5.251   4.772   5.216 -1.5635 -0.1969 -1.1165
  177DOPC  C31021700   5.225   4.928   5.352 -0.3681  0.2915 -0.0716
  177DOPC  H10X21701   5.332   4.928   5.378 -0.5968  0.6775  0.9206
  177DOPC  C31121702   5.143   5.029   5.417 -0.4271 -0.8718 -0.3373
  177DOPC  H11X21703   5.075   5.067   5.337  0.0473  0.0718 -0.2953
  177DOPC  H11Y21704   5.200   5.115   5.458 -0.6576 -2.1099  2.8508
  177DOPC  C31221705   5.066   4.990   5.546  0.2711  0.6146  0.0910
  177DOPC  H12X21706   4.993   4.912   5.516  2.4329 -1.9195  1.0322
  177DOPC  H12Y21707   5.026   5.081   5.596  1.2017 -0.0700  2.1944
  177DOPC  C31321708   5.158   4.926   5.650  0.1179 -0.1951  0.1641
  177DOPC  H13X21709   5.222   4.846   5.606  1.2794  0.4225  0.6851
  177DOPC  H13Y21710   5.231   4.997   5.694  0.6649  0.1465 -1.2588
  177DOPC  C31421711   5.075   4.859   5.761 -0.3490 -0.2587 -0.3686
  177DOPC  H14X21712   4.986   4.806   5.723 -0.7933 -0.4091  0.8552
  177DOPC  H14Y21713   5.144   4.787   5.809  1.2402  0.8794 -0.8627
  177DOPC  C31521714   5.028   4.964   5.865  0.4865  0.7879 -0.0928
  177DOPC  H15X21715   4.968   5.037   5.807 -1.7223 -0.7794  0.0923
  177DOPC  H15Y21716   5.115   5.015   5.910  1.1459  0.2615 -0.7377
  177DOPC  C31621717   4.922   4.907   5.960  0.2934  0.0434 -0.0615
  177DOPC  H16X21718   4.860   4.990   6.000  0.3222  0.1847 -0.3114
  177DOPC  H16Y21719   4.856   4.845   5.897  0.4330  0.2728 -0.4364
  177DOPC  C31721720   4.961   4.805   6.070  0.0232 -0.1720 -0.2274
  177DOPC  H17X21721   4.868   4.771   6.120  0.8861 -1.1343  0.7848
  177DOPC  H17Y21722   5.010   4.716   6.024  1.2176  1.1099 -1.5834
  177DOPC  C31821723   5.063   4.868   6.168 -0.4732  0.4885  0.0572
  177DOPC  H18X21724   5.065   4.809   6.262 -0.0132 -1.4502 -1.0961
  177DOPC  H18Y21725   5.168   4.863   6.130 -0.1767 -2.3784  1.0378
  177DOPC  H18Z21726   5.044   4.973   6.197 -1.5890 -0.1777  1.8755
  178DOPC     N21727   3.911   5.491   4.337 -0.6075 -0.5651 -0.0143
  178DOPC   C1221728   3.759   5.476   4.309  0.5880 -0.0086 -0.4190
  178DOPC  H12A21729   3.710   5.519   4.395  1.6667  1.0536 -0.3014
  178DOPC  H12B21730   3.739   5.370   4.313 -2.3947  0.4598 -0.3260
  178DOPC   C1321731   3.943   5.404   4.458 -0.3484 -0.0857 -0.1208
  178DOPC  H13A21732   4.046   5.400   4.489 -0.5970 -1.5650  0.5468
  178DOPC  H13B21733   3.881   5.433   4.541 -0.7058  1.3215 -0.8305
  178DOPC  H13C21734   3.922   5.301   4.435 -0.6146 -0.1136  0.2317
  178DOPC   C1421735   3.943   5.631   4.378  0.7308  0.0327 -0.3002
  178DOPC  H14A21736   4.034   5.637   4.436  0.7451 -1.2697 -0.1528
  178DOPC  H14B21737   3.943   5.701   4.295  0.3562 -0.3611 -0.6393
  178DOPC  H14C21738   3.859   5.670   4.431  1.2085 -0.0406  0.5249
  178DOPC   C1521739   3.996   5.441   4.221 -0.2245 -0.2149 -0.0749
  178DOPC  H15A21740   3.951   5.350   4.184 -2.1133  1.1676 -1.3694
  178DOPC  H15B21741   4.100   5.433   4.248  0.4594  0.5625 -2.2476
  178DOPC  H15C21742   3.984   5.513   4.141 -2.2085 -0.8652 -0.4206
  178DOPC   C1121743   3.710   5.541   4.183  0.2687  0.5445 -0.1436
  178DOPC  H11A21744   3.770   5.504   4.097  0.5877  0.6496  0.0316
  178DOPC  H11B21745   3.607   5.522   4.146  0.4059  0.9368 -0.7343
  178DOPC     P21746   3.623   5.773   4.281 -0.3733  0.3868 -0.5984
  178DOPC   O1321747   3.490   5.716   4.273  0.4253 -0.2999  0.3257
  178DOPC   O1421748   3.635   5.912   4.228 -0.0031  0.1569 -0.3247
  178DOPC   O1221749   3.727   5.683   4.201 -0.3011  0.1880 -0.6847
  178DOPC   O1121750   3.678   5.764   4.428 -0.0966 -0.1063  0.3658
  178DOPC    C121751   3.625   5.859   4.531 -0.4161 -0.0752  1.0569
  178DOPC    HA21752   3.519   5.876   4.504  0.6949  1.9660 -2.7712
  178DOPC    HB21753   3.677   5.957   4.528 -0.2739 -0.1726 -0.4402
  178DOPC    C221754   3.648   5.808   4.667  0.1504 -0.4393 -0.6383
  178DOPC    HS21755   3.564   5.849   4.728  0.3465 -1.4128  0.3152
  178DOPC   O2121756   3.776   5.845   4.720 -0.2281  0.5895  0.4908
  178DOPC   C2121757   3.777   5.967   4.769 -0.2710 -0.5054 -0.1314
  178DOPC   O2221758   3.679   6.041   4.775 -0.4076  0.5533 -0.3490
  178DOPC   C2221759   3.921   5.998   4.794  0.1605  0.7521  0.8106
  178DOPC   H2R21760   3.923   6.108   4.807 -0.6841  0.5609  3.1900
  178DOPC   H2S21761   3.985   5.970   4.708  0.2103  0.5226  0.9204
  178DOPC    C321762   3.640   5.652   4.667  0.5806 -0.2625  0.1904
  178DOPC    HX21763   3.718   5.614   4.598 -1.3101 -1.2110 -1.5564
  178DOPC    HY21764   3.544   5.626   4.616 -0.0850  0.8788  0.8043
  178DOPC   O3121765   3.641   5.597   4.795 -0.0514  0.3963  0.0789
  178DOPC   C3121766   3.754   5.531   4.837  0.0947  0.0175  0.7699
  178DOPC   O3221767   3.845   5.504   4.764  0.2304 -0.3119  0.7088
  178DOPC   C3221768   3.750   5.493   4.982  0.1631  0.8246 -0.6295
  178DOPC   H2X21769   3.672   5.416   5.002  0.7072 -0.1994 -2.2169
  178DOPC   H2Y21770   3.850   5.448   5.001  0.5556  2.7379  2.3507
  178DOPC   C2321771   3.979   5.931   4.920 -0.6260 -0.2835  0.0831
  178DOPC   H3R21772   4.081   5.975   4.916 -0.4197 -0.8080 -0.8521
  178DOPC   H3S21773   3.988   5.820   4.912 -2.7639 -0.6568  1.8586
  178DOPC   C2421774   3.924   5.977   5.050  0.0020 -0.2504 -0.5366
  178DOPC   H4R21775   3.823   5.932   5.061 -0.1078  0.2332  0.4989
  178DOPC   H4S21776   3.899   6.085   5.050  1.6559  0.1647 -1.5698
  178DOPC   C2521777   4.002   5.928   5.175 -0.1679  0.2831  0.0894
  178DOPC   H5R21778   4.110   5.954   5.167  0.2183 -0.9821  0.9407
  178DOPC   H5S21779   3.994   5.818   5.173 -1.8652  0.3671  0.4941
  178DOPC   C2621780   3.950   5.972   5.310  0.7865  0.8074  0.0806
  178DOPC   H6R21781   3.841   5.950   5.316  0.9234 -0.1260 -0.5363
  178DOPC   H6S21782   3.967   6.080   5.327 -0.1339  1.3243 -2.0182
  178DOPC   C2721783   4.006   5.891   5.432 -0.1407  0.2094  0.0997
  178DOPC   H7R21784   4.106   5.931   5.457 -0.5246  1.3934 -0.1994
  178DOPC   H7S21785   4.005   5.783   5.405 -1.0114  0.1619  0.2841
  178DOPC   C2821786   3.916   5.902   5.552  0.2223  0.3669 -0.2972
  178DOPC   H8R21787   3.844   5.817   5.554 -0.4310  0.8948 -0.9973
  178DOPC   H8S21788   3.862   5.998   5.543  0.8474  0.9056  1.3156
  178DOPC   C2921789   3.987   5.927   5.686  0.1709  0.1566 -0.1260
  178DOPC   H9R21790   4.069   5.999   5.674 -0.1643  0.6480  0.4546
  178DOPC  C21021791   3.965   5.880   5.810  0.4155 -0.8068  0.1049
  178DOPC  H10R21792   4.012   5.920   5.901 -1.5269 -1.0341  1.2453
  178DOPC  C21121793   3.849   5.784   5.835  0.0240 -0.5031 -0.2318
  178DOPC  H11R21794   3.885   5.704   5.903 -1.0794  0.3269  1.4023
  178DOPC  H11S21795   3.818   5.732   5.742  0.5640 -1.9198  0.3593
  178DOPC  C21221796   3.728   5.860   5.901  0.9095  0.2807  0.3364
  178DOPC  H12R21797   3.638   5.794   5.895 -0.7981  2.3792  1.4368
  178DOPC  H12S21798   3.696   5.954   5.851 -1.7882  0.6859  2.6015
  178DOPC  C21321799   3.752   5.887   6.043  0.6709 -0.4968 -0.1674
  178DOPC  H13R21800   3.826   5.969   6.059 -2.1609  1.9613  1.4879
  178DOPC  H13S21801   3.775   5.782   6.070 -0.0901 -1.1043 -1.7210
  178DOPC  C21421802   3.623   5.917   6.116 -0.5146 -0.3522 -0.3393
  178DOPC  H14R21803   3.559   5.825   6.117 -0.1710 -0.6379 -1.9498
  178DOPC  H14S21804   3.572   5.999   6.062 -0.5069  0.3261  0.6472
  178DOPC  C21521805   3.659   5.958   6.263  0.7431  0.0909 -0.5535
  178DOPC  H15R21806   3.733   6.040   6.274 -0.7664  1.3493  0.7791
  178DOPC  H15S21807   3.700   5.859   6.295  0.2151 -0.6912 -2.1924
  178DOPC  C21621808   3.538   5.991   6.343 -0.2147 -0.5358 -0.4960
  178DOPC  H16R21809   3.465   5.909   6.337 -0.9989  0.0987  0.1360
  178DOPC  H16S21810   3.490   6.082   6.301  3.1868  1.5985 -0.1769
  178DOPC  C21721811   3.563   6.026   6.489  0.5418 -1.0482 -0.1632
  178DOPC  H17R21812   3.644   6.101   6.500  0.3412 -1.0803  1.8712
  178DOPC  H17S21813   3.603   5.937   6.542 -1.0647 -1.5257  0.3003
  178DOPC  C21821814   3.441   6.088   6.560  0.8138 -0.0859 -0.2865
  178DOPC  H18R21815   3.357   6.016   6.563 -0.2878  1.1611 -0.4103
  178DOPC  H18S21816   3.409   6.183   6.513 -2.4837  0.1283  2.0381
  178DOPC  H18T21817   3.463   6.122   6.664 -1.2220  2.7937 -0.6857
  178DOPC   C3321818   3.722   5.613   5.081 -0.2879 -0.1140  0.3616
  178DOPC   H3X21819   3.628   5.655   5.038  0.1502  1.5509  0.9762
  178DOPC   H3Y21820   3.799   5.693   5.079 -0.4224  0.0308  0.9833
  178DOPC   C3421821   3.688   5.564   5.225  0.2272  0.0875 -0.4533
  178DOPC   H4X21822   3.758   5.490   5.271 -0.7796  0.8860  2.5775
  178DOPC   H4Y21823   3.599   5.499   5.209 -0.1971  0.7118 -0.6315
  178DOPC   C3521824   3.667   5.677   5.326 -0.3083  0.1344  0.7334
  178DOPC   H5X21825   3.636   5.771   5.277  0.0999  0.5413  1.2555
  178DOPC   H5Y21826   3.763   5.693   5.379 -0.0081 -3.5258  1.6084
  178DOPC   C3621827   3.575   5.645   5.446  0.2540 -0.3181 -0.6972
  178DOPC   H6X21828   3.567   5.743   5.496  2.5633  0.7987 -2.3432
  178DOPC   H6Y21829   3.477   5.610   5.408 -0.3471 -1.4702  1.6661
  178DOPC   C3721830   3.622   5.532   5.542 -0.3620  0.2024  0.8019
  178DOPC   H7X21831   3.659   5.444   5.485  0.5992 -0.0992  1.8501
  178DOPC   H7Y21832   3.720   5.568   5.579  0.8708 -1.0608 -1.0719
  178DOPC   C3821833   3.522   5.498   5.649 -0.5076 -0.1810 -0.0204
  178DOPC   H8X21834   3.431   5.454   5.603  0.3213 -1.4590 -0.5083
  178DOPC   H8Y21835   3.501   5.593   5.702  0.3300 -1.3117  2.5191
  178DOPC   C3921836   3.577   5.406   5.756 -1.0654  0.2625 -0.8067
  178DOPC   H9X21837   3.631   5.323   5.708 -0.0929 -0.6420  1.6849
  178DOPC  C31021838   3.564   5.409   5.897 -0.3840  0.5031  0.7439
  178DOPC  H10X21839   3.609   5.324   5.951 -0.1902 -0.4894 -0.9233
  178DOPC  C31121840   3.485   5.508   5.985  0.4301 -0.7501 -0.6295
  178DOPC  H11X21841   3.393   5.456   6.020  0.3526  1.9699  4.0328
  178DOPC  H11Y21842   3.449   5.597   5.929 -0.5226 -1.0078 -0.4544
  178DOPC  C31221843   3.557   5.528   6.124 -0.2027 -0.1776  0.3702
  178DOPC  H12X21844   3.643   5.596   6.108  0.7897 -1.2068  1.1737
  178DOPC  H12Y21845   3.601   5.433   6.161  1.3160 -0.0728 -1.0290
  178DOPC  C31321846   3.468   5.589   6.240  0.3692 -0.5381  0.7947
  178DOPC  H13X21847   3.538   5.647   6.304  0.3224 -0.3000  0.6286
  178DOPC  H13Y21848   3.401   5.665   6.197  0.5764 -0.8827 -0.1583
  178DOPC  C31421849   3.416   5.491   6.341 -0.0735  0.4419 -0.5438
  178DOPC  H14X21850   3.319   5.443   6.316  0.3863 -1.4798  1.1054
  178DOPC  H14Y21851   3.499   5.422   6.364 -1.1141 -0.7537 -0.2959
  178DOPC  C31521852   3.385   5.565   6.475  0.4946 -0.2154 -0.5045
  178DOPC  H15X21853   3.322   5.515   6.552  0.3129  1.9405  0.8181
  178DOPC  H15Y21854   3.329   5.657   6.449 -0.4623 -0.3634  0.8831
  178DOPC  C31621855   3.511   5.590   6.562  0.1037  0.6286 -0.0288
  178DOPC  H16X21856   3.563   5.500   6.602 -0.1504  0.3534 -0.3161
  178DOPC  H16Y21857   3.593   5.645   6.511  0.9197 -0.8311 -0.3477
  178DOPC  C31721858   3.478   5.666   6.694  0.3805  0.4721  0.6894
  178DOPC  H17X21859   3.415   5.754   6.670 -0.9805 -0.9635 -1.3308
  178DOPC  H17Y21860   3.403   5.604   6.748  0.7053 -0.8285 -0.2995
  178DOPC  C31821861   3.599   5.694   6.784 -0.0627  0.3012  0.2879
  178DOPC  H18X21862   3.567   5.748   6.875 -1.5746  0.7510 -0.4759
  178DOPC  H18Y21863   3.661   5.607   6.816  0.9880  0.9454  0.0535
  178DOPC  H18Z21864   3.666   5.767   6.733 -0.4370  1.4181  1.3610
  179DOPC     N21865   6.204   5.961   3.295  0.3703  0.7557  0.1424
  179DOPC   C1221866   6.213   5.896   3.430  0.4593 -0.2019  0.4471
  179DOPC  H12A21867   6.263   5.800   3.420  1.4520  0.4782 -1.7405
  179DOPC  H12B21868   6.116   5.860   3.460  0.0866  0.0796 -0.3835
  179DOPC   C1321869   6.151   6.101   3.306  0.0874  0.4700 -0.1270
  179DOPC  H13A21870   6.150   6.146   3.207 -0.9692 -0.0547 -0.3669
  179DOPC  H13B21871   6.052   6.105   3.348 -0.3701 -2.7139 -0.6400
  179DOPC  H13C21872   6.217   6.144   3.379  1.2620 -0.6264 -0.5092
  179DOPC   C1421873   6.108   5.879   3.206 -0.7526 -0.1700  0.2494
  179DOPC  H14A21874   6.008   5.873   3.245 -1.4759 -0.5827 -1.5393
  179DOPC  H14B21875   6.099   5.929   3.110 -0.9754  1.3598  1.0402
  179DOPC  H14C21876   6.147   5.780   3.187 -1.3503 -0.0640 -1.7823
  179DOPC   C1521877   6.334   5.964   3.219 -0.1634  0.2909 -1.1924
  179DOPC  H15A21878   6.314   6.010   3.123  2.7695  1.0178 -1.5439
  179DOPC  H15B21879   6.365   5.862   3.202 -1.3452 -0.2148 -0.4666
  179DOPC  H15C21880   6.409   6.023   3.268 -1.5615  1.8189 -0.7969
  179DOPC   C1121881   6.278   5.977   3.545 -0.1812 -0.1897  0.0717
  179DOPC  H11A21882   6.292   5.909   3.631 -0.8133 -1.7401 -1.0022
  179DOPC  H11B21883   6.376   6.014   3.508  0.3488 -2.2343 -0.7235
  179DOPC     P21884   6.065   6.076   3.669  0.0097 -0.1497  0.2069
  179DOPC   O1321885   6.009   5.948   3.635  0.9364 -0.2822 -0.3310
  179DOPC   O1421886   5.985   6.201   3.644 -0.5044  0.3593  0.4305
  179DOPC   O1221887   6.204   6.094   3.592  0.7538  0.4507 -0.6508
  179DOPC   O1121888   6.116   6.070   3.826  0.0596  0.4528  0.1495
  179DOPC    C121889   6.235   6.148   3.849 -0.0080 -0.0805  0.1259
  179DOPC    HA21890   6.215   6.246   3.801 -1.0502 -1.1185 -1.6353
  179DOPC    HB21891   6.325   6.096   3.811  1.1136  0.0879  2.3346
  179DOPC    C221892   6.264   6.160   3.998 -0.0769  0.4592 -0.3036
  179DOPC    HS21893   6.170   6.188   4.050 -1.5972 -1.9900 -1.5540
  179DOPC   O2121894   6.379   6.244   4.023  0.3255  0.6845 -0.4391
  179DOPC   C2121895   6.361   6.373   4.038 -0.0664  0.2666  0.4066
  179DOPC   O2221896   6.250   6.429   4.032  0.5585 -0.3090  0.1361
  179DOPC   C2221897   6.489   6.442   4.077  0.5042  0.4035  1.0299
  179DOPC   H2R21898   6.545   6.474   3.987 -0.6161  0.0560  0.1769
  179DOPC   H2S21899   6.554   6.372   4.133  2.3561  2.0187  0.9938
  179DOPC    C321900   6.294   6.015   4.060 -0.2560 -0.4763 -0.6289
  179DOPC    HX21901   6.395   5.985   4.023 -0.1110 -0.3728 -0.3236
  179DOPC    HY21902   6.220   5.946   4.014  0.5923 -1.4131 -0.6157
  179DOPC   O3121903   6.291   6.031   4.206  0.3065  1.0293 -0.4404
  179DOPC   C3121904   6.180   5.983   4.262  0.2320  0.1016  0.0487
  179DOPC   O3221905   6.080   5.934   4.207  0.4185 -0.3177 -0.3051
  179DOPC   C3221906   6.198   5.995   4.414  1.0732 -0.1035 -0.0646
  179DOPC   H2X21907   6.292   6.048   4.439  1.0362 -0.4367  0.8310
  179DOPC   H2Y21908   6.116   6.052   4.463  0.9376 -0.2223 -0.1523
  179DOPC   C2321909   6.465   6.565   4.174 -0.1890 -0.2384 -0.7048
  179DOPC   H3R21910   6.411   6.539   4.267  2.3679 -2.1513  0.3432
  179DOPC   H3S21911   6.401   6.637   4.117  0.0664  2.4882  2.1549
  179DOPC   C2421912   6.598   6.639   4.206  0.0477 -0.1010  0.0907
  179DOPC   H4R21913   6.644   6.687   4.116  1.1635 -0.2548  0.5546
  179DOPC   H4S21914   6.667   6.565   4.252 -0.7545 -0.0002  1.4970
  179DOPC   C2521915   6.578   6.744   4.323 -0.5271  0.3722 -0.5882
  179DOPC   H5R21916   6.493   6.705   4.383 -1.5994  2.4149 -0.7148
  179DOPC   H5S21917   6.542   6.842   4.287 -0.6844  1.2944  1.9004
  179DOPC   C2621918   6.712   6.781   4.394 -0.1255  0.5015 -0.4466
  179DOPC   H6R21919   6.760   6.687   4.430 -0.7602  0.7473  1.1529
  179DOPC   H6S21920   6.681   6.839   4.484  1.1847 -0.2515  0.5284
  179DOPC   C2721921   6.810   6.861   4.310  0.0036 -0.6223  0.0282
  179DOPC   H7R21922   6.753   6.953   4.284  1.8891  0.2754 -1.1827
  179DOPC   H7S21923   6.839   6.826   4.208 -0.2612 -0.4019 -0.1248
  179DOPC   C2821924   6.938   6.906   4.386  0.4827 -0.3833  0.8185
  179DOPC   H8R21925   6.907   6.976   4.466  0.9190  0.0330  0.6250
  179DOPC   H8S21926   7.011   6.958   4.320 -0.9886 -0.7492 -1.1741
  179DOPC   C2921927   7.009   6.789   4.444  0.6745 -0.1537 -0.2173
  179DOPC   H9R21928   6.971   6.692   4.408 -2.3272  0.5386  0.7830
  179DOPC  C21021929   7.105   6.797   4.538  0.3675  0.7818 -0.6497
  179DOPC  H10R21930   7.155   6.707   4.575 -0.7685  0.9391  1.4428
  179DOPC  C21121931   7.145   6.926   4.607  1.0046  1.0805  0.1310
  179DOPC  H11R21932   7.104   7.019   4.562 -0.2691 -0.4356 -2.0165
  179DOPC  H11S21933   7.255   6.930   4.617  0.9063  1.1235  1.3769
  179DOPC  C21221934   7.091   6.921   4.748 -0.1912  0.2948 -0.5033
  179DOPC  H12R21935   7.128   7.013   4.798 -2.0366 -0.1438  1.8516
  179DOPC  H12S21936   7.108   6.826   4.803  1.0590 -1.4227 -3.6069
  179DOPC  C21321937   6.934   6.952   4.746 -0.3845  0.1980  0.3987
  179DOPC  H13R21938   6.886   6.860   4.706  1.0025 -0.3967  0.0347
  179DOPC  H13S21939   6.916   7.033   4.673  0.4722 -0.4905 -0.6044
  179DOPC  C21421940   6.868   6.983   4.881  0.7334  0.6509  0.2857
  179DOPC  H14R21941   6.915   6.923   4.962  0.9905 -0.1566 -0.4441
  179DOPC  H14S21942   6.762   6.951   4.874  1.3718 -1.7379  0.8089
  179DOPC  C21521943   6.865   7.131   4.917 -0.4452 -0.7080 -0.2712
  179DOPC  H15R21944   6.822   7.194   4.836 -1.3653  0.1883  0.8891
  179DOPC  H15S21945   6.971   7.160   4.928 -0.9130  0.6182  0.9454
  179DOPC  C21621946   6.789   7.163   5.041 -0.0011 -0.4977 -0.3184
  179DOPC  H16R21947   6.697   7.100   5.035  0.2639 -1.2413  2.3903
  179DOPC  H16S21948   6.760   7.271   5.043 -1.1696 -0.7624 -1.4673
  179DOPC  C21721949   6.867   7.122   5.159 -0.3528  0.7190 -0.4620
  179DOPC  H17R21950   6.959   7.184   5.164 -0.4110  0.7843 -0.2057
  179DOPC  H17S21951   6.885   7.012   5.160 -1.5176  0.5017  0.9289
  179DOPC  C21821952   6.797   7.135   5.295 -0.6611 -0.1605 -0.3134
  179DOPC  H18R21953   6.770   7.241   5.316  0.6341 -0.0927  1.1979
  179DOPC  H18S21954   6.868   7.087   5.366  1.7570 -0.0586 -2.4858
  179DOPC  H18T21955   6.708   7.070   5.300 -0.8097  0.0555 -0.1634
  179DOPC   C3321956   6.216   5.853   4.470 -0.0665  0.3961 -0.2387
  179DOPC   H3X21957   6.281   5.804   4.394  1.0150 -0.7130  1.3355
  179DOPC   H3Y21958   6.114   5.810   4.478  0.2231 -0.2829 -0.1382
  179DOPC   C3421959   6.287   5.852   4.608 -0.0662  0.0236 -0.4165
  179DOPC   H4X21960   6.387   5.896   4.586  0.0754 -0.6006 -1.0837
  179DOPC   H4Y21961   6.299   5.747   4.643 -1.3650  0.0476  0.1504
  179DOPC   C3521962   6.217   5.932   4.720  0.1682 -0.5301  0.3136
  179DOPC   H5X21963   6.120   5.886   4.748  0.0438 -0.7611 -0.4742
  179DOPC   H5Y21964   6.198   6.035   4.683  3.7445 -0.6259 -2.2900
  179DOPC   C3621965   6.292   5.947   4.864 -0.7266 -0.0925 -0.4917
  179DOPC   H6X21966   6.238   5.996   4.948  0.9471 -1.1575  1.3171
  179DOPC   H6Y21967   6.312   5.844   4.902 -1.3330  0.8921  2.8191
  179DOPC   C3721968   6.436   6.009   4.861  0.4262  0.3140 -0.1454
  179DOPC   H7X21969   6.494   5.962   4.779  0.5195  1.0591 -0.5194
  179DOPC   H7Y21970   6.420   6.116   4.836 -0.9505  0.2055  0.2265
  179DOPC   C3821971   6.504   5.988   4.995  0.0367  0.5236 -0.4765
  179DOPC   H8X21972   6.500   5.879   5.014  0.5237  0.2446 -1.8417
  179DOPC   H8Y21973   6.446   6.059   5.057 -0.8968  1.1597 -2.0312
  179DOPC   C3921974   6.649   6.027   4.978  0.3633 -0.5157 -0.0666
  179DOPC   H9X21975   6.664   6.135   4.987 -1.7305  0.0398 -2.1747
  179DOPC  C31021976   6.756   5.949   4.940 -0.5822  0.2798  0.4041
  179DOPC  H10X21977   6.851   5.998   4.915 -1.3402  1.4080 -0.3358
  179DOPC  C31121978   6.763   5.800   4.921  0.2037 -0.4399 -0.3532
  179DOPC  H11X21979   6.667   5.761   4.961 -0.4423  1.2364 -0.2006
  179DOPC  H11Y21980   6.841   5.749   4.983 -0.4316 -0.2151  0.6627
  179DOPC  C31221981   6.764   5.768   4.771 -0.1805 -0.0660 -0.0666
  179DOPC  H12X21982   6.686   5.831   4.724 -0.3077  0.6337  1.0609
  179DOPC  H12Y21983   6.717   5.668   4.753 -1.4053  0.8719 -2.5313
  179DOPC  C31321984   6.903   5.765   4.697 -0.4080 -0.2210 -0.9093
  179DOPC  H13X21985   6.961   5.678   4.735 -0.8121 -0.1578 -0.1142
  179DOPC  H13Y21986   6.880   5.745   4.591 -2.9577  0.6941 -0.5887
  179DOPC  C31421987   6.982   5.887   4.699  0.2888 -0.5908 -0.6564
  179DOPC  H14X21988   6.920   5.974   4.667  0.4343 -1.0418 -2.2846
  179DOPC  H14Y21989   7.019   5.911   4.800 -1.0088 -2.3912  0.3112
  179DOPC  C31521990   7.097   5.885   4.603 -1.1601  0.2171 -0.3797
  179DOPC  H15X21991   7.151   5.788   4.608  1.0393  1.4395  1.4004
  179DOPC  H15Y21992   7.182   5.949   4.634 -1.2993  0.8384 -1.2352
  179DOPC  C31621993   7.060   5.925   4.460 -0.5241  0.6212 -0.7987
  179DOPC  H16X21994   6.978   5.864   4.418 -0.6033  0.5083 -0.4797
  179DOPC  H16Y21995   7.014   6.026   4.462 -0.3538  0.6987  1.0297
  179DOPC  C31721996   7.185   5.914   4.368 -0.0204  0.6498  0.1557
  179DOPC  H17X21997   7.265   5.979   4.408  0.7385 -0.2297  0.0892
  179DOPC  H17Y21998   7.230   5.814   4.355 -0.9767  0.3986 -1.5272
  179DOPC  C31821999   7.155   5.964   4.227 -0.0092  0.5918  0.0264
  179DOPC  H18X22000   7.243   5.955   4.159 -0.2952  1.6267 -0.5154
  179DOPC  H18Y22001   7.072   5.913   4.173 -1.7503  1.2866  1.9388
  179DOPC  H18Z22002   7.132   6.073   4.233 -2.2707  0.1629 -0.0794
  180DOPC     N22003   6.272   4.275   3.466  0.1687 -0.0581 -0.2060
  180DOPC   C1222004   6.225   4.129   3.439  0.1414 -0.8583  0.3861
  180DOPC  H12A22005   6.124   4.129   3.400  0.3932  0.5593 -0.3267
  180DOPC  H12B22006   6.207   4.074   3.531 -3.1066  1.3681  1.2602
  180DOPC   C1322007   6.398   4.274   3.541 -0.6276 -0.0159  0.5068
  180DOPC  H13A22008   6.392   4.204   3.624 -1.8759 -1.5869 -0.8321
  180DOPC  H13B22009   6.471   4.239   3.470 -1.4749 -0.9085  0.0540
  180DOPC  H13C22010   6.430   4.370   3.577 -0.7793  0.5541 -0.8406
  180DOPC   C1422011   6.166   4.349   3.546  0.1750  0.5736 -0.3084
  180DOPC  H14A22012   6.140   4.289   3.632  0.3517 -0.2227 -0.8035
  180DOPC  H14B22013   6.201   4.450   3.562  2.4448 -0.1026 -0.5595
  180DOPC  H14C22014   6.072   4.349   3.494 -0.4883 -0.3648  0.8554
  180DOPC   C1522015   6.300   4.352   3.337 -0.1947  0.4444  0.0726
  180DOPC  H15A22016   6.221   4.336   3.266  1.4316  0.9961 -1.9581
  180DOPC  H15B22017   6.396   4.329   3.293 -0.6997 -0.2281 -0.6884
  180DOPC  H15C22018   6.293   4.458   3.359 -0.5925  0.4048  0.1357
  180DOPC   C1122019   6.309   4.045   3.344 -0.1869 -0.7432 -0.2936
  180DOPC  H11A22020   6.255   3.952   3.316 -2.4973 -0.4919  2.8272
  180DOPC  H11B22021   6.334   4.094   3.247  1.4083 -2.2130 -0.6809
  180DOPC     P22022   6.450   3.893   3.494 -0.2973  0.1009  0.1402
  180DOPC   O1322023   6.590   3.877   3.520 -0.0153  0.2826 -0.0860
  180DOPC   O1422024   6.384   3.779   3.423  0.5515  0.1497 -0.0185
  180DOPC   O1222025   6.430   4.020   3.411 -0.1180  1.0431  0.2006
  180DOPC   O1122026   6.379   3.918   3.630  0.6962 -0.1220 -0.7388
  180DOPC    C122027   6.253   3.861   3.675  0.2714  0.0881 -0.2871
  180DOPC    HA22028   6.206   3.787   3.608 -0.1036  0.7579 -0.7728
  180DOPC    HB22029   6.180   3.940   3.702  0.0536 -0.3418  0.3916
  180DOPC    C222030   6.292   3.765   3.805 -0.3949 -0.4714 -0.3782
  180DOPC    HS22031   6.192   3.736   3.843 -0.0126 -0.5499  0.5878
  180DOPC   O2122032   6.357   3.849   3.895  0.6226  0.9775  0.3565
  180DOPC   C2122033   6.289   3.911   3.988 -0.1005 -0.6307 -0.1512
  180DOPC   O2222034   6.171   3.940   3.992  0.1521 -0.1659 -0.3588
  180DOPC   C2222035   6.384   3.936   4.105 -0.4851  0.9120  0.2518
  180DOPC   H2R22036   6.464   4.003   4.066  0.4919  1.6888  3.2572
  180DOPC   H2S22037   6.431   3.840   4.135 -0.8201  0.8685  0.6528
  180DOPC    C322038   6.377   3.637   3.770 -0.4014  0.6768  0.0693
  180DOPC    HX22039   6.484   3.664   3.761 -0.1012  0.3608  2.1834
  180DOPC    HY22040   6.339   3.587   3.678  1.6915  0.6424 -0.8223
  180DOPC   O3122041   6.379   3.536   3.884  0.5372 -0.1033  0.5622
  180DOPC   C3122042   6.263   3.476   3.891 -0.7558 -0.2363 -0.1846
  180DOPC   O3222043   6.163   3.497   3.822 -0.3759 -0.6359 -0.3913
  180DOPC   C3222044   6.269   3.388   4.017 -0.5751  0.0964  0.2933
  180DOPC   H2X22045   6.262   3.443   4.112  3.4613 -0.5186  1.1499
  180DOPC   H2Y22046   6.179   3.323   4.010 -0.5886  0.0282  1.0857
  180DOPC   C2322047   6.310   3.998   4.230 -0.0173  0.5010  0.3244
  180DOPC   H3R22048   6.231   3.928   4.261  0.7866 -1.9261 -2.5973
  180DOPC   H3S22049   6.262   4.095   4.204 -0.5721  0.0147 -0.5027
  180DOPC   C2422050   6.409   4.017   4.350  0.4844  0.1604  0.2148
  180DOPC   H4R22051   6.478   4.092   4.308 -0.5609  0.4352 -1.0703
  180DOPC   H4S22052   6.460   3.923   4.381  3.1785  0.3880 -2.9306
  180DOPC   C2522053   6.335   4.089   4.467 -0.4433  0.8290 -0.6991
  180DOPC   H5R22054   6.256   4.150   4.419 -1.1019 -0.6232 -1.5226
  180DOPC   H5S22055   6.409   4.148   4.525 -0.8356 -0.3309  1.0540
  180DOPC   C2622056   6.276   3.992   4.576 -0.6813  0.3484  1.1968
  180DOPC   H6R22057   6.343   3.907   4.603 -0.0319  0.7293  0.8186
  180DOPC   H6S22058   6.183   3.947   4.534  0.8363 -0.5796 -1.4337
  180DOPC   C2722059   6.243   4.069   4.706 -0.4563 -0.5106  0.1002
  180DOPC   H7R22060   6.173   4.145   4.666  1.0024  0.5090 -0.6251
  180DOPC   H7S22061   6.334   4.128   4.729 -0.7082 -0.0447 -0.0894
  180DOPC   C2822062   6.189   3.994   4.824 -0.0297 -0.0644 -0.0962
  180DOPC   H8R22063   6.094   3.947   4.792 -0.2748  1.8919 -2.5884
  180DOPC   H8S22064   6.173   4.072   4.901  2.0662 -0.7090  1.0873
  180DOPC   C2922065   6.270   3.891   4.897 -0.8016  0.3955  0.4169
  180DOPC   H9R22066   6.326   3.829   4.826 -0.9243  1.0859 -0.3030
  180DOPC  C21022067   6.299   3.874   5.026  0.0358 -0.0549 -0.1487
  180DOPC  H10R22068   6.389   3.819   5.056 -1.3738 -1.3279  1.9617
  180DOPC  C21122069   6.228   3.940   5.147 -0.1927 -0.0439 -0.2232
  180DOPC  H11R22070   6.187   3.859   5.210 -0.8749 -0.6254 -1.3811
  180DOPC  H11S22071   6.154   4.006   5.096 -0.9094 -0.8996 -0.3224
  180DOPC  C21222072   6.328   4.024   5.235  0.5791  0.7396  0.2248
  180DOPC  H12R22073   6.277   4.115   5.273  0.3124  0.7451 -0.1337
  180DOPC  H12S22074   6.415   4.045   5.169  0.8896 -0.0155  0.3862
  180DOPC  C21322075   6.376   3.957   5.359 -0.5089 -0.0434 -0.3183
  180DOPC  H13R22076   6.422   4.044   5.410 -1.5074 -0.0534  0.6318
  180DOPC  H13S22077   6.449   3.875   5.339 -0.8395 -0.3330 -0.3509
  180DOPC  C21422078   6.265   3.904   5.454 -0.1715 -0.0835 -0.3046
  180DOPC  H14R22079   6.232   3.808   5.409  0.5602 -1.7928  2.5600
  180DOPC  H14S22080   6.177   3.971   5.447  0.4088  0.6732 -0.5584
  180DOPC  C21522081   6.305   3.875   5.598  0.1544  0.2323 -0.2854
  180DOPC  H15R22082   6.341   3.976   5.628 -0.0877  1.6525 -4.1439
  180DOPC  H15S22083   6.394   3.808   5.594 -0.6535 -0.8253 -1.7680
  180DOPC  C21622084   6.194   3.833   5.690 -0.1142 -0.9255 -0.1241
  180DOPC  H16R22085   6.144   3.735   5.674 -1.7607 -0.3412  1.1311
  180DOPC  H16S22086   6.108   3.901   5.672  0.4886 -0.4353 -1.2891
  180DOPC  C21722087   6.239   3.862   5.835 -0.4842  0.6303 -0.0970
  180DOPC  H17R22088   6.243   3.973   5.850 -1.6411  0.9866 -2.1086
  180DOPC  H17S22089   6.342   3.828   5.857 -0.2392  1.5938  0.3198
  180DOPC  C21822090   6.137   3.809   5.939  1.0877  0.3184 -0.7468
  180DOPC  H18R22091   6.156   3.851   6.040  0.1797  1.8871 -1.2021
  180DOPC  H18S22092   6.123   3.699   5.932  2.6670  0.0723 -0.5527
  180DOPC  H18T22093   6.038   3.849   5.910  0.7562  0.0082 -0.0530
  180DOPC   C3322094   6.398   3.299   4.033 -0.0757  0.5517  0.0894
  180DOPC   H3X22095   6.492   3.355   4.013  1.5765 -2.0663  0.1009
  180DOPC   H3Y22096   6.393   3.233   3.944  1.2643 -0.4742  0.7524
  180DOPC   C3422097   6.406   3.201   4.154 -0.3945 -0.2102  0.0170
  180DOPC   H4X22098   6.506   3.154   4.161 -1.1064 -1.5897  1.6250
  180DOPC   H4Y22099   6.330   3.121   4.142 -0.8824  0.2317  0.1093
  180DOPC   C3522100   6.379   3.269   4.287 -0.1590 -0.2017  0.2291
  180DOPC   H5X22101   6.279   3.317   4.287  0.9427  2.2473  0.3051
  180DOPC   H5Y22102   6.453   3.348   4.313  0.9360 -1.5414  1.3197
  180DOPC   C3622103   6.378   3.152   4.401  0.3951 -0.3119  0.8610
  180DOPC   H6X22104   6.304   3.082   4.358  0.4666 -0.3205  0.7514
  180DOPC   H6Y22105   6.482   3.112   4.404 -0.6346 -3.3010  0.4640
  180DOPC   C3722106   6.306   3.206   4.529  0.2090  0.5799  0.5400
  180DOPC   H7X22107   6.357   3.295   4.572  0.1485  1.1096 -0.4404
  180DOPC   H7Y22108   6.208   3.248   4.498  1.5952  3.3499 -0.4132
  180DOPC   C3822109   6.282   3.097   4.641 -0.2495 -0.0017 -0.7169
  180DOPC   H8X22110   6.225   3.011   4.599 -1.4539 -0.1979  1.2004
  180DOPC   H8Y22111   6.213   3.138   4.718  0.0061  2.2361 -1.5950
  180DOPC   C3922112   6.408   3.056   4.709 -0.2581 -0.5605  0.0642
  180DOPC   H9X22113   6.481   2.996   4.653  0.1554 -2.3486  2.3571
  180DOPC  C31022114   6.434   3.071   4.842  0.0603 -0.3517  0.0989
  180DOPC  H10X22115   6.533   3.044   4.881  0.0307  0.9540  1.1306
  180DOPC  C31122116   6.363   3.146   4.950 -0.4394  0.2497  0.7035
  180DOPC  H11X22117   6.257   3.146   4.918  0.5373 -0.5151 -3.0977
  180DOPC  H11Y22118   6.390   3.254   4.952  1.4519 -0.1878  1.1412
  180DOPC  C31222119   6.365   3.083   5.088  0.3861  0.0803 -0.0879
  180DOPC  H12X22120   6.354   2.974   5.070 -1.0277  0.4469 -1.6681
  180DOPC  H12Y22121   6.279   3.118   5.149  0.4053 -0.9054  0.5463
  180DOPC  C31322122   6.498   3.099   5.162 -0.0413 -0.4791 -0.6726
  180DOPC  H13X22123   6.588   3.082   5.100  1.3205  1.3059  0.7008
  180DOPC  H13Y22124   6.506   3.197   5.213  2.7957 -1.3705  0.8160
  180DOPC  C31422125   6.501   2.990   5.277  0.5235  0.2256 -0.2460
  180DOPC  H14X22126   6.474   2.897   5.224  0.7055  0.7510 -1.2886
  180DOPC  H14Y22127   6.599   2.978   5.328 -0.1463 -1.9618  0.6472
  180DOPC  C31522128   6.394   3.020   5.378  0.4926  0.1982 -0.7324
  180DOPC  H15X22129   6.295   3.028   5.329  0.1288 -0.0219 -0.0492
  180DOPC  H15Y22130   6.399   3.123   5.420 -2.8381 -0.0004  0.4399
  180DOPC  C31622131   6.389   2.909   5.489 -0.2214  0.1432 -0.6645
  180DOPC  H16X22132   6.400   2.807   5.448  0.6023 -0.0833  0.0819
  180DOPC  H16Y22133   6.475   2.917   5.559 -0.8354 -0.8147  0.2227
  180DOPC  C31722134   6.260   2.902   5.573  0.4219  0.3336  0.1902
  180DOPC  H17X22135   6.175   2.942   5.513 -1.3681 -2.7929  0.4271
  180DOPC  H17Y22136   6.229   2.801   5.606 -4.3913  2.0693  1.8029
  180DOPC  C31822137   6.266   2.987   5.696  0.3851  0.6030 -0.3986
  180DOPC  H18X22138   6.162   3.002   5.734  0.2990  1.3961 -0.9016
  180DOPC  H18Y22139   6.328   2.938   5.773 -1.0171 -0.6863 -0.0355
  180DOPC  H18Z22140   6.303   3.089   5.672  0.2302  0.9570  0.8115
  181DOPC     N22141   2.652   4.258   4.181 -0.3948 -0.3242 -0.4519
  181DOPC   C1222142   2.524   4.280   4.117  0.4512 -0.4317 -0.1177
  181DOPC  H12A22143   2.543   4.286   4.011 -0.9485 -2.1605 -0.5187
  181DOPC  H12B22144   2.488   4.380   4.139 -0.7979 -0.5352 -1.5490
  181DOPC   C1322145   2.717   4.139   4.125 -0.0086  0.2847  0.0526
  181DOPC  H13A22146   2.668   4.047   4.155 -1.0167  0.9949  0.6648
  181DOPC  H13B22147   2.735   4.153   4.020  2.3463 -0.1825  0.3496
  181DOPC  H13C22148   2.813   4.137   4.174 -0.2652  2.8594  0.7965
  181DOPC   C1422149   2.638   4.244   4.336  0.1691 -0.7198 -0.4007
  181DOPC  H14A22150   2.586   4.156   4.371  0.5217 -0.2910  1.3081
  181DOPC  H14B22151   2.725   4.261   4.398 -0.0602 -2.1108  0.3541
  181DOPC  H14C22152   2.578   4.328   4.367  3.2397  1.5377 -0.0482
  181DOPC   C1522153   2.748   4.375   4.161  0.5428  0.3876 -0.2968
  181DOPC  H15A22154   2.845   4.356   4.204  1.1692  1.5825 -1.1136
  181DOPC  H15B22155   2.698   4.464   4.198 -1.0048 -0.4759 -0.2303
  181DOPC  H15C22156   2.757   4.397   4.056  0.7033 -2.4141 -0.9377
  181DOPC   C1122157   2.405   4.185   4.148  0.3540  0.4971  0.2383
  181DOPC  H11A22158   2.333   4.189   4.064  1.2767  2.2173 -0.5271
  181DOPC  H11B22159   2.444   4.082   4.153 -1.9730 -0.6230 -2.0725
  181DOPC     P22160   2.246   4.333   4.286  0.1528  0.0754 -0.0570
  181DOPC   O1322161   2.113   4.285   4.247  0.1707 -0.0332 -0.2419
  181DOPC   O1422162   2.292   4.458   4.216 -0.1100  0.7451  0.1002
  181DOPC   O1222163   2.348   4.211   4.278  0.2212 -0.3462  0.0437
  181DOPC   O1122164   2.242   4.363   4.447  0.2608  0.3413 -0.0682
  181DOPC    C122165   2.220   4.259   4.536 -0.1123  0.2191 -0.4539
  181DOPC    HA22166   2.270   4.167   4.498 -0.3243 -0.1245  0.0892
  181DOPC    HB22167   2.110   4.243   4.545 -0.1969 -0.0768 -1.8142
  181DOPC    C222168   2.281   4.291   4.672 -0.3593  0.6039 -0.2612
  181DOPC    HS22169   2.237   4.220   4.745 -0.2754  0.5829 -0.2314
  181DOPC   O2122170   2.249   4.426   4.699 -0.0224  0.0310  0.0562
  181DOPC   C2122171   2.235   4.457   4.834  0.7548  0.4029  0.3441
  181DOPC   O2222172   2.253   4.382   4.924  0.5818 -0.6341 -0.0716
  181DOPC   C2222173   2.181   4.602   4.860  0.3034 -0.0717  0.4502
  181DOPC   H2R22174   2.079   4.598   4.817  0.3367 -1.2725  0.4495
  181DOPC   H2S22175   2.239   4.678   4.802 -2.1816  0.1639 -1.9770
  181DOPC    C322176   2.440   4.277   4.666  0.3435  0.0254 -0.1424
  181DOPC    HX22177   2.481   4.313   4.763 -1.1573 -2.6592  1.6156
  181DOPC    HY22178   2.478   4.342   4.584  1.3321  1.3097  1.2742
  181DOPC   O3122179   2.485   4.146   4.644 -0.3238  0.0150  0.8464
  181DOPC   C3122180   2.511   4.064   4.751  0.4920  0.3923 -0.7734
  181DOPC   O3222181   2.500   4.097   4.868  0.3655  0.0383  0.2032
  181DOPC   C3222182   2.562   3.925   4.714  0.5697 -0.0532 -0.5663
  181DOPC   H2X22183   2.472   3.890   4.660  1.8627 -0.6515 -2.4280
  181DOPC   H2Y22184   2.654   3.925   4.652  0.1174 -1.6304 -1.2997
  181DOPC   C2322185   2.143   4.627   5.010  0.3825  0.4879 -0.2492
  181DOPC   H3R22186   2.072   4.550   5.046  0.8075 -0.2812 -1.0282
  181DOPC   H3S22187   2.082   4.720   5.002  2.0312  1.9258  2.2257
  181DOPC   C2422188   2.261   4.641   5.104  0.4111 -0.1724 -0.3730
  181DOPC   H4R22189   2.354   4.681   5.057  0.8876  0.3737  0.9811
  181DOPC   H4S22190   2.307   4.544   5.134  1.6904 -0.2830 -2.4861
  181DOPC   C2522191   2.222   4.712   5.235 -0.3122 -0.2984 -0.4635
  181DOPC   H5R22192   2.177   4.810   5.208  0.0223  0.3013  1.0901
  181DOPC   H5S22193   2.315   4.738   5.289 -1.0802  0.2594  0.6155
  181DOPC   C2622194   2.142   4.612   5.317 -0.2064 -0.1848 -0.4835
  181DOPC   H6R22195   2.208   4.559   5.389 -0.0551  1.1826  0.4156
  181DOPC   H6S22196   2.099   4.536   5.247 -1.0111  0.3381 -0.5713
  181DOPC   C2722197   2.023   4.687   5.386  0.2135 -0.2605 -0.6190
  181DOPC   H7R22198   1.956   4.617   5.440  1.5916  0.7612  2.6849
  181DOPC   H7S22199   1.963   4.735   5.306  2.1352  1.3090 -1.2036
  181DOPC   C2822200   2.076   4.784   5.492  0.3188 -0.2480  0.5973
  181DOPC   H8R22201   1.988   4.842   5.528 -1.1557 -1.1919 -1.3361
  181DOPC   H8S22202   2.148   4.858   5.449 -0.7297  0.3430 -0.1788
  181DOPC   C2922203   2.149   4.736   5.617  0.2142  0.2318 -0.0310
  181DOPC   H9R22204   2.253   4.704   5.598 -0.4387 -2.7812  0.8799
  181DOPC  C21022205   2.096   4.730   5.743 -0.7282 -0.8348 -0.0320
  181DOPC  H10R22206   2.161   4.695   5.824 -0.5735 -1.6428 -0.4967
  181DOPC  C21122207   1.957   4.769   5.786  0.4518 -0.1743  0.1283
  181DOPC  H11R22208   1.903   4.822   5.704 -0.8504 -0.2003  0.9335
  181DOPC  H11S22209   1.963   4.852   5.861 -1.7745 -0.6973  0.9648
  181DOPC  C21222210   1.887   4.644   5.846 -0.5429  0.2942 -0.2987
  181DOPC  H12R22211   1.958   4.596   5.917  0.7581  0.5229 -1.4269
  181DOPC  H12S22212   1.870   4.573   5.762 -0.6157  1.3767 -1.2139
  181DOPC  C21322213   1.750   4.668   5.912  0.5171 -0.2988  0.4576
  181DOPC  H13R22214   1.710   4.569   5.943  0.2185 -0.2979  0.0840
  181DOPC  H13S22215   1.685   4.705   5.830  0.1279 -0.6080  0.6224
  181DOPC  C21422216   1.764   4.757   6.042  0.1261 -0.5527  0.5276
  181DOPC  H14R22217   1.794   4.857   6.005 -1.1153 -0.0626  0.7740
  181DOPC  H14S22218   1.843   4.709   6.104  0.4900 -0.1294  0.3959
  181DOPC  C21522219   1.632   4.782   6.115  0.5959  0.2202 -0.0089
  181DOPC  H15R22220   1.644   4.854   6.199 -0.5729  0.5853 -0.1309
  181DOPC  H15S22221   1.597   4.686   6.158 -0.2846 -0.4678 -2.1318
  181DOPC  C21622222   1.516   4.830   6.034 -0.5422 -0.0578  0.8241
  181DOPC  H16R22223   1.481   4.747   5.969 -0.5796 -0.1702  0.9836
  181DOPC  H16S22224   1.545   4.905   5.959  1.3170 -1.4301  0.0952
  181DOPC  C21722225   1.395   4.885   6.115 -0.3408 -0.7295 -0.2420
  181DOPC  H17R22226   1.433   4.966   6.183  0.6171 -1.9681  0.7487
  181DOPC  H17S22227   1.343   4.810   6.179  1.7487 -2.8616 -0.9239
  181DOPC  C21822228   1.301   4.957   6.023  0.2797 -0.2436 -0.4035
  181DOPC  H18R22229   1.344   5.044   5.969 -2.1650  1.5675  0.3720
  181DOPC  H18S22230   1.217   5.003   6.079  0.4900  1.1216 -1.1506
  181DOPC  H18T22231   1.257   4.890   5.946  0.4874  0.2899 -0.9937
  181DOPC   C3322232   2.590   3.836   4.840  0.3131  0.5062 -0.0635
  181DOPC   H3X22233   2.600   3.731   4.803  1.6693  0.5203  0.2190
  181DOPC   H3Y22234   2.493   3.852   4.890  1.2924  1.1290  1.7199
  181DOPC   C3422235   2.715   3.867   4.915  0.2214 -0.5929 -0.2953
  181DOPC   H4X22236   2.702   3.967   4.962 -1.5521 -1.1116  0.3646
  181DOPC   H4Y22237   2.799   3.868   4.841 -0.3197 -2.8558 -1.0002
  181DOPC   C3522238   2.735   3.754   5.017  0.1241  0.1978  0.0136
  181DOPC   H5X22239   2.791   3.668   4.973 -0.1529  0.4239 -0.7957
  181DOPC   H5Y22240   2.632   3.718   5.041 -0.0164 -1.3591 -2.4903
  181DOPC   C3622241   2.805   3.793   5.142 -0.1548  0.4691  0.1400
  181DOPC   H6X22242   2.914   3.779   5.129 -0.4397 -0.3736 -1.7733
  181DOPC   H6Y22243   2.798   3.903   5.154 -0.8764  0.2978  1.5423
  181DOPC   C3722244   2.761   3.718   5.266 -0.4247 -0.1551 -0.7462
  181DOPC   H7X22245   2.665   3.767   5.295  1.2959  2.5389  0.7116
  181DOPC   H7Y22246   2.744   3.611   5.242 -1.7457 -0.5591  1.5929
  181DOPC   C3822247   2.852   3.732   5.392 -0.9666 -0.7435 -0.0716
  181DOPC   H8X22248   2.953   3.697   5.362 -0.7998 -1.8008  1.6245
  181DOPC   H8Y22249   2.813   3.669   5.473 -0.1314 -0.0831  0.8723
  181DOPC   C3922250   2.860   3.873   5.438 -0.3380  0.1165  0.6124
  181DOPC   H9X22251   2.870   3.954   5.364  2.5420  1.2463  2.0598
  181DOPC  C31022252   2.861   3.911   5.565  0.3290  0.0428 -0.0174
  181DOPC  H10X22253   2.878   4.019   5.580 -1.5113  0.3971 -0.1897
  181DOPC  C31122254   2.859   3.828   5.694  0.7347  0.1577  0.7017
  181DOPC  H11X22255   2.943   3.757   5.678  0.7849  0.3705 -0.0521
  181DOPC  H11Y22256   2.763   3.773   5.690  1.5136 -1.2059  0.1785
  181DOPC  C31222257   2.878   3.917   5.815  1.0514 -0.3644  0.3948
  181DOPC  H12X22258   2.788   3.974   5.847  1.4548 -0.5605  1.9548
  181DOPC  H12Y22259   2.960   3.989   5.794  1.1147 -1.0967 -2.1477
  181DOPC  C31322260   2.914   3.830   5.936 -0.6143  0.5145  0.0763
  181DOPC  H13X22261   2.826   3.765   5.958  0.9284 -0.9028  2.5203
  181DOPC  H13Y22262   3.008   3.774   5.920 -1.0079  0.0674 -0.7230
  181DOPC  C31422263   2.947   3.923   6.063  0.6455  0.0935 -0.4428
  181DOPC  H14X22264   2.965   3.854   6.148 -1.1579  0.5505  0.3629
  181DOPC  H14Y22265   3.043   3.976   6.048  1.5226 -1.7291 -1.6273
  181DOPC  C31522266   2.844   4.024   6.114 -0.9440 -0.0408  0.1222
  181DOPC  H15X22267   2.838   4.111   6.045  1.5742 -1.2287 -1.7554
  181DOPC  H15Y22268   2.886   4.059   6.211 -1.7168 -1.0234  0.8237
  181DOPC  C31622269   2.710   3.976   6.161  0.0186 -0.6109 -0.2757
  181DOPC  H16X22270   2.627   4.000   6.091 -1.4474  0.4652  1.7335
  181DOPC  H16Y22271   2.709   3.865   6.170 -0.9693 -0.5766  0.0922
  181DOPC  C31722272   2.658   4.025   6.295  0.5885 -0.7622 -0.0055
  181DOPC  H17X22273   2.569   3.964   6.323 -0.7941  0.6480 -1.1525
  181DOPC  H17Y22274   2.722   3.988   6.378 -0.5113 -2.3628  0.1818
  181DOPC  C31822275   2.629   4.175   6.316 -0.1153  0.6621 -0.5908
  181DOPC  H18X22276   2.559   4.201   6.234 -1.3775 -2.6511 -0.7376
  181DOPC  H18Y22277   2.586   4.186   6.418  0.1880 -2.1300 -0.0719
  181DOPC  H18Z22278   2.722   4.235   6.305 -0.5649  0.9384 -4.2788
  182DOPC     N22279   3.167   1.429   3.448  0.2644 -0.0412  0.3815
  182DOPC   C1222280   3.107   1.291   3.450  0.7934  1.2806  0.3642
  182DOPC  H12A22281   3.181   1.217   3.476 -0.5697  0.4832  2.1870
  182DOPC  H12B22282   3.092   1.257   3.348  0.2063 -1.3855  1.2547
  182DOPC   C1322283   3.175   1.477   3.590 -0.5779  0.0072 -0.3828
  182DOPC  H13A22284   3.079   1.490   3.638 -1.3719 -2.0583 -1.3049
  182DOPC  H13B22285   3.232   1.405   3.646 -1.2467  0.1637  0.5200
  182DOPC  H13C22286   3.220   1.576   3.593 -1.5429  0.5746 -2.3983
  182DOPC   C1422287   3.086   1.527   3.361 -0.9540 -0.5016 -0.3644
  182DOPC  H14A22288   3.082   1.496   3.258 -0.0879  0.3884 -0.6834
  182DOPC  H14B22289   2.986   1.531   3.402 -1.5056  0.7178 -1.7457
  182DOPC  H14C22290   3.127   1.627   3.362  0.6900 -1.1145 -1.8876
  182DOPC   C1522291   3.304   1.415   3.397 -0.5318 -0.0025 -0.1386
  182DOPC  H15A22292   3.343   1.513   3.371  0.2637 -0.3175 -0.1488
  182DOPC  H15B22293   3.304   1.358   3.305 -1.0939  0.8590 -0.6968
  182DOPC  H15C22294   3.370   1.362   3.464  0.2835  0.2156 -0.7507
  182DOPC   C1122295   2.981   1.269   3.530 -0.6378  0.0014  0.7077
  182DOPC  H11A22296   2.935   1.170   3.510  0.8238 -0.4359 -0.7176
  182DOPC  H11B22297   3.004   1.268   3.639  1.8188 -1.8445  0.2538
  182DOPC     P22298   2.785   1.424   3.583 -0.2681  0.0167  0.2047
  182DOPC   O1322299   2.693   1.498   3.498 -0.2580 -0.2030  0.2605
  182DOPC   O1422300   2.858   1.507   3.676  0.1858 -0.2978 -0.5413
  182DOPC   O1222301   2.879   1.355   3.486 -0.0506 -0.1506  0.1446
  182DOPC   O1122302   2.705   1.307   3.658 -0.0520  0.1365  0.1500
  182DOPC    C122303   2.560   1.329   3.672 -0.1985  0.4614  0.7603
  182DOPC    HA22304   2.513   1.235   3.707  1.0964  0.0446  1.4321
  182DOPC    HB22305   2.508   1.353   3.576 -1.0219  3.1627  1.7682
  182DOPC    C222306   2.525   1.433   3.780  0.8086  0.3954  0.1494
  182DOPC    HS22307   2.598   1.517   3.766  0.6699  1.0414  2.7630
  182DOPC   O2122308   2.544   1.367   3.900  0.5910  0.5037 -0.3604
  182DOPC   C2122309   2.539   1.443   4.007  0.0853  0.4254 -0.9795
  182DOPC   O2222310   2.534   1.564   4.007 -0.1238  0.4258 -0.3027
  182DOPC   C2222311   2.529   1.355   4.135  0.0155 -0.2900 -0.2848
  182DOPC   H2R22312   2.604   1.387   4.210 -0.6016 -0.0643  0.2421
  182DOPC   H2S22313   2.557   1.250   4.108 -1.7379 -0.7723 -0.3743
  182DOPC    C322314   2.376   1.484   3.771 -0.2876 -0.3392  0.3904
  182DOPC    HX22315   2.372   1.536   3.674 -1.8089  0.6551  0.9513
  182DOPC    HY22316   2.362   1.561   3.850 -0.7992  0.8983 -0.8927
  182DOPC   O3122317   2.275   1.382   3.783  0.1831 -0.0027 -0.3825
  182DOPC   C3122318   2.237   1.320   3.675 -0.2741 -0.3387 -0.1744
  182DOPC   O3222319   2.277   1.338   3.559  0.2329  0.0853 -0.2994
  182DOPC   C3222320   2.126   1.219   3.712  0.0037  0.0086 -0.4344
  182DOPC   H2X22321   2.028   1.261   3.684  0.1758  1.6778  1.2653
  182DOPC   H2Y22322   2.153   1.126   3.657  2.1787  0.1984  0.1975
  182DOPC   C2322323   2.383   1.347   4.189 -0.4292 -0.3583 -0.3701
  182DOPC   H3R22324   2.319   1.284   4.124  0.5189 -1.6958 -0.0396
  182DOPC   H3S22325   2.339   1.450   4.183  2.1471  0.7269 -3.1179
  182DOPC   C2422326   2.381   1.274   4.325  0.3221  0.1516 -0.0999
  182DOPC   H4R22327   2.480   1.277   4.375 -0.2097  1.5569  0.9063
  182DOPC   H4S22328   2.361   1.165   4.310  0.6302  0.2776 -1.6205
  182DOPC   C2522329   2.273   1.332   4.407  0.4974  0.2080 -0.1410
  182DOPC   H5R22330   2.181   1.349   4.347 -0.2435 -1.1606  0.5829
  182DOPC   H5S22331   2.297   1.436   4.438 -2.4080  0.7683  0.4821
  182DOPC   C2622332   2.230   1.246   4.531  0.2050 -0.3004  0.1988
  182DOPC   H6R22333   2.327   1.234   4.584 -0.5385 -1.4126  1.3707
  182DOPC   H6S22334   2.201   1.144   4.498 -0.2814 -0.8902  2.3234
  182DOPC   C2722335   2.116   1.317   4.606  0.0138 -0.4263  0.3327
  182DOPC   H7R22336   2.034   1.333   4.533  0.9584 -1.0791 -0.9184
  182DOPC   H7S22337   2.158   1.415   4.636  2.0923 -1.4551  0.9911
  182DOPC   C2822338   2.063   1.245   4.733 -0.1520  0.7854  0.7955
  182DOPC   H8R22339   2.009   1.151   4.710 -0.0540  0.5212  1.6267
  182DOPC   H8S22340   1.984   1.310   4.775 -3.4006 -1.5862 -1.2012
  182DOPC   C2922341   2.162   1.231   4.844  0.0493  0.4268  0.0425
  182DOPC   H9R22342   2.239   1.158   4.813 -0.7518 -0.2061 -0.4943
  182DOPC  C21022343   2.154   1.265   4.972  0.5055 -0.0774 -0.2799
  182DOPC  H10R22344   2.239   1.237   5.036 -0.4746 -1.2147  0.5798
  182DOPC  C21122345   2.045   1.357   5.035 -0.2385  0.0471  0.0541
  182DOPC  H11R22346   1.950   1.354   4.979  0.2424 -1.4444 -0.7127
  182DOPC  H11S22347   2.073   1.464   5.049  0.6199 -0.1541 -0.0702
  182DOPC  C21222348   2.007   1.311   5.179  1.0296  0.3625  0.1246
  182DOPC  H12R22349   2.084   1.324   5.259 -0.4338 -0.0682  1.6646
  182DOPC  H12S22350   1.974   1.206   5.194  3.0225 -0.2629  0.4955
  182DOPC  C21322351   1.887   1.397   5.228  0.3310 -0.0207  0.2460
  182DOPC  H13R22352   1.797   1.363   5.173  0.2982 -0.8039  0.7651
  182DOPC  H13S22353   1.923   1.495   5.190  0.9215 -0.7209 -1.0907
  182DOPC  C21422354   1.858   1.396   5.384 -0.6642  0.1729  0.1368
  182DOPC  H14R22355   1.800   1.486   5.414  2.4562  1.8141  1.7480
  182DOPC  H14S22356   1.954   1.396   5.440 -0.7239 -1.5561  0.2984
  182DOPC  C21522357   1.782   1.263   5.410  0.7977  0.5408 -0.4772
  182DOPC  H15R22358   1.847   1.185   5.363 -1.0925 -3.5726  3.0694
  182DOPC  H15S22359   1.693   1.270   5.345 -0.4681  1.6920  1.2951
  182DOPC  C21622360   1.772   1.220   5.552 -0.2405  0.1103  0.5435
  182DOPC  H16R22361   1.871   1.238   5.598 -0.1886 -1.4512  1.0911
  182DOPC  H16S22362   1.750   1.111   5.547 -0.4417  0.1306  0.9370
  182DOPC  C21722363   1.672   1.304   5.630 -0.0001  0.4319  0.0893
  182DOPC  H17R22364   1.575   1.288   5.579  0.2507 -1.6270  0.1664
  182DOPC  H17S22365   1.689   1.413   5.622 -1.9755  0.9429  1.9231
  182DOPC  C21822366   1.659   1.282   5.777  0.3425  0.3886 -0.0225
  182DOPC  H18R22367   1.576   1.334   5.830  1.0285 -1.9325  3.7279
  182DOPC  H18S22368   1.756   1.314   5.820  0.8974 -1.3187  0.0682
  182DOPC  H18T22369   1.652   1.171   5.789 -1.6420  0.4034 -0.6137
  182DOPC   C3322370   2.126   1.179   3.865 -0.7639 -0.1994  0.1065
  182DOPC   H3X22371   2.147   1.268   3.928  0.6302 -0.3952 -0.0543
  182DOPC   H3Y22372   2.203   1.106   3.897 -0.3138  0.2943  0.1625
  182DOPC   C3422373   1.984   1.134   3.910 -0.4695  0.5891 -0.0160
  182DOPC   H4X22374   1.962   1.039   3.859  0.8911  0.9196 -1.2834
  182DOPC   H4Y22375   1.907   1.208   3.881  0.4051  1.8616  0.7854
  182DOPC   C3522376   1.982   1.116   4.066 -0.1074 -0.2904 -0.0477
  182DOPC   H5X22377   1.874   1.107   4.088 -0.6289 -0.8049 -2.5392
  182DOPC   H5Y22378   1.998   1.215   4.115 -3.1890  1.2810 -1.9243
  182DOPC   C3622379   2.061   1.001   4.128  0.0501  0.2108 -0.0407
  182DOPC   H6X22380   2.015   0.922   4.065 -0.8866  0.9048 -0.2558
  182DOPC   H6Y22381   2.166   1.008   4.093 -0.5709  0.3184 -2.0320
  182DOPC   C3722382   2.049   0.990   4.280  0.2351  0.7646  0.2609
  182DOPC   H7X22383   2.069   1.080   4.342  0.8192  0.7299  0.1248
  182DOPC   H7Y22384   1.939   0.975   4.289  0.2693  0.6048  0.4285
  182DOPC   C3822385   2.124   0.867   4.347 -0.0968  0.6099  0.1671
  182DOPC   H8X22386   2.111   0.882   4.456 -0.3766  0.6849  0.1245
  182DOPC   H8Y22387   2.230   0.868   4.315 -0.3351  0.6393 -0.6478
  182DOPC   C3922388   2.065   0.733   4.308  0.5975 -0.2244 -0.3645
  182DOPC   H9X22389   2.068   0.713   4.200 -0.9619 -0.4004 -0.3887
  182DOPC  C31022390   1.993   0.643   4.382 -0.1455  0.6225 -0.5518
  182DOPC  H10X22391   1.965   0.546   4.337  1.1226  0.2250 -0.5156
  182DOPC  C31122392   1.961   0.656   4.530  0.2700 -0.9535 -0.4626
  182DOPC  H11X22393   1.863   0.606   4.548  0.3435 -0.7732  0.4740
  182DOPC  H11Y22394   1.948   0.756   4.576  1.1099 -2.0313  2.3153
  182DOPC  C31222395   2.063   0.589   4.616  0.3181 -0.0313  0.2037
  182DOPC  H12X22396   2.158   0.646   4.617  0.0620  0.4053  0.0414
  182DOPC  H12Y22397   2.094   0.492   4.572  0.6118 -0.3804  1.1534
  182DOPC  C31322398   2.023   0.563   4.762  0.5518  0.3152  0.0883
  182DOPC  H13X22399   1.950   0.479   4.769  0.9330 -0.1161 -0.9188
  182DOPC  H13Y22400   2.112   0.531   4.819  1.8956  0.1470 -2.0294
  182DOPC  C31422401   1.957   0.682   4.838  0.8687 -0.0883  0.2837
  182DOPC  H14X22402   2.023   0.770   4.824 -0.1053  0.5811 -0.1892
  182DOPC  H14Y22403   1.859   0.715   4.797  0.2515 -1.7712  0.3058
  182DOPC  C31522404   1.931   0.657   4.991 -0.3815  0.5976  0.6847
  182DOPC  H15X22405   1.992   0.572   5.027  0.4320  0.7243 -0.3406
  182DOPC  H15Y22406   1.827   0.617   4.989  0.0289 -0.8266  3.1758
  182DOPC  C31622407   1.955   0.771   5.084  0.2495  0.0295  0.1139
  182DOPC  H16X22408   2.061   0.781   5.116  0.0512 -0.7981  1.0814
  182DOPC  H16Y22409   1.938   0.864   5.025  0.0985  0.3337  0.6249
  182DOPC  C31722410   1.864   0.776   5.209 -0.1944 -0.2686  0.2265
  182DOPC  H17X22411   1.756   0.764   5.185 -0.5752  1.0691  1.1597
  182DOPC  H17Y22412   1.885   0.693   5.279  2.4457 -0.5827 -0.7936
  182DOPC  C31822413   1.868   0.912   5.287  0.5362 -0.0767  0.1827
  182DOPC  H18X22414   1.827   0.979   5.208 -1.2826 -0.3119  0.8823
  182DOPC  H18Y22415   1.797   0.914   5.373 -1.0132  0.5689 -1.0712
  182DOPC  H18Z22416   1.974   0.937   5.310  1.4877 -2.1661 -1.5912
  183DOPC     N22417   0.190   6.588   3.201 -0.2693 -0.6518  0.3117
  183DOPC   C1222418   0.147   6.497   3.313 -0.2126 -0.2345  0.1594
  183DOPC  H12A22419   0.222   6.420   3.321 -1.2568 -1.1479  1.7750
  183DOPC  H12B22420   0.060   6.447   3.272  0.1489  0.5906 -1.7219
  183DOPC   C1322421   0.306   6.668   3.247 -0.6475  0.2610 -0.2072
  183DOPC  H13A22422   0.287   6.715   3.343  1.9808  0.3458  0.3320
  183DOPC  H13B22423   0.389   6.600   3.253 -0.9623 -0.3057 -1.7407
  183DOPC  H13C22424   0.329   6.749   3.180  0.0846 -0.8797 -1.3651
  183DOPC   C1422425   0.088   6.692   3.162 -0.1797  0.1026 -0.1583
  183DOPC  H14A22426   0.097   6.784   3.218  1.8666  1.3432 -2.3336
  183DOPC  H14B22427   0.118   6.730   3.065  0.7121 -0.2012 -0.0097
  183DOPC  H14C22428  -0.013   6.657   3.150  0.4354 -1.4253 -1.0268
  183DOPC   C1522429   0.220   6.504   3.082  0.1020  0.1133  0.9162
  183DOPC  H15A22430   0.260   6.560   2.999 -0.6061 -1.7369 -0.7634
  183DOPC  H15B22431   0.129   6.456   3.051  0.1594  0.2448  0.5368
  183DOPC  H15C22432   0.287   6.422   3.104 -0.0081 -0.0718  0.5650
  183DOPC   C1122433   0.115   6.561   3.450 -0.0025 -0.4008 -0.9926
  183DOPC  H11A22434   0.041   6.643   3.435  1.1702  1.0728  0.7955
  183DOPC  H11B22435   0.056   6.488   3.509  0.9984  0.8161  1.7450
  183DOPC     P22436   0.328   6.504   3.590  0.1630 -0.4596  0.1800
  183DOPC   O1322437   0.462   6.555   3.555  0.5995 -0.1139 -0.1299
  183DOPC   O1422438   0.293   6.369   3.534 -0.2076  0.3275 -0.3984
  183DOPC   O1222439   0.226   6.606   3.525  0.1243 -0.0892 -0.9906
  183DOPC   O1122440   0.304   6.512   3.745 -0.3888  0.4360 -0.3875
  183DOPC    C122441   0.272   6.623   3.820  0.0601 -0.6329  0.3501
  183DOPC    HA22442   0.167   6.660   3.814  0.2554 -0.2393 -0.9070
  183DOPC    HB22443   0.337   6.710   3.797 -1.5577  0.8917  1.2581
  183DOPC    C222444   0.298   6.601   3.975  0.6692  1.0691  0.6971
  183DOPC    HS22445   0.226   6.673   4.020  0.2908  1.7306 -0.8911
  183DOPC   O2122446   0.440   6.622   3.998 -0.4037  0.2192  0.3528
  183DOPC   C2122447   0.462   6.712   4.091 -0.5976  0.1196 -0.3810
  183DOPC   O2222448   0.380   6.783   4.150 -0.2652  0.6706 -0.3902
  183DOPC   C2222449   0.607   6.708   4.108 -0.2262 -0.2013  0.6697
  183DOPC   H2R22450   0.651   6.769   4.026  0.9379  0.0283  1.4473
  183DOPC   H2S22451   0.646   6.604   4.096 -0.5205 -0.0846 -1.9297
  183DOPC    C322452   0.255   6.449   4.009  0.2898  0.0318 -0.1174
  183DOPC    HX22453   0.324   6.369   3.972  1.0782  0.2828  0.7636
  183DOPC    HY22454   0.159   6.428   3.958  0.5022  1.8507 -1.3608
  183DOPC   O3122455   0.234   6.437   4.152 -0.2123  0.1697  0.2799
  183DOPC   C3122456   0.347   6.411   4.216  0.0552 -0.1733  0.9771
  183DOPC   O3222457   0.459   6.394   4.164 -0.0821 -0.3191 -0.1689
  183DOPC   C3222458   0.315   6.398   4.371 -0.1323 -0.2594  0.0047
  183DOPC   H2X22459   0.287   6.495   4.417  2.3695  0.2874  0.5134
  183DOPC   H2Y22460   0.231   6.326   4.372 -0.4205  0.0123 -1.5541
  183DOPC   C2322461   0.663   6.766   4.240  0.1345  0.2601  0.1099
  183DOPC   H3R22462   0.612   6.859   4.270  1.0025  0.1193  2.1251
  183DOPC   H3S22463   0.769   6.797   4.226  0.5360 -1.2339 -0.3770
  183DOPC   C2422464   0.651   6.675   4.364 -0.5134  0.2754 -0.1161
  183DOPC   H4R22465   0.715   6.588   4.337  1.5304  1.9680 -1.0089
  183DOPC   H4S22466   0.542   6.654   4.371 -0.6079 -0.2968 -2.3407
  183DOPC   C2522467   0.707   6.730   4.491  0.1782  0.4176  0.7458
  183DOPC   H5R22468   0.672   6.836   4.492 -1.2244 -0.0240  1.9150
  183DOPC   H5S22469   0.818   6.729   4.495  0.2316 -1.7845  0.0325
  183DOPC   C2622470   0.674   6.640   4.617 -0.2203  0.0356  0.7627
  183DOPC   H6R22471   0.756   6.566   4.620 -1.1966 -1.0955  0.2511
  183DOPC   H6S22472   0.580   6.587   4.590 -0.3052 -0.2177  1.5303
  183DOPC   C2722473   0.659   6.717   4.745  0.1783 -0.0432  0.3393
  183DOPC   H7R22474   0.578   6.792   4.731  1.0119  0.7199 -0.5536
  183DOPC   H7S22475   0.755   6.770   4.765  0.9361 -1.6040  1.0553
  183DOPC   C2822476   0.608   6.624   4.859 -0.6200 -0.1478  0.2210
  183DOPC   H8R22477   0.506   6.584   4.842 -0.0411 -0.1895 -4.1016
  183DOPC   H8S22478   0.595   6.684   4.952 -0.1003  0.8998 -0.3657
  183DOPC   C2922479   0.719   6.519   4.888  0.1012  0.5077  0.0371
  183DOPC   H9R22480   0.718   6.428   4.828 -0.4740  1.4587 -1.4539
  183DOPC  C21022481   0.821   6.530   4.979  0.2839 -0.0482 -0.1275
  183DOPC  H10R22482   0.893   6.449   4.999 -0.3817 -0.6632 -0.1799
  183DOPC  C21122483   0.833   6.649   5.074 -0.2066  0.1978 -0.6831
  183DOPC  H11R22484   0.763   6.733   5.056  0.9709  1.4819  0.5291
  183DOPC  H11S22485   0.936   6.690   5.067  0.7905 -2.1063 -0.3259
  183DOPC  C21222486   0.815   6.594   5.220 -0.2766  0.2706 -0.1147
  183DOPC  H12R22487   0.834   6.680   5.287  2.0678 -0.6695  0.5285
  183DOPC  H12S22488   0.896   6.519   5.237 -0.7609 -0.2789 -0.1873
  183DOPC  C21322489   0.672   6.533   5.246  0.6153  0.1187  0.2474
  183DOPC  H13R22490   0.666   6.444   5.179  0.8705 -0.0334  0.4248
  183DOPC  H13S22491   0.585   6.596   5.215 -0.0109 -1.0258 -0.3761
  183DOPC  C21422492   0.643   6.479   5.385  0.8100  0.1355  0.4596
  183DOPC  H14R22493   0.718   6.403   5.412 -0.3172 -1.5836 -1.0013
  183DOPC  H14S22494   0.546   6.426   5.395  1.9203 -2.2485 -0.6802
  183DOPC  C21522495   0.637   6.592   5.487 -0.7038  0.4352  0.2595
  183DOPC  H15R22496   0.577   6.678   5.450 -0.9055  0.9170  1.6268
  183DOPC  H15S22497   0.742   6.627   5.492  0.4282 -1.7340 -3.8072
  183DOPC  C21622498   0.574   6.550   5.618 -0.2926  0.1794 -1.0862
  183DOPC  H16R22499   0.601   6.447   5.650 -1.3630  0.2933  0.2486
  183DOPC  H16S22500   0.464   6.550   5.603 -0.4630  2.0288 -0.2050
  183DOPC  C21722501   0.601   6.649   5.729 -0.0112  0.0707  0.4301
  183DOPC  H17R22502   0.709   6.672   5.718 -0.0327 -0.5990 -1.4801
  183DOPC  H17S22503   0.587   6.614   5.834 -0.1328  1.5948  0.9423
  183DOPC  C21822504   0.527   6.784   5.708 -0.8896  0.1071 -0.1281
  183DOPC  H18R22505   0.543   6.852   5.794  1.4316 -0.2966 -0.1821
  183DOPC  H18S22506   0.419   6.765   5.691 -1.4797  2.5983  0.4488
  183DOPC  H18T22507   0.566   6.839   5.619  1.7541  0.2411  1.0330
  183DOPC   C3322508   0.428   6.327   4.458 -0.2732 -0.6209  0.3301
  183DOPC   H3X22509   0.523   6.360   4.411 -1.5718  1.8984 -0.7148
  183DOPC   H3Y22510   0.409   6.219   4.447 -1.2811 -0.4848  0.6773
  183DOPC   C3422511   0.422   6.361   4.608 -0.3576  0.6483  0.2249
  183DOPC   H4X22512   0.416   6.471   4.616 -3.9630  0.4928  1.4191
  183DOPC   H4Y22513   0.513   6.314   4.652  0.1961 -0.9986 -2.4469
  183DOPC   C3522514   0.300   6.286   4.670  0.4759 -0.0683 -0.1908
  183DOPC   H5X22515   0.297   6.181   4.635  0.2453  0.5093 -1.9815
  183DOPC   H5Y22516   0.203   6.321   4.629  0.5018  1.2200  0.7669
  183DOPC   C3622517   0.289   6.297   4.824  0.4071 -0.1645 -0.9343
  183DOPC   H6X22518   0.275   6.402   4.857 -0.1268 -0.9471  1.4908
  183DOPC   H6Y22519   0.204   6.233   4.854  0.1695  0.6849  0.2829
  183DOPC   C3722520   0.412   6.260   4.906 -0.1269 -0.1733 -0.0618
  183DOPC   H7X22521   0.442   6.156   4.880  0.2078 -0.1816  0.3470
  183DOPC   H7Y22522   0.498   6.330   4.908 -0.1479 -0.1536  1.2948
  183DOPC   C3822523   0.388   6.257   5.060  0.1989 -0.4341  0.8056
  183DOPC   H8X22524   0.358   6.356   5.099  0.0633  0.7033 -1.9220
  183DOPC   H8Y22525   0.487   6.241   5.105  1.5703  0.3924 -1.7026
  183DOPC   C3922526   0.283   6.158   5.103  0.1402 -1.4691 -0.3109
  183DOPC   H9X22527   0.300   6.063   5.050 -0.1948 -1.3683 -0.6012
  183DOPC  C31022528   0.176   6.164   5.185 -0.0152 -0.1253  0.2948
  183DOPC  H10X22529   0.111   6.076   5.195 -0.8264  0.6123  1.7109
  183DOPC  C31122530   0.119   6.278   5.273 -0.0905  1.0199  0.4662
  183DOPC  H11X22531   0.024   6.318   5.232  0.6348  2.2504 -0.1076
  183DOPC  H11Y22532   0.194   6.360   5.274  1.4422 -0.3380  0.8870
  183DOPC  C31222533   0.095   6.238   5.420  0.2830 -0.1852  0.1045
  183DOPC  H12X22534   0.048   6.137   5.421  0.9318 -0.5002 -0.4471
  183DOPC  H12Y22535   0.028   6.308   5.475  0.0620 -1.1612  1.1298
  183DOPC  C31322536   0.221   6.234   5.513 -0.3619  0.3069 -0.0132
  183DOPC  H13X22537   0.274   6.151   5.463 -5.0068 -2.3590 -1.1473
  183DOPC  H13Y22538   0.279   6.328   5.503  0.0826  0.5048  3.3033
  183DOPC  C31422539   0.203   6.210   5.658  0.4607  0.3499 -0.4937
  183DOPC  H14X22540   0.176   6.104   5.679  2.1937 -0.1296 -0.4965
  183DOPC  H14Y22541   0.292   6.232   5.721  0.5217 -1.1022 -0.0178
  183DOPC  C31522542   0.089   6.293   5.726  0.1574 -0.1639 -0.3014
  183DOPC  H15X22543  -0.004   6.249   5.685 -0.6824 -1.5175  2.7492
  183DOPC  H15Y22544   0.108   6.397   5.694 -0.0048 -0.1898 -0.4797
  183DOPC  C31622545   0.090   6.281   5.879  0.4182  0.1427 -0.0296
  183DOPC  H16X22546   0.085   6.177   5.915 -0.5956  0.6568  1.4034
  183DOPC  H16Y22547   0.182   6.327   5.922  0.8639 -0.7593 -0.0055
  183DOPC  C31722548  -0.030   6.356   5.942 -0.2117  0.0182 -0.2344
  183DOPC  H17X22549   0.004   6.380   6.045  2.0063 -0.0896 -0.8790
  183DOPC  H17Y22550  -0.034   6.451   5.885 -1.2497  1.0226  1.4709
  183DOPC  C31822551  -0.167   6.290   5.933 -0.2930  0.7101 -0.2591
  183DOPC  H18X22552  -0.173   6.189   5.977 -1.1189  0.4055 -1.0172
  183DOPC  H18Y22553  -0.233   6.363   5.985  2.7814  2.6883  1.1780
  183DOPC  H18Z22554  -0.203   6.280   5.828 -0.9145  0.0564  0.0113
  184DOPC     N22555   4.230   0.131   4.020 -0.4182 -0.8043 -0.6359
  184DOPC   C1222556   4.106   0.173   4.102  0.2683  0.0780  0.2174
  184DOPC  H12A22557   4.035   0.092   4.094  1.3479 -0.8076 -0.7542
  184DOPC  H12B22558   4.067   0.271   4.078  1.0898  1.0283  2.4372
  184DOPC   C1322559   4.288   0.001   4.072 -0.1628  0.3577  0.5470
  184DOPC  H13A22560   4.385  -0.020   4.030 -0.7013 -0.3405 -0.4012
  184DOPC  H13B22561   4.302   0.017   4.177  3.0685 -0.7313  0.3820
  184DOPC  H13C22562   4.229  -0.088   4.053  0.8755  0.1833 -2.4448
  184DOPC   C1422563   4.339   0.239   4.033 -0.1018  0.3699  0.4670
  184DOPC  H14A22564   4.319   0.326   3.971 -1.0992  0.0535  0.3200
  184DOPC  H14B22565   4.344   0.281   4.132 -0.1929  0.2590  0.5183
  184DOPC  H14C22566   4.435   0.200   4.003 -0.9925 -1.8909  0.3974
  184DOPC   C1522567   4.186   0.115   3.882 -0.5329 -0.4883  0.7775
  184DOPC  H15A22568   4.267   0.099   3.812 -0.7679 -1.0088  0.6230
  184DOPC  H15B22569   4.136   0.204   3.846 -0.0426 -1.0176 -1.3765
  184DOPC  H15C22570   4.118   0.031   3.879 -0.5401 -0.4471 -0.6441
  184DOPC   C1122571   4.134   0.192   4.257  0.2429  0.8652 -0.1186
  184DOPC  H11A22572   4.031   0.197   4.299  0.1951 -2.1268  0.3916
  184DOPC  H11B22573   4.184   0.097   4.286 -2.3883  0.0856  2.3758
  184DOPC     P22574   4.158   0.450   4.289  0.2803  0.3202 -0.2815
  184DOPC   O1322575   4.049   0.466   4.191 -0.7167 -0.5492  0.2408
  184DOPC   O1422576   4.282   0.523   4.266 -0.0439 -0.1109  0.0770
  184DOPC   O1222577   4.215   0.303   4.270  0.1799 -0.2581  0.3428
  184DOPC   O1122578   4.108   0.478   4.436  0.1968  0.0719 -0.3580
  184DOPC    C122579   4.158   0.396   4.542  0.2192  0.2195  0.1541
  184DOPC    HA22580   4.260   0.356   4.525 -0.0652  0.1182 -1.5185
  184DOPC    HB22581   4.092   0.308   4.552  0.0478  0.4637  1.3877
  184DOPC    C222582   4.148   0.472   4.682 -0.4249  0.4637  0.3338
  184DOPC    HS22583   4.176   0.401   4.762 -0.8018 -0.2403 -0.1456
  184DOPC   O2122584   4.024   0.537   4.710 -0.7641  0.3252  0.1389
  184DOPC   C2122585   3.927   0.459   4.750  0.1663  0.0708 -1.1305
  184DOPC   O2222586   3.934   0.336   4.766 -1.1467 -0.3388  0.2568
  184DOPC   C2222587   3.813   0.548   4.788  0.6146 -0.5459 -0.0196
  184DOPC   H2R22588   3.724   0.483   4.809  1.6825 -1.7962  0.7920
  184DOPC   H2S22589   3.789   0.610   4.699  0.4746  1.3945  1.3005
  184DOPC    C322590   4.255   0.575   4.679  0.3148 -0.9592 -0.6725
  184DOPC    HX22591   4.219   0.650   4.605 -2.6668 -1.3399  0.2200
  184DOPC    HY22592   4.348   0.535   4.634  0.0983 -0.3063 -1.7252
  184DOPC   O3122593   4.284   0.636   4.811 -0.1209 -0.0454  0.1894
  184DOPC   C3122594   4.237   0.758   4.831  0.1881 -0.5574  0.0282
  184DOPC   O3222595   4.173   0.827   4.752 -0.4164 -0.2761 -0.1326
  184DOPC   C3222596   4.290   0.811   4.958  0.0241 -0.9226 -0.5136
  184DOPC   H2X22597   4.397   0.783   4.948  0.5169  0.3556  0.8630
  184DOPC   H2Y22598   4.291   0.922   4.951  0.0332 -0.8645  0.3196
  184DOPC   C2322599   3.845   0.618   4.923 -0.3979  0.4867 -0.6349
  184DOPC   H3R22600   3.765   0.694   4.941 -0.2216  0.2288  1.4480
  184DOPC   H3S22601   3.941   0.672   4.911  0.6817 -1.3156 -0.4313
  184DOPC   C2422602   3.843   0.512   5.039  0.5248  0.1683  0.2065
  184DOPC   H4R22603   3.908   0.424   5.020 -0.8972 -1.3636  2.0588
  184DOPC   H4S22604   3.738   0.481   5.056  0.3360  0.7296  0.0968
  184DOPC   C2522605   3.893   0.585   5.166  0.0249 -0.7822 -0.3169
  184DOPC   H5R22606   3.829   0.672   5.191  0.0144 -0.7452 -0.4726
  184DOPC   H5S22607   3.999   0.616   5.158  0.1057 -0.5499  1.3216
  184DOPC   C2622608   3.877   0.495   5.286 -0.2489  0.1202  0.1142
  184DOPC   H6R22609   3.958   0.418   5.280 -0.9660 -0.5447 -4.2384
  184DOPC   H6S22610   3.781   0.440   5.282 -0.8786  0.9978  2.0641
  184DOPC   C2722611   3.895   0.577   5.416 -1.0505 -0.1280 -0.5383
  184DOPC   H7R22612   3.828   0.665   5.407 -0.7373  0.4837  2.1008
  184DOPC   H7S22613   4.001   0.612   5.413 -1.2001  1.3444  3.8440
  184DOPC   C2822614   3.862   0.506   5.549  0.6234  0.0116 -0.2577
  184DOPC   H8R22615   3.768   0.450   5.528 -0.5463  1.7042  0.2068
  184DOPC   H8S22616   3.841   0.576   5.633  1.2951 -1.0684  0.8486
  184DOPC   C2922617   3.961   0.397   5.580  0.4453 -0.8309  0.2864
  184DOPC   H9R22618   4.028   0.370   5.497 -0.5068  0.7829 -1.0704
  184DOPC  C21022619   3.980   0.343   5.699 -0.2943  0.8337 -0.4216
  184DOPC  H10R22620   4.063   0.273   5.718 -1.7668 -0.4018  1.8930
  184DOPC  C21122621   3.898   0.393   5.821 -0.1847  0.5679 -0.3841
  184DOPC  H11R22622   3.895   0.311   5.895 -1.8856  0.5854 -0.4084
  184DOPC  H11S22623   3.791   0.420   5.804 -0.5076 -0.8866 -0.7809
  184DOPC  C21222624   3.960   0.514   5.893  0.0941 -0.4982  0.1703
  184DOPC  H12R22625   3.985   0.595   5.822  2.4993 -0.0653  1.4239
  184DOPC  H12S22626   4.057   0.488   5.940 -0.4273  1.0356  2.2378
  184DOPC  C21322627   3.876   0.559   6.005 -0.5142  0.1635  0.0872
  184DOPC  H13R22628   3.951   0.577   6.084  1.7347 -3.1920 -1.0227
  184DOPC  H13S22629   3.822   0.471   6.047 -0.8763 -0.4238 -1.5175
  184DOPC  C21422630   3.794   0.687   5.966  0.4638  0.1623 -0.2590
  184DOPC  H14R22631   3.722   0.647   5.891 -1.1144  0.9198  0.7800
  184DOPC  H14S22632   3.861   0.764   5.924  0.6466  0.1410 -0.0098
  184DOPC  C21522633   3.726   0.749   6.095 -0.6503  0.3260 -0.5992
  184DOPC  H15R22634   3.796   0.811   6.156 -3.3225 -1.5280  5.0634
  184DOPC  H15S22635   3.707   0.670   6.170 -0.6875  1.0563  0.1786
  184DOPC  C21622636   3.603   0.827   6.061 -0.1500 -0.4142  0.4996
  184DOPC  H16R22637   3.524   0.764   6.014 -0.1011  0.9688 -1.5839
  184DOPC  H16S22638   3.624   0.904   5.984 -0.2052 -1.6101 -0.7652
  184DOPC  C21722639   3.541   0.891   6.185 -0.0942  0.3696 -0.2192
  184DOPC  H17R22640   3.590   0.984   6.222  3.6069 -1.5666  0.1689
  184DOPC  H17S22641   3.550   0.817   6.267  0.2685 -2.2633 -2.5078
  184DOPC  C21822642   3.387   0.918   6.171  0.5217  0.2019  0.2927
  184DOPC  H18R22643   3.350   0.957   6.268  0.9763  2.0222 -0.2355
  184DOPC  H18S22644   3.331   0.823   6.152 -0.3449  0.3908  1.6997
  184DOPC  H18T22645   3.366   1.004   6.105 -0.8112  0.5085  1.0729
  184DOPC   C3322646   4.227   0.751   5.086 -0.6799 -0.0919 -0.3540
  184DOPC   H3X22647   4.205   0.644   5.067  0.2559 -0.3440 -0.1029
  184DOPC   H3Y22648   4.134   0.806   5.110  0.7776  2.4164 -0.1085
  184DOPC   C3422649   4.323   0.769   5.198 -0.2524  0.5930 -0.3899
  184DOPC   H4X22650   4.345   0.877   5.214  0.0172  0.5828 -0.6921
  184DOPC   H4Y22651   4.419   0.723   5.165  0.1646  2.1328 -1.4357
  184DOPC   C3522652   4.251   0.720   5.325 -1.0197  0.0048 -0.2501
  184DOPC   H5X22653   4.210   0.621   5.296  0.5210 -0.2111 -1.8525
  184DOPC   H5Y22654   4.174   0.789   5.364 -1.1985 -1.5296  2.3448
  184DOPC   C3622655   4.339   0.693   5.455 -0.4701  0.0093 -0.1413
  184DOPC   H6X22656   4.426   0.628   5.435  0.6711  1.6922 -0.8923
  184DOPC   H6Y22657   4.393   0.788   5.472  0.8960 -0.4074 -1.8581
  184DOPC   C3722658   4.252   0.650   5.578 -0.2956 -0.0935  0.6005
  184DOPC   H7X22659   4.155   0.703   5.564 -1.3047 -1.9942  0.0878
  184DOPC   H7Y22660   4.217   0.548   5.553  0.5606 -0.7889  2.0793
  184DOPC   C3822661   4.316   0.666   5.719  0.5623 -0.4504  0.0335
  184DOPC   H8X22662   4.247   0.662   5.806 -0.2183  2.3911 -0.3441
  184DOPC   H8Y22663   4.342   0.774   5.714 -2.5785  0.4156 -0.2256
  184DOPC   C3922664   4.425   0.558   5.733  0.0230  0.7351  0.0853
  184DOPC   H9X22665   4.493   0.546   5.647  0.2477  1.6647  0.1259
  184DOPC  C31022666   4.451   0.469   5.835  0.2245  0.2987  0.4113
  184DOPC  H10X22667   4.546   0.414   5.833 -0.1333 -0.3317  0.3972
  184DOPC  C31122668   4.382   0.454   5.966  0.3132 -0.1025  0.3902
  184DOPC  H11X22669   4.391   0.345   5.987 -1.1548 -0.3227  0.0036
  184DOPC  H11Y22670   4.272   0.465   5.955  0.2700 -0.8377 -0.0109
  184DOPC  C31222671   4.433   0.536   6.086  0.1097 -0.2669 -0.0140
  184DOPC  H12X22672   4.542   0.514   6.100  0.0260  0.2019  1.5604
  184DOPC  H12Y22673   4.382   0.496   6.176 -0.0327 -4.7087 -1.8187
  184DOPC  C31322674   4.391   0.685   6.078  0.4239  0.5334 -0.4044
  184DOPC  H13X22675   4.436   0.722   5.983  0.4807  0.8299 -0.2646
  184DOPC  H13Y22676   4.282   0.687   6.054  0.8074  0.4138 -2.3394
  184DOPC  C31422677   4.419   0.763   6.203 -0.0210 -0.1806 -0.3868
  184DOPC  H14X22678   4.384   0.866   6.181 -0.1897  0.3016  1.8876
  184DOPC  H14Y22679   4.355   0.729   6.287  1.6458 -1.0384  0.5814
  184DOPC  C31522680   4.568   0.772   6.249 -0.1609  0.5899 -0.4213
  184DOPC  H15X22681   4.604   0.669   6.271 -0.2501  0.2166 -1.9075
  184DOPC  H15Y22682   4.565   0.826   6.346  0.2153 -3.6105  2.1963
  184DOPC  C31622683   4.667   0.819   6.139  0.0425  0.0895 -0.6923
  184DOPC  H16X22684   4.769   0.848   6.172  0.8908 -1.8520 -1.4307
  184DOPC  H16Y22685   4.665   0.747   6.054  1.2816  0.9909 -1.5131
  184DOPC  C31722686   4.621   0.953   6.077  0.2216  0.5372  0.8551
  184DOPC  H17X22687   4.530   0.921   6.022  0.4433 -0.8722  1.2578
  184DOPC  H17Y22688   4.591   1.024   6.157  1.7814  1.9746  0.2302
  184DOPC  C31822689   4.714   1.013   5.974  0.3420  0.3491 -0.0235
  184DOPC  H18X22690   4.814   1.049   6.008  0.1421  1.8501 -0.9242
  184DOPC  H18Y22691   4.741   0.945   5.890  0.6365  0.2468  0.1538
  184DOPC  H18Z22692   4.655   1.095   5.926 -1.9776 -1.2350 -0.0337
  185DOPC     N22693   0.602   5.000   3.463  0.4015  0.5045 -0.3981
  185DOPC   C1222694   0.525   5.016   3.592 -0.4429  0.2149  0.0034
  185DOPC  H12A22695   0.473   4.925   3.619 -1.7824  0.6914 -0.8710
  185DOPC  H12B22696   0.447   5.087   3.568  0.4389  0.1736 -3.3861
  185DOPC   C1322697   0.655   5.127   3.414  0.2596  0.2498 -0.3146
  185DOPC  H13A22698   0.723   5.097   3.336 -1.1255  0.6075 -1.7081
  185DOPC  H13B22699   0.582   5.181   3.355  1.3114  1.2287 -0.7463
  185DOPC  H13C22700   0.707   5.177   3.494 -3.4360 -0.1402  2.6598
  185DOPC   C1422701   0.523   4.938   3.351 -0.1099 -0.0797  0.3242
  185DOPC  H14A22702   0.508   4.831   3.352 -0.3560 -0.1111 -1.6225
  185DOPC  H14B22703   0.428   4.989   3.344 -0.3717 -0.4707  0.9386
  185DOPC  H14C22704   0.586   4.944   3.263  0.3465 -0.8428  0.5878
  185DOPC   C1522705   0.720   4.915   3.479 -0.8900  0.4953 -0.7436
  185DOPC  H15A22706   0.783   4.890   3.396 -0.5259  0.9496 -0.6089
  185DOPC  H15B22707   0.692   4.826   3.534  0.4697 -0.0439 -0.8873
  185DOPC  H15C22708   0.791   4.960   3.547 -1.4611  1.8363 -0.9989
  185DOPC   C1122709   0.612   5.070   3.711  0.1146  0.1485  0.2971
  185DOPC  H11A22710   0.555   5.063   3.806  1.6912 -1.2729  1.1979
  185DOPC  H11B22711   0.697   5.000   3.729 -0.4108 -0.2010  1.5570
  185DOPC     P22712   0.621   5.331   3.769 -0.0930 -0.0182  0.4946
  185DOPC   O1322713   0.475   5.364   3.746  0.1237  0.0501 -0.3098
  185DOPC   O1422714   0.720   5.441   3.743 -0.6793  0.0010 -0.5262
  185DOPC   O1222715   0.659   5.203   3.689 -0.5879  0.9272  0.0477
  185DOPC   O1122716   0.622   5.277   3.919 -0.2102  0.8521  0.0324
  185DOPC    C122717   0.738   5.261   4.001  0.3075 -0.3647 -0.5278
  185DOPC    HA22718   0.707   5.290   4.103 -0.6654 -0.0558 -0.8921
  185DOPC    HB22719   0.823   5.328   3.975 -1.0993  1.4242 -0.7344
  185DOPC    C222720   0.782   5.114   4.009  0.6388  0.0712  0.5147
  185DOPC    HS22721   0.790   5.072   3.906 -0.3052  0.2690  0.3551
  185DOPC   O2122722   0.688   5.040   4.088 -0.0873 -0.4157  0.2240
  185DOPC   C2122723   0.704   4.915   4.092 -0.1240  0.0188 -0.0904
  185DOPC   O2222724   0.777   4.846   4.025 -0.8889  0.1958 -0.7411
  185DOPC   C2222725   0.608   4.858   4.186  0.1094 -0.0551  0.2859
  185DOPC   H2R22726   0.655   4.767   4.229  1.6305  1.1790  1.3821
  185DOPC   H2S22727   0.518   4.834   4.126  0.1353 -1.6146  0.8275
  185DOPC    C322728   0.919   5.095   4.076  0.0140  0.3697 -0.2504
  185DOPC    HX22729   0.987   5.150   4.007 -2.1192  2.5689 -0.7448
  185DOPC    HY22730   0.944   4.988   4.094 -1.9133 -0.1266 -0.2434
  185DOPC   O3122731   0.924   5.175   4.201  0.6432 -0.2856  0.4909
  185DOPC   C3122732   0.910   5.111   4.316  0.7108  0.5713  0.4140
  185DOPC   O3222733   0.916   4.987   4.328 -0.5104  0.3765  0.0462
  185DOPC   C3222734   0.848   5.207   4.416  0.5013 -0.1554  0.2360
  185DOPC   H2X22735   0.883   5.310   4.393 -1.7239  0.1597 -2.2473
  185DOPC   H2Y22736   0.740   5.205   4.391  0.7106 -1.3159 -0.6905
  185DOPC   C2322737   0.566   4.945   4.303 -0.0252  0.2652  1.1227
  185DOPC   H3R22738   0.522   5.043   4.276  1.6731  0.9659  0.7241
  185DOPC   H3S22739   0.660   4.971   4.357  1.2174  3.2380 -2.1264
  185DOPC   C2422740   0.471   4.871   4.395  0.3236 -0.6023  0.3910
  185DOPC   H4R22741   0.532   4.788   4.437  1.5280 -0.5047 -1.0685
  185DOPC   H4S22742   0.387   4.828   4.337 -0.1815  2.4147 -1.2967
  185DOPC   C2522743   0.404   4.953   4.504  0.5688 -0.6761  0.0127
  185DOPC   H5R22744   0.356   5.049   4.475  0.2650 -0.7820  0.1657
  185DOPC   H5S22745   0.480   4.986   4.579  1.3304  0.9627 -1.4052
  185DOPC   C2622746   0.300   4.876   4.590  0.6798 -0.4550  0.0424
  185DOPC   H6R22747   0.361   4.802   4.647 -0.4840 -0.4644  1.3322
  185DOPC   H6S22748   0.227   4.821   4.527  0.7797 -0.8658  0.2791
  185DOPC   C2722749   0.228   4.969   4.689 -0.7592 -0.0044 -1.1155
  185DOPC   H7R22750   0.167   5.038   4.626 -0.4831  2.3734  1.0749
  185DOPC   H7S22751   0.299   5.023   4.755 -1.2623 -0.4919 -0.1513
  185DOPC   C2822752   0.138   4.890   4.794  0.1238  0.4900 -0.3799
  185DOPC   H8R22753   0.079   4.816   4.736  2.5284 -2.2207  0.3668
  185DOPC   H8S22754   0.070   4.972   4.824 -0.7795 -0.4450  0.1991
  185DOPC   C2922755   0.226   4.820   4.902  0.0255  0.2859  0.5526
  185DOPC   H9R22756   0.307   4.762   4.855 -1.5507 -0.3956 -1.4544
  185DOPC  C21022757   0.208   4.822   5.034  0.1673  0.2206  0.0048
  185DOPC  H10R22758   0.280   4.772   5.101 -1.5827 -1.5856  0.6398
  185DOPC  C21122759   0.106   4.914   5.108 -0.0270 -0.0216  0.0738
  185DOPC  H11R22760   0.046   4.983   5.045 -0.9132 -0.0841  0.8324
  185DOPC  H11S22761   0.173   4.977   5.171  0.5726 -2.2299  1.8019
  185DOPC  C21222762   0.003   4.854   5.209 -0.6001 -0.5227 -0.1238
  185DOPC  H12R22763   0.065   4.786   5.271 -0.0188 -0.9098 -1.0967
  185DOPC  H12S22764  -0.068   4.789   5.153 -0.2761 -1.2675  0.3174
  185DOPC  C21322765  -0.071   4.958   5.289 -0.1041 -0.1061 -0.2098
  185DOPC  H13R22766  -0.147   5.017   5.233  1.1784  2.1961  0.3766
  185DOPC  H13S22767   0.003   5.036   5.315  0.9991 -1.0131 -0.5314
  185DOPC  C21422768  -0.147   4.905   5.415  0.2892  0.5643  0.4641
  185DOPC  H14R22769  -0.085   4.827   5.465  1.0708  0.0905 -1.1796
  185DOPC  H14S22770  -0.220   4.840   5.364  2.0456 -0.9038 -0.2929
  185DOPC  C21522771  -0.209   5.012   5.502  0.3527  0.3835  0.7021
  185DOPC  H15R22772  -0.260   5.086   5.437  3.5268  1.5274 -0.6527
  185DOPC  H15S22773  -0.134   5.069   5.562  0.1186 -1.0471  2.4435
  185DOPC  C21622774  -0.312   4.954   5.604  0.3124  0.4127 -0.4184
  185DOPC  H16R22775  -0.390   4.906   5.541  1.1694 -1.3063 -0.2314
  185DOPC  H16S22776  -0.361   5.035   5.662  0.4400 -0.4763  0.9892
  185DOPC  C21722777  -0.255   4.860   5.706  0.1172  0.1187 -0.4882
  185DOPC  H17R22778  -0.174   4.923   5.750 -0.3184 -0.1264  0.7096
  185DOPC  H17S22779  -0.205   4.768   5.669  1.2652  0.8076 -0.7175
  185DOPC  C21822780  -0.358   4.818   5.815 -0.2529  0.5357 -0.1380
  185DOPC  H18R22781  -0.423   4.739   5.771  1.6425 -2.4057  1.9683
  185DOPC  H18S22782  -0.417   4.902   5.858 -1.5401 -0.5717  0.3739
  185DOPC  H18T22783  -0.313   4.759   5.898  2.2775 -0.6896 -2.2176
  185DOPC   C3322784   0.878   5.171   4.556 -0.5153  0.4073 -0.1815
  185DOPC   H3X22785   0.862   5.062   4.573  0.5366  0.4017  0.9361
  185DOPC   H3Y22786   0.809   5.228   4.622 -0.1801  1.4148 -0.6762
  185DOPC   C3422787   1.027   5.205   4.593  0.2815 -0.4763 -0.4321
  185DOPC   H4X22788   1.058   5.310   4.572 -0.6156 -0.3274 -1.0668
  185DOPC   H4Y22789   1.078   5.144   4.515  0.9999 -1.3448  0.6796
  185DOPC   C3522790   1.066   5.161   4.737 -0.5267 -0.3049  0.5608
  185DOPC   H5X22791   1.171   5.193   4.750 -0.1871 -0.2938 -1.8215
  185DOPC   H5Y22792   1.052   5.052   4.749 -1.1566 -0.3652 -0.5839
  185DOPC   C3622793   0.979   5.228   4.837  0.7217 -1.2533 -0.4707
  185DOPC   H6X22794   0.978   5.337   4.818 -1.6612 -1.6894 -3.6904
  185DOPC   H6Y22795   0.875   5.189   4.849  0.5914 -0.8088 -0.1427
  185DOPC   C3722796   1.018   5.199   4.981 -0.0326 -0.1301  0.1006
  185DOPC   H7X22797   1.032   5.090   4.995  0.2147 -0.0468  0.4867
  185DOPC   H7Y22798   1.121   5.232   5.007 -0.4594  1.0739  0.3599
  185DOPC   C3822799   0.923   5.244   5.087  0.1073 -0.0020 -0.2448
  185DOPC   H8X22800   0.966   5.202   5.180  1.4079  1.5820 -0.0753
  185DOPC   H8Y22801   0.821   5.205   5.069  0.5947 -0.8115 -1.3417
  185DOPC   C3922802   0.917   5.389   5.107 -0.1661 -0.2507  0.2105
  185DOPC   H9X22803   0.967   5.441   5.023 -0.3342 -3.4563 -2.0871
  185DOPC  C31022804   0.840   5.451   5.198 -0.3735 -0.3451  0.4029
  185DOPC  H10X22805   0.839   5.561   5.190 -0.2349 -0.0183  3.5220
  185DOPC  C31122806   0.777   5.392   5.318  0.0605 -0.2758  1.1296
  185DOPC  H11X22807   0.844   5.311   5.354  1.9922 -0.0872 -1.7165
  185DOPC  H11Y22808   0.678   5.343   5.307 -0.7724  1.4011  0.8459
  185DOPC  C31222809   0.769   5.500   5.426 -0.8325  0.6927  0.3462
  185DOPC  H12X22810   0.733   5.596   5.383  0.3189  0.2347 -1.7859
  185DOPC  H12Y22811   0.875   5.512   5.458 -1.0118  3.0712  0.1919
  185DOPC  C31322812   0.692   5.467   5.550 -0.1098 -0.0815  0.9644
  185DOPC  H13X22813   0.593   5.421   5.527  0.0524 -0.4781  1.0453
  185DOPC  H13Y22814   0.745   5.398   5.618 -0.8148  0.0228  1.6395
  185DOPC  C31422815   0.661   5.599   5.623  0.0026 -0.7134  0.2404
  185DOPC  H14X22816   0.760   5.638   5.655 -0.9319  0.3498  1.9264
  185DOPC  H14Y22817   0.603   5.671   5.561  2.0727  1.0063  0.2106
  185DOPC  C31522818   0.586   5.576   5.753 -0.5167  0.1163  0.2144
  185DOPC  H15X22819   0.573   5.675   5.802  1.0504  0.1231  0.7005
  185DOPC  H15Y22820   0.631   5.495   5.815 -3.8744 -0.8206  1.6798
  185DOPC  C31622821   0.444   5.523   5.726 -0.7775 -0.4337  0.0672
  185DOPC  H16X22822   0.396   5.594   5.656  0.2317  0.4109  0.2120
  185DOPC  H16Y22823   0.446   5.423   5.677  0.9504 -1.1119  1.3950
  185DOPC  C31722824   0.352   5.513   5.851  0.7117  0.6282 -0.3509
  185DOPC  H17X22825   0.259   5.472   5.805  0.0366 -1.1945  2.4289
  185DOPC  H17Y22826   0.386   5.431   5.917  0.6063  0.1810 -0.8400
  185DOPC  C31822827   0.315   5.638   5.929  0.4161  0.1443 -0.0040
  185DOPC  H18X22828   0.409   5.683   5.970  1.7575 -0.6764 -2.0016
  185DOPC  H18Y22829   0.280   5.715   5.857 -1.4984 -0.5603  0.1151
  185DOPC  H18Z22830   0.233   5.617   6.000 -0.7440  2.2136 -0.6345
  186DOPC     N22831   0.965   2.661   3.107 -0.3722  0.1860 -1.1640
  186DOPC   C1222832   1.067   2.685   3.221  0.4034 -0.5959  0.5929
  186DOPC  H12A22833   1.160   2.729   3.189  0.1921  0.8611  1.8715
  186DOPC  H12B22834   1.100   2.586   3.248 -1.5566 -1.7392 -0.9394
  186DOPC   C1322835   0.930   2.792   3.044  0.4401 -0.2938 -0.1544
  186DOPC  H13A22836   0.869   2.774   2.957  2.1777 -2.2422 -1.0645
  186DOPC  H13B22837   0.879   2.864   3.106  3.5781 -0.9833  3.6778
  186DOPC  H13C22838   1.013   2.849   3.005  0.1440  0.2953  0.0632
  186DOPC   C1422839   0.844   2.597   3.153  0.0765  0.1217 -0.3706
  186DOPC  H14A22840   0.782   2.579   3.067  1.6081  1.0540 -1.7362
  186DOPC  H14B22841   0.881   2.501   3.188  1.1480 -0.1544 -2.1346
  186DOPC  H14C22842   0.786   2.643   3.231 -1.6943 -0.3966 -1.3217
  186DOPC   C1522843   1.036   2.575   3.002  0.4470 -0.0882  0.0828
  186DOPC  H15A22844   1.120   2.630   2.962 -0.0127  0.1054 -0.6348
  186DOPC  H15B22845   0.964   2.564   2.922 -1.6573  2.6696  1.4018
  186DOPC  H15C22846   1.071   2.480   3.040 -1.9078 -0.7140  0.9119
  186DOPC   C1122847   1.017   2.767   3.346  0.4779 -0.7904 -0.8117
  186DOPC  H11A22848   1.090   2.749   3.428 -1.2191 -1.0862  0.6967
  186DOPC  H11B22849   1.023   2.874   3.317  1.7276 -0.9488 -1.1904
  186DOPC     P22850   0.767   2.838   3.419 -0.0990 -0.2070  0.4461
  186DOPC   O1322851   0.656   2.798   3.325  0.3866 -0.6392 -0.5428
  186DOPC   O1422852   0.815   2.975   3.407 -0.2660 -0.3367 -0.0320
  186DOPC   O1222853   0.888   2.735   3.395  0.2180  0.2346 -0.7979
  186DOPC   O1122854   0.713   2.799   3.564  0.3487  0.3135  0.0243
  186DOPC    C122855   0.811   2.765   3.671 -0.2212 -0.3811  0.7502
  186DOPC    HA22856   0.916   2.773   3.634 -1.0526  0.9498 -1.5523
  186DOPC    HB22857   0.804   2.660   3.706  0.9675  0.0317  2.3104
  186DOPC    C222858   0.805   2.861   3.800 -0.2664  1.1558  0.2567
  186DOPC    HS22859   0.834   2.964   3.771 -3.2081  2.2994  1.0553
  186DOPC   O2122860   0.882   2.804   3.901 -0.2588  0.5706 -0.3020
  186DOPC   C2122861   0.916   2.886   3.999  0.2173  0.0499 -0.3275
  186DOPC   O2222862   0.910   3.010   3.992 -0.0457 -0.0564  0.3055
  186DOPC   C2222863   0.960   2.812   4.123 -0.4994  0.1576 -0.1722
  186DOPC   H2R22864   0.973   2.703   4.102  3.0002  0.0098  1.9290
  186DOPC   H2S22865   0.897   2.831   4.213 -1.2901  3.0819 -1.2448
  186DOPC    C322866   0.659   2.862   3.847 -0.1594 -0.2231 -0.3971
  186DOPC    HX22867   0.609   2.764   3.831 -0.5408 -0.2095  0.5812
  186DOPC    HY22868   0.602   2.929   3.780  0.5680 -0.4997 -1.3091
  186DOPC   O3122869   0.633   2.882   3.989  0.3237 -0.3875  0.4349
  186DOPC   C3122870   0.588   3.001   4.022 -0.5936 -0.0806  0.2486
  186DOPC   O3222871   0.566   3.095   3.951 -0.5196 -0.3057  0.4890
  186DOPC   C3222872   0.576   2.998   4.176  0.5091  0.1129  0.5279
  186DOPC   H2X22873   0.485   3.060   4.193 -0.6387 -0.2528 -3.4267
  186DOPC   H2Y22874   0.541   2.900   4.212  0.0948  0.2497  0.5021
  186DOPC   C2322875   1.098   2.869   4.165  0.2235 -0.3755 -0.2710
  186DOPC   H3R22876   1.089   2.978   4.186 -0.4090 -0.5003  0.1409
  186DOPC   H3S22877   1.176   2.852   4.088  0.7725  1.8637 -0.2885
  186DOPC   C2422878   1.142   2.799   4.292  0.1255 -0.1338 -0.1714
  186DOPC   H4R22879   1.133   2.690   4.276 -0.8233  0.0484 -0.9988
  186DOPC   H4S22880   1.080   2.837   4.376 -1.3814  0.6871 -1.5918
  186DOPC   C2522881   1.289   2.819   4.326  0.0367 -0.7032  0.0439
  186DOPC   H5R22882   1.325   2.924   4.320 -0.1626 -0.6064  0.4958
  186DOPC   H5S22883   1.341   2.762   4.246 -0.1415 -2.2357  0.9674
  186DOPC   C2622884   1.351   2.775   4.454 -0.1513 -0.3034 -0.4235
  186DOPC   H6R22885   1.327   2.845   4.537 -1.7108  0.2362 -1.3040
  186DOPC   H6S22886   1.462   2.784   4.452  0.1437 -2.6069  1.0588
  186DOPC   C2722887   1.327   2.628   4.486 -0.3571 -0.0063  0.4391
  186DOPC   H7R22888   1.372   2.561   4.409  0.4382 -0.7383  1.4973
  186DOPC   H7S22889   1.222   2.593   4.476  0.4406 -2.8076  0.7389
  186DOPC   C2822890   1.385   2.589   4.629 -0.2832 -0.1756  0.1866
  186DOPC   H8R22891   1.486   2.633   4.636  0.1078 -0.9260 -0.5336
  186DOPC   H8S22892   1.394   2.478   4.632 -0.7615 -0.2249 -0.0716
  186DOPC   C2922893   1.293   2.636   4.738 -0.2688  0.3235  0.0343
  186DOPC   H9R22894   1.194   2.592   4.719 -0.2512  0.3446 -0.1063
  186DOPC  C21022895   1.313   2.716   4.847 -0.0524 -0.6324  0.1790
  186DOPC  H10R22896   1.224   2.742   4.906 -0.4047  1.0370 -1.0359
  186DOPC  C21122897   1.428   2.800   4.890 -0.6374 -0.8765 -0.4004
  186DOPC  H11R22898   1.380   2.898   4.911 -0.8101 -0.2184 -3.4408
  186DOPC  H11S22899   1.487   2.818   4.797 -1.6774  0.6961 -0.7861
  186DOPC  C21222900   1.524   2.754   4.998  0.7238 -0.6217 -0.4457
  186DOPC  H12R22901   1.613   2.817   5.012  0.2935 -0.5389  2.6609
  186DOPC  H12S22902   1.562   2.653   4.970  2.0901  0.1045 -1.2673
  186DOPC  C21322903   1.464   2.743   5.143 -0.1629  0.1735  0.1400
  186DOPC  H13R22904   1.515   2.659   5.195  0.0222  0.8446  1.0742
  186DOPC  H13S22905   1.356   2.716   5.145  0.1244 -1.0793  2.2088
  186DOPC  C21422906   1.479   2.868   5.223  0.1973 -0.5845 -0.3464
  186DOPC  H14R22907   1.461   2.954   5.155  0.9793 -2.2693 -2.8202
  186DOPC  H14S22908   1.584   2.889   5.254 -0.2092  2.1817 -0.5779
  186DOPC  C21522909   1.393   2.868   5.353  0.1884  1.1339  0.2834
  186DOPC  H15R22910   1.422   2.787   5.424 -1.6986 -0.1302 -0.2999
  186DOPC  H15S22911   1.288   2.860   5.317  0.9486 -2.0723 -1.5609
  186DOPC  C21622912   1.398   2.992   5.441  0.0659  0.3834  0.1697
  186DOPC  H16R22913   1.394   3.091   5.391  1.9130  0.7085  0.5789
  186DOPC  H16S22914   1.503   2.991   5.480 -0.1985 -0.6890  0.9086
  186DOPC  C21722915   1.295   2.985   5.555  0.3657  0.9320 -0.3933
  186DOPC  H17R22916   1.311   2.892   5.613 -1.5874  0.6893 -0.1823
  186DOPC  H17S22917   1.192   2.984   5.513 -0.0391  2.1320  0.5217
  186DOPC  C21822918   1.286   3.106   5.648 -0.3767 -0.1529 -0.2409
  186DOPC  H18R22919   1.384   3.134   5.691 -0.7669  0.3862  0.3122
  186DOPC  H18S22920   1.214   3.075   5.727  2.4601 -2.3170  1.7161
  186DOPC  H18T22921   1.245   3.198   5.601 -0.3955 -0.2700 -0.4597
  186DOPC   C3322922   0.694   3.060   4.256 -0.1033 -0.0249 -0.0636
  186DOPC   H3X22923   0.731   3.154   4.210 -0.8582 -0.3355 -1.3591
  186DOPC   H3Y22924   0.781   2.990   4.264 -1.7132 -2.2323 -0.8199
  186DOPC   C3422925   0.650   3.091   4.401  1.0127 -0.6846  0.0083
  186DOPC   H4X22926   0.592   3.011   4.451  1.1624  0.1513  1.6034
  186DOPC   H4Y22927   0.582   3.179   4.389  1.4239 -0.2857  0.5409
  186DOPC   C3522928   0.766   3.137   4.489 -0.3300 -0.4096  0.0889
  186DOPC   H5X22929   0.803   3.224   4.431  1.1708 -0.2715  1.2142
  186DOPC   H5Y22930   0.842   3.056   4.483  0.2762  0.1327  0.4231
  186DOPC   C3622931   0.739   3.183   4.634  0.4070 -1.3505  0.4612
  186DOPC   H6X22932   0.835   3.228   4.668 -0.2757 -0.3727  1.1655
  186DOPC   H6Y22933   0.660   3.261   4.641 -0.4338 -2.1760  0.2827
  186DOPC   C3722934   0.718   3.061   4.731 -0.2364  0.9411  0.0899
  186DOPC   H7X22935   0.618   3.018   4.710  0.1333  0.7490 -1.3941
  186DOPC   H7Y22936   0.795   2.982   4.719  0.5391  1.8350 -1.0167
  186DOPC   C3822937   0.725   3.116   4.879  0.7015 -0.1880  0.2555
  186DOPC   H8X22938   0.817   3.178   4.875  2.2750 -2.4392 -1.0512
  186DOPC   H8Y22939   0.760   3.034   4.946 -0.1816 -0.4687  0.3887
  186DOPC   C3922940   0.603   3.182   4.944  0.8566 -0.2417  0.9327
  186DOPC   H9X22941   0.524   3.222   4.878 -0.6838 -2.1832  1.5062
  186DOPC  C31022942   0.557   3.156   5.066  0.4080 -0.2863  1.1526
  186DOPC  H10X22943   0.469   3.210   5.103 -1.4428 -3.1675  1.2483
  186DOPC  C31122944   0.623   3.084   5.173  0.3884  0.3736 -0.6877
  186DOPC  H11X22945   0.720   3.036   5.147  0.0198  0.6652 -2.7841
  186DOPC  H11Y22946   0.553   3.001   5.197 -0.8490  1.5751 -0.0141
  186DOPC  C31222947   0.647   3.167   5.302  0.6267 -0.7704  1.0205
  186DOPC  H12X22948   0.554   3.223   5.325  0.1430 -1.5895  1.1271
  186DOPC  H12Y22949   0.735   3.231   5.283  0.0112 -0.4688 -1.0496
  186DOPC  C31322950   0.683   3.086   5.426 -0.3644 -0.7166  0.3858
  186DOPC  H13X22951   0.634   2.986   5.431 -0.0854 -0.9290 -0.7641
  186DOPC  H13Y22952   0.790   3.059   5.424  0.2654  1.2847  2.6831
  186DOPC  C31422953   0.654   3.165   5.560  0.1218  0.5688 -0.0402
  186DOPC  H14X22954   0.706   3.127   5.651 -0.3376  1.3454  0.5689
  186DOPC  H14Y22955   0.683   3.269   5.536 -0.4198  0.4561 -1.2103
  186DOPC  C31522956   0.505   3.161   5.601  0.6240 -0.0309  0.2616
  186DOPC  H15X22957   0.473   3.054   5.599 -1.6937  0.6209 -0.3311
  186DOPC  H15Y22958   0.442   3.205   5.521 -1.1938 -2.4018  0.2751
  186DOPC  C31622959   0.480   3.225   5.742  0.0062  0.8897  0.2142
  186DOPC  H16X22960   0.547   3.186   5.822  1.0249 -0.6294 -1.3110
  186DOPC  H16Y22961   0.494   3.335   5.734  0.8020  0.7022 -1.4639
  186DOPC  C31722962   0.335   3.203   5.785 -0.3629  0.9623 -0.8454
  186DOPC  H17X22963   0.278   3.222   5.692 -0.6027  1.3123 -0.6290
  186DOPC  H17Y22964   0.318   3.095   5.805  1.9624  0.6023 -0.5602
  186DOPC  C31822965   0.293   3.287   5.905  0.0717 -1.0717  0.3713
  186DOPC  H18X22966   0.284   3.391   5.869  0.1382 -1.3846 -0.5828
  186DOPC  H18Y22967   0.197   3.259   5.953  0.4167 -0.2781  1.5565
  186DOPC  H18Z22968   0.369   3.278   5.986  1.0752  0.3397 -0.3614
  187DOPC     N22969   5.571   1.173   3.637 -0.7260  0.0307 -0.6695
  187DOPC   C1222970   5.675   1.258   3.703 -0.0501 -0.8555 -0.3183
  187DOPC  H12A22971   5.646   1.361   3.689 -1.2469 -1.1781 -0.3589
  187DOPC  H12B22972   5.770   1.253   3.653  0.3580 -0.8544  0.4453
  187DOPC   C1322973   5.629   1.037   3.616 -0.1287 -0.3163  0.6428
  187DOPC  H13A22974   5.556   0.965   3.581  1.5414 -1.4078 -0.7767
  187DOPC  H13B22975   5.710   1.040   3.544 -1.5683  0.1548 -1.0437
  187DOPC  H13C22976   5.662   0.990   3.707  1.1823 -0.6120  0.0333
  187DOPC   C1422977   5.531   1.240   3.513 -0.3066  0.1308 -0.3116
  187DOPC  H14A22978   5.484   1.336   3.532  2.5305  1.9716 -1.7259
  187DOPC  H14B22979   5.610   1.252   3.439 -1.5023 -2.7631 -2.2246
  187DOPC  H14C22980   5.451   1.186   3.466 -0.6870  0.1348  0.3230
  187DOPC   C1522981   5.447   1.147   3.725 -1.2002 -0.8277  0.0299
  187DOPC  H15A22982   5.398   1.240   3.751 -0.1128 -0.5259  1.0815
  187DOPC  H15B22983   5.481   1.093   3.812  0.9629 -0.3298 -0.4426
  187DOPC  H15C22984   5.380   1.081   3.673  0.3665 -2.4152 -0.0795
  187DOPC   C1122985   5.692   1.235   3.855  0.7683 -0.1042 -0.0355
  187DOPC  H11A22986   5.599   1.259   3.913  2.2955  1.0537  2.0756
  187DOPC  H11B22987   5.714   1.128   3.873  2.6637  0.2257 -0.2256
  187DOPC     P22988   5.799   1.417   4.005  0.0009 -0.0848  0.8447
  187DOPC   O1322989   5.673   1.494   3.992  0.1098 -0.3954  0.2358
  187DOPC   O1422990   5.925   1.492   3.997 -0.2861 -0.0391 -0.1294
  187DOPC   O1222991   5.805   1.312   3.883 -0.2583  0.5454  0.0775
  187DOPC   O1122992   5.796   1.331   4.135 -0.4080 -0.1719 -0.1434
  187DOPC    C122993   5.889   1.221   4.147  0.2214  0.0364 -0.6465
  187DOPC    HA22994   5.995   1.254   4.144 -0.7845  4.0308  0.8801
  187DOPC    HB22995   5.879   1.149   4.063 -2.2178  1.4575 -1.6684
  187DOPC    C222996   5.869   1.157   4.283  0.2379 -0.1995  0.3790
  187DOPC    HS22997   5.888   1.048   4.267  2.4244  0.0593  0.8009
  187DOPC   O2122998   5.732   1.169   4.332 -0.4416 -0.0558  0.4053
  187DOPC   C2122999   5.645   1.099   4.264 -0.0248 -0.0624 -0.1457
  187DOPC   O2223000   5.666   1.032   4.166 -0.7776  0.1922  0.3204
  187DOPC   C2223001   5.499   1.121   4.318  0.1488 -0.1104  0.5813
  187DOPC   H2R23002   5.435   1.151   4.232  1.5380 -1.0948 -0.8640
  187DOPC   H2S23003   5.508   1.205   4.390  0.4578  0.5029 -0.1527
  187DOPC    C323004   5.949   1.220   4.393  0.3704  0.1608 -0.3244
  187DOPC    HX23005   5.929   1.326   4.420  0.3300  0.2173 -0.5697
  187DOPC    HY23006   6.051   1.226   4.348  0.5425 -0.7959 -0.0915
  187DOPC   O3123007   5.951   1.134   4.508 -0.4429 -0.2604 -0.3081
  187DOPC   C3123008   5.881   1.176   4.616 -0.4420  0.4490  0.5394
  187DOPC   O3223009   5.798   1.268   4.620 -0.1925  0.7043 -0.3395
  187DOPC   C3223010   5.933   1.093   4.730  0.4180  0.7975  0.0425
  187DOPC   H2X23011   5.926   0.989   4.691 -0.8469  1.0514 -0.4680
  187DOPC   H2Y23012   6.037   1.126   4.748  0.6996  0.5810 -1.1041
  187DOPC   C2323013   5.447   0.992   4.379 -0.0375  0.5549  0.3303
  187DOPC   H3R23014   5.467   0.900   4.319 -0.3085  0.5026  0.3201
  187DOPC   H3S23015   5.336   0.986   4.372  0.0627 -0.4587 -0.6024
  187DOPC   C2423016   5.479   0.985   4.530  0.5015  0.0409  0.0145
  187DOPC   H4R23017   5.386   0.944   4.574 -0.6240  1.4456 -0.9933
  187DOPC   H4S23018   5.506   1.082   4.578 -0.0853 -0.0164  0.4684
  187DOPC   C2523019   5.589   0.883   4.558  0.1911  0.2146  0.1059
  187DOPC   H5R23020   5.692   0.915   4.531  0.4832 -0.2364  0.6707
  187DOPC   H5S23021   5.566   0.793   4.497  1.5956  0.1836 -0.4282
  187DOPC   C2623022   5.579   0.823   4.699 -0.2733 -0.5799 -0.1824
  187DOPC   H6R23023   5.483   0.769   4.707 -1.3877  1.4635  0.9077
  187DOPC   H6S23024   5.582   0.906   4.772 -2.8898 -2.0198  1.7004
  187DOPC   C2723025   5.696   0.729   4.724  0.1299 -0.1156 -0.1765
  187DOPC   H7R23026   5.792   0.783   4.709 -0.8088  1.8623  0.5439
  187DOPC   H7S23027   5.695   0.648   4.649  2.3995 -1.0015  0.6791
  187DOPC   C2823028   5.685   0.670   4.871  0.4849 -0.1951 -0.1139
  187DOPC   H8R23029   5.746   0.577   4.871 -0.6312 -0.9637 -1.1958
  187DOPC   H8S23030   5.586   0.623   4.888 -0.1838  0.1250 -2.7903
  187DOPC   C2923031   5.717   0.761   4.987  0.6603  0.4012 -0.3239
  187DOPC   H9R23032   5.675   0.861   4.972 -0.7655  0.0183  0.8191
  187DOPC  C21023033   5.784   0.727   5.098  0.0223  0.7148  0.3077
  187DOPC  H10R23034   5.812   0.802   5.174 -0.4685  0.6587  0.5500
  187DOPC  C21123035   5.816   0.581   5.121 -0.6018 -0.6578  0.4063
  187DOPC  H11R23036   5.886   0.542   5.043 -2.2465 -0.5730 -1.1835
  187DOPC  H11S23037   5.730   0.511   5.118 -0.8260 -0.3930  0.5808
  187DOPC  C21223038   5.876   0.560   5.263 -0.1148 -0.5485 -0.8153
  187DOPC  H12R23039   5.978   0.601   5.275  0.4779 -2.1799 -0.0513
  187DOPC  H12S23040   5.899   0.452   5.273 -1.7854 -1.0279 -1.6111
  187DOPC  C21323041   5.771   0.596   5.374 -0.0026  0.4596  0.3329
  187DOPC  H13R23042   5.668   0.602   5.334  0.8047  1.5553 -1.7234
  187DOPC  H13S23043   5.796   0.698   5.409  1.0078 -0.2175  1.7047
  187DOPC  C21423044   5.783   0.504   5.495 -0.5291  1.1041  0.0860
  187DOPC  H14R23045   5.889   0.499   5.527 -0.0027 -0.5644 -1.7946
  187DOPC  H14S23046   5.772   0.401   5.456  1.5981  0.5716  0.7475
  187DOPC  C21523047   5.689   0.533   5.622 -0.6467 -0.3932  0.4724
  187DOPC  H15R23048   5.585   0.548   5.586 -0.7688 -0.0272  0.9696
  187DOPC  H15S23049   5.713   0.632   5.667 -0.5631  0.3012 -1.0221
  187DOPC  C21623050   5.690   0.433   5.740  0.6501  1.1928 -0.0189
  187DOPC  H16R23051   5.680   0.329   5.702 -0.3163  0.7039  1.4985
  187DOPC  H16S23052   5.609   0.458   5.811 -1.7061 -2.5240 -1.1190
  187DOPC  C21723053   5.817   0.427   5.830  0.3512 -0.5078 -0.2468
  187DOPC  H17R23054   5.908   0.430   5.767  0.0960 -1.2730 -0.6689
  187DOPC  H17S23055   5.826   0.329   5.881  1.3777 -0.9211 -1.1935
  187DOPC  C21823056   5.823   0.543   5.930  0.4742 -0.2458 -0.1790
  187DOPC  H18R23057   5.839   0.638   5.874 -0.0848 -0.6872 -1.1084
  187DOPC  H18S23058   5.907   0.542   6.003  1.1967 -0.7390 -0.9987
  187DOPC  H18T23059   5.732   0.553   5.992 -0.4094 -2.4099 -1.0335
  187DOPC   C3323060   5.856   1.094   4.862  0.0988 -0.2145 -0.3032
  187DOPC   H3X23061   5.766   1.029   4.862 -0.2551  0.0107  3.8044
  187DOPC   H3Y23062   5.828   1.198   4.890  0.9277 -0.4778  1.6258
  187DOPC   C3423063   5.949   1.034   4.983  0.1104 -0.3968 -0.2943
  187DOPC   H4X23064   5.987   0.936   4.944  1.5352 -0.3751  0.9710
  187DOPC   H4Y23065   5.882   1.014   5.069  1.1127 -0.0849  0.5783
  187DOPC   C3523066   6.069   1.116   5.029 -0.1161 -0.6988 -0.0961
  187DOPC   H5X23067   6.026   1.186   5.104 -0.4896  0.1306 -1.0629
  187DOPC   H5Y23068   6.116   1.171   4.945  1.4753  1.1939  1.9051
  187DOPC   C3623069   6.180   1.044   5.103 -0.1287 -0.0303 -0.0948
  187DOPC   H6X23070   6.234   0.972   5.038  1.9299  1.3628 -0.0002
  187DOPC   H6Y23071   6.266   1.113   5.119  1.4357 -1.8534 -0.2186
  187DOPC   C3723072   6.135   0.992   5.237  0.4890 -0.0269  0.3618
  187DOPC   H7X23073   6.046   0.927   5.225  0.9383 -0.7648  0.8822
  187DOPC   H7Y23074   6.211   0.929   5.289 -0.4051 -1.5719 -0.1553
  187DOPC   C3823075   6.109   1.105   5.338 -0.6869 -0.4616  0.7929
  187DOPC   H8X23076   6.047   1.193   5.310  0.7415  0.4164  0.2991
  187DOPC   H8Y23077   6.210   1.147   5.356 -1.0103  0.1461  1.2427
  187DOPC   C3923078   6.067   1.036   5.463 -0.3469 -0.7366 -0.0289
  187DOPC   H9X23079   6.143   0.964   5.498  0.2318 -1.4702 -2.5286
  187DOPC  C31023080   5.956   1.059   5.530 -0.1299  0.3853  0.0131
  187DOPC  H10X23081   5.934   0.999   5.619 -2.4514 -2.3078 -2.2039
  187DOPC  C31123082   5.840   1.155   5.499  0.1429 -0.0065  0.7271
  187DOPC  H11X23083   5.851   1.210   5.403 -0.9670  2.3519  1.8501
  187DOPC  H11Y23084   5.844   1.239   5.572 -1.0976  1.2544 -0.5976
  187DOPC  C31223085   5.702   1.083   5.493 -0.3164 -0.8235  0.5048
  187DOPC  H12X23086   5.631   1.167   5.506  0.0413 -0.3527 -0.4864
  187DOPC  H12Y23087   5.692   1.000   5.567 -0.4372  0.4523  1.9840
  187DOPC  C31323088   5.671   1.024   5.356  0.1911 -0.0789 -0.3706
  187DOPC  H13X23089   5.735   0.938   5.328 -0.4221 -1.3016  1.7637
  187DOPC  H13Y23090   5.569   0.980   5.367  0.9981 -1.9311  0.2047
  187DOPC  C31423091   5.652   1.130   5.239 -0.5407 -0.4207  0.1137
  187DOPC  H14X23092   5.631   1.231   5.279 -1.2054 -1.0585  1.4537
  187DOPC  H14Y23093   5.748   1.147   5.187  0.3900 -0.5336  1.7458
  187DOPC  C31523094   5.547   1.089   5.139  0.4763  0.7439  0.1934
  187DOPC  H15X23095   5.452   1.076   5.195  0.4909 -0.8235 -0.1207
  187DOPC  H15Y23096   5.565   0.986   5.103 -0.6817  0.0679  1.4362
  187DOPC  C31623097   5.548   1.190   5.025  0.8972 -0.3445 -0.2272
  187DOPC  H16X23098   5.529   1.297   5.053 -1.8866 -1.0525  0.9595
  187DOPC  H16Y23099   5.653   1.183   4.990  0.8473 -1.9666 -0.1215
  187DOPC  C31723100   5.452   1.157   4.921  0.0386 -0.0887  0.1288
  187DOPC  H17X23101   5.466   1.051   4.891 -2.0216 -0.7258  1.2045
  187DOPC  H17Y23102   5.346   1.159   4.956  0.7911 -0.8607  2.6151
  187DOPC  C31823103   5.468   1.241   4.794 -0.3474  0.3161 -0.5591
  187DOPC  H18X23104   5.454   1.349   4.816 -1.9785 -0.0836  0.6044
  187DOPC  H18Y23105   5.571   1.224   4.756  0.0705 -1.7789  1.2859
  187DOPC  H18Z23106   5.402   1.208   4.711 -0.8358  1.1648 -0.5190
  188DOPC     N23107   1.969   2.963   3.383  0.4002  0.1156  0.3724
  188DOPC   C1223108   1.969   2.810   3.360  0.3001 -0.2178  0.6294
  188DOPC  H12A23109   2.053   2.798   3.293 -1.4467  0.8830 -1.9069
  188DOPC  H12B23110   1.877   2.780   3.311  0.8928 -0.3776 -0.4014
  188DOPC   C1323111   1.848   3.001   3.461  0.2258 -0.0213 -0.6896
  188DOPC  H13A23112   1.769   3.007   3.387 -0.9035 -3.0398  0.1373
  188DOPC  H13B23113   1.827   2.909   3.514  1.5078 -0.7387 -1.3670
  188DOPC  H13C23114   1.872   3.089   3.520  2.3154 -1.2442  0.4033
  188DOPC   C1423115   1.968   3.037   3.251 -0.6268  0.0093 -0.1088
  188DOPC  H14A23116   2.053   3.012   3.189  0.3843  0.3165  1.1220
  188DOPC  H14B23117   1.887   3.007   3.187  0.6253 -0.4011 -1.5720
  188DOPC  H14C23118   1.974   3.143   3.268 -1.2665 -0.2117  1.7268
  188DOPC   C1523119   2.092   3.011   3.463  0.7829  0.2898  0.2750
  188DOPC  H15A23120   2.084   2.964   3.560  0.6348 -2.1974 -0.8667
  188DOPC  H15B23121   2.096   3.118   3.477  4.8448  0.2048  1.1627
  188DOPC  H15C23122   2.185   2.980   3.417  0.8990  0.5941  0.3030
  188DOPC   C1123123   1.994   2.712   3.481  0.1994 -0.4358 -0.1518
  188DOPC  H11A23124   1.913   2.717   3.558  1.0753 -0.0169  0.7655
  188DOPC  H11B23125   2.001   2.603   3.460 -0.8020 -0.6912  0.7316
  188DOPC     P23126   2.248   2.683   3.529  0.0535  0.3551  0.1401
  188DOPC   O1323127   2.353   2.781   3.503  0.3643  0.1294 -0.1587
  188DOPC   O1423128   2.228   2.593   3.417  0.1720  0.2537  0.0989
  188DOPC   O1223129   2.109   2.747   3.551 -0.2450 -0.2139  0.7514
  188DOPC   O1123130   2.280   2.598   3.659 -0.0434 -0.9884 -0.2731
  188DOPC    C123131   2.177   2.526   3.730  0.1360 -0.5286 -0.6191
  188DOPC    HA23132   2.210   2.424   3.756 -1.4413 -0.4878  1.9592
  188DOPC    HB23133   2.089   2.506   3.665  0.0162 -0.6571 -0.4197
  188DOPC    C223134   2.134   2.604   3.859  0.2244  0.0625  0.5212
  188DOPC    HS23135   2.099   2.704   3.824  2.3149  0.6148 -0.1399
  188DOPC   O2123136   2.248   2.618   3.936 -0.5192 -0.0610 -0.0132
  188DOPC   C2123137   2.228   2.696   4.040 -0.5106 -0.0321  0.0355
  188DOPC   O2223138   2.131   2.767   4.053 -0.1510 -0.0550 -0.1118
  188DOPC   C2223139   2.352   2.683   4.142  0.3038 -0.0808  1.1179
  188DOPC   H2R23140   2.405   2.778   4.121 -0.6262  0.3416  0.6308
  188DOPC   H2S23141   2.414   2.598   4.106  0.1482  0.5238 -0.6885
  188DOPC    C323142   2.016   2.533   3.921 -0.4023  0.0084 -0.3728
  188DOPC    HX23143   1.942   2.528   3.839 -2.9921  0.1390  1.8295
  188DOPC    HY23144   1.963   2.592   3.998 -0.7837 -0.2510 -0.4325
  188DOPC   O3123145   2.047   2.409   3.987 -0.3946 -0.0001 -0.1584
  188DOPC   C3123146   1.940   2.327   3.997  0.3924 -0.4031 -0.6898
  188DOPC   O3223147   1.823   2.366   3.979 -0.3241 -0.3382 -0.3376
  188DOPC   C3223148   1.988   2.190   4.041  0.1781 -0.2188 -0.0442
  188DOPC   H2X23149   1.942   2.125   3.964 -0.6383 -1.0465  1.0993
  188DOPC   H2Y23150   2.098   2.190   4.026  0.2331  0.4517  0.2914
  188DOPC   C2323151   2.310   2.664   4.285 -0.7342  0.2399 -1.3245
  188DOPC   H3R23152   2.289   2.555   4.296  2.5764 -0.4238 -0.5425
  188DOPC   H3S23153   2.223   2.723   4.323 -0.4020 -1.1832  2.0500
  188DOPC   C2423154   2.418   2.692   4.392 -0.3355  0.1604  0.2214
  188DOPC   H4R23155   2.446   2.799   4.394 -1.0674  0.3477  0.8023
  188DOPC   H4S23156   2.511   2.632   4.378  1.1820  2.0601  1.6270
  188DOPC   C2523157   2.361   2.664   4.532  0.4381 -0.1142  0.1165
  188DOPC   H5R23158   2.293   2.576   4.534  1.8999 -1.2576  0.8736
  188DOPC   H5S23159   2.297   2.752   4.556 -0.7384 -0.1599 -2.4757
  188DOPC   C2623160   2.463   2.631   4.641 -0.6474  0.0241  0.5450
  188DOPC   H6R23161   2.540   2.710   4.655  1.2745 -2.0797  2.8422
  188DOPC   H6S23162   2.526   2.545   4.608  1.4912  1.9824 -0.7969
  188DOPC   C2723163   2.390   2.596   4.769  0.1925  0.4063  0.1597
  188DOPC   H7R23164   2.322   2.511   4.747  2.0586 -1.3360  0.7948
  188DOPC   H7S23165   2.338   2.687   4.807 -2.3296 -1.0496  0.4294
  188DOPC   C2823166   2.479   2.556   4.886 -1.0062  0.3045 -0.5052
  188DOPC   H8R23167   2.532   2.459   4.873 -1.3920  0.1912 -1.3226
  188DOPC   H8S23168   2.416   2.549   4.977 -0.9817 -0.7699 -0.5545
  188DOPC   C2923169   2.584   2.659   4.910 -0.2003 -0.7276 -0.2817
  188DOPC   H9R23170   2.676   2.654   4.850  0.7470  0.0628  1.0599
  188DOPC  C21023171   2.589   2.742   5.015  0.0890 -0.0531 -0.6136
  188DOPC  H10R23172   2.671   2.815   5.023  0.9643 -1.0597 -0.1265
  188DOPC  C21123173   2.485   2.742   5.120  0.0905 -0.0923 -0.4828
  188DOPC  H11R23174   2.494   2.652   5.185  1.7985  0.6715  0.4003
  188DOPC  H11S23175   2.384   2.755   5.075  1.1991  0.2396 -2.9725
  188DOPC  C21223176   2.497   2.861   5.223  0.1941  0.3607 -0.0584
  188DOPC  H12R23177   2.492   2.964   5.181  0.2793 -0.3682 -1.9355
  188DOPC  H12S23178   2.595   2.845   5.273  0.2373 -2.7396 -0.9036
  188DOPC  C21323179   2.389   2.856   5.330  0.3997 -0.8427 -0.0749
  188DOPC  H13R23180   2.419   2.901   5.428  0.3455 -0.4490 -0.2349
  188DOPC  H13S23181   2.362   2.752   5.357 -0.4684 -0.1651  1.9246
  188DOPC  C21423182   2.254   2.927   5.288  0.2876 -0.4131 -0.2570
  188DOPC  H14R23183   2.209   2.854   5.218  0.6778 -0.2991 -0.6249
  188DOPC  H14S23184   2.280   3.026   5.244 -0.3435 -0.3236 -0.4478
  188DOPC  C21523185   2.159   2.947   5.403  1.3295 -0.8817 -0.0768
  188DOPC  H15R23186   2.059   2.960   5.357  0.8651  0.1833  1.1614
  188DOPC  H15S23187   2.177   3.046   5.452 -1.7958 -1.0035  1.5738
  188DOPC  C21623188   2.153   2.823   5.492  0.4305  0.5470 -0.1807
  188DOPC  H16R23189   2.239   2.822   5.562  1.8737  0.6058 -1.8910
  188DOPC  H16S23190   2.150   2.723   5.443 -1.6816  1.1960 -1.5567
  188DOPC  C21723191   2.024   2.821   5.583 -0.1185 -0.1400  0.2446
  188DOPC  H17R23192   1.944   2.818   5.507  1.2887  1.2379 -1.3757
  188DOPC  H17S23193   2.024   2.920   5.635 -0.1205  0.0925 -0.1950
  188DOPC  C21823194   2.017   2.712   5.692  0.4727 -0.4064  0.0003
  188DOPC  H18R23195   2.070   2.617   5.667 -0.3974 -1.5188  2.1055
  188DOPC  H18S23196   1.914   2.677   5.713  0.2675 -0.0415 -0.3738
  188DOPC  H18T23197   2.066   2.748   5.785 -0.0253  1.2525 -0.3522
  188DOPC   C3323198   1.935   2.143   4.184 -0.4431 -0.0549  0.1776
  188DOPC   H3X23199   1.945   2.032   4.181  1.2576  0.0190 -3.8222
  188DOPC   H3Y23200   1.827   2.170   4.190 -0.6740 -0.6245 -1.0622
  188DOPC   C3423201   2.024   2.210   4.295  0.4281  0.3957 -0.3949
  188DOPC   H4X23202   2.013   2.320   4.299  1.9847  0.5515  1.2544
  188DOPC   H4Y23203   2.131   2.192   4.267  0.5268  0.0207  0.1875
  188DOPC   C3523204   2.002   2.159   4.438  0.2680 -0.6588  0.9056
  188DOPC   H5X23205   2.025   2.050   4.443 -2.4592 -1.5131 -1.6442
  188DOPC   H5Y23206   1.895   2.166   4.466 -0.1009  0.1118 -0.5688
  188DOPC   C3623207   2.067   2.251   4.537 -0.1059  0.8349  0.3887
  188DOPC   H6X23208   2.176   2.230   4.544 -0.2016  0.7776  2.3285
  188DOPC   H6Y23209   2.058   2.352   4.490  0.6589  2.6351  3.7435
  188DOPC   C3723210   1.996   2.236   4.672 -0.6207  0.0912  0.2713
  188DOPC   H7X23211   1.899   2.288   4.687 -0.5616 -0.1636  1.6485
  188DOPC   H7Y23212   1.984   2.128   4.695  4.1566 -0.9855 -1.2199
  188DOPC   C3823213   2.091   2.275   4.797 -0.2054 -0.3552 -0.1697
  188DOPC   H8X23214   2.120   2.382   4.786 -0.3747 -0.2680  0.1866
  188DOPC   H8Y23215   2.185   2.216   4.805  0.0528  0.1314  0.5355
  188DOPC   C3923216   2.014   2.262   4.926  0.6715 -0.2142 -0.5219
  188DOPC   H9X23217   1.930   2.333   4.933 -0.3690 -1.4467 -0.1760
  188DOPC  C31023218   2.046   2.198   5.041  0.1360 -0.2088 -0.3445
  188DOPC  H10X23219   1.968   2.205   5.118 -0.7677 -1.9975 -1.0471
  188DOPC  C31123220   2.163   2.110   5.063  0.1119  0.4116  0.6295
  188DOPC  H11X23221   2.228   2.106   4.974 -1.0369  0.1845 -0.2149
  188DOPC  H11Y23222   2.121   2.010   5.085 -3.6366  1.3971 -1.1657
  188DOPC  C31223223   2.234   2.172   5.185  0.0495 -0.5137  0.4894
  188DOPC  H12X23224   2.267   2.276   5.165  1.9243 -1.0117  0.7644
  188DOPC  H12Y23225   2.332   2.119   5.193  0.6564 -0.2110 -3.1475
  188DOPC  C31323226   2.156   2.171   5.316 -0.3581  0.0468  0.1747
  188DOPC  H13X23227   2.054   2.215   5.300 -0.9554 -1.9063 -1.9360
  188DOPC  H13Y23228   2.118   2.069   5.337 -2.0256  0.5088 -0.3815
  188DOPC  C31423229   2.234   2.220   5.436 -0.6737 -0.1305  0.1123
  188DOPC  H14X23230   2.326   2.159   5.447 -1.2821 -1.3449 -1.1659
  188DOPC  H14Y23231   2.264   2.326   5.428 -3.8524  1.4186  4.7074
  188DOPC  C31523232   2.155   2.192   5.566  0.3258  0.0560  0.2212
  188DOPC  H15X23233   2.129   2.084   5.569  0.8870 -0.0815  0.2333
  188DOPC  H15Y23234   2.057   2.244   5.566 -0.8088 -1.7765 -2.9491
  188DOPC  C31623235   2.232   2.243   5.688 -0.7897  0.1963  0.3404
  188DOPC  H16X23236   2.319   2.177   5.705  1.5848  2.8339 -0.7490
  188DOPC  H16Y23237   2.267   2.346   5.665  1.2523 -0.4883  0.2381
  188DOPC  C31723238   2.141   2.243   5.811 -0.0654 -0.6344  0.4709
  188DOPC  H17X23239   2.072   2.330   5.815  2.2030  1.2316  1.6774
  188DOPC  H17Y23240   2.085   2.147   5.814  1.9817 -1.8705  1.9367
  188DOPC  C31823241   2.217   2.235   5.942  0.2406 -0.5041  0.3843
  188DOPC  H18X23242   2.148   2.217   6.027  1.4938  0.8661  1.7413
  188DOPC  H18Y23243   2.289   2.150   5.940  2.4065  1.2378 -0.3547
  188DOPC  H18Z23244   2.280   2.324   5.962 -2.3307  1.9608 -1.8272
  189DOPC     N23245   3.637   2.272   3.969 -0.0322  0.5074 -0.2537
  189DOPC   C1223246   3.690   2.243   4.104  0.0354 -0.6571 -0.3421
  189DOPC  H12A23247   3.609   2.242   4.176  0.0701  1.3180 -0.2077
  189DOPC  H12B23248   3.746   2.330   4.137 -0.1768  1.5380 -4.9249
  189DOPC   C1323249   3.750   2.299   3.876  0.1061  0.3213 -0.3021
  189DOPC  H13A23250   3.811   2.213   3.852 -1.5159 -0.4276 -2.0844
  189DOPC  H13B23251   3.722   2.330   3.776  1.8403 -0.2546 -1.0121
  189DOPC  H13C23252   3.808   2.379   3.919 -0.2482  1.4065 -1.7694
  189DOPC   C1423253   3.552   2.396   3.973 -0.1247  0.8068  0.2459
  189DOPC  H14A23254   3.528   2.427   3.872 -1.4332 -2.2238 -0.4780
  189DOPC  H14B23255   3.457   2.384   4.024 -0.4313 -0.0704 -0.5112
  189DOPC  H14C23256   3.602   2.482   4.016  1.6789 -0.7300  1.3831
  189DOPC   C1523257   3.556   2.162   3.904  0.8390  0.5795 -0.0005
  189DOPC  H15A23258   3.627   2.081   3.899  0.2793  0.1735 -2.3373
  189DOPC  H15B23259   3.516   2.180   3.806  1.1971  0.4200 -0.1765
  189DOPC  H15C23260   3.475   2.128   3.967  1.0791  0.3722  0.1994
  189DOPC   C1123261   3.776   2.112   4.121  0.6012 -0.2771 -0.3489
  189DOPC  H11A23262   3.801   2.114   4.229  1.3856 -1.4738 -0.4891
  189DOPC  H11B23263   3.712   2.022   4.108  0.5082 -0.2593 -0.0196
  189DOPC     P23264   4.018   2.207   4.060 -0.3008  0.0585  0.2484
  189DOPC   O1323265   3.966   2.343   4.063  0.0717  0.8874  0.0539
  189DOPC   O1423266   4.123   2.171   3.967  0.2853 -0.6371  0.6113
  189DOPC   O1223267   3.896   2.111   4.040  0.1477 -0.5434  0.3398
  189DOPC   O1123268   4.061   2.168   4.201  0.5335 -0.1942 -0.4899
  189DOPC    C123269   4.098   2.036   4.240 -0.1289  0.1634 -0.2638
  189DOPC    HA23270   4.201   2.046   4.280  0.7922 -2.0720 -1.8809
  189DOPC    HB23271   4.111   1.967   4.153  0.9998 -1.5626  1.2122
  189DOPC    C223272   3.997   1.969   4.346 -0.7901  0.3563  0.2136
  189DOPC    HS23273   3.906   1.952   4.284 -0.3863 -0.0923 -0.2605
  189DOPC   O2123274   3.980   2.052   4.467  0.4051 -0.3164  0.2599
  189DOPC   C2123275   3.864   2.031   4.524  0.2614 -0.3162  0.2014
  189DOPC   O2223276   3.782   1.950   4.490 -0.2292 -0.1541 -0.3020
  189DOPC   C2223277   3.861   2.125   4.643  0.4522  0.2876 -0.5676
  189DOPC   H2R23278   3.864   2.228   4.603  3.4267  0.4173 -0.2018
  189DOPC   H2S23279   3.954   2.105   4.700 -0.0016 -1.0570 -0.2415
  189DOPC    C323280   4.046   1.821   4.377 -0.1893  0.1175 -0.5896
  189DOPC    HX23281   4.060   1.776   4.276 -2.8840 -1.5025 -0.3269
  189DOPC    HY23282   3.970   1.753   4.420  0.8647 -1.1397 -0.6558
  189DOPC   O3123283   4.175   1.811   4.445 -0.3519 -0.0969 -0.1367
  189DOPC   C3123284   4.168   1.783   4.568 -0.0938 -0.6547 -0.5357
  189DOPC   O3223285   4.062   1.786   4.635 -0.0798  0.4880 -0.6679
  189DOPC   C3223286   4.306   1.751   4.622  0.0029  0.6935 -0.0600
  189DOPC   H2X23287   4.323   1.644   4.596  1.5756  0.8015  0.4016
  189DOPC   H2Y23288   4.385   1.814   4.575  1.8164 -1.1970  0.3092
  189DOPC   C2323289   3.763   2.092   4.763 -0.0806 -0.0795 -0.2043
  189DOPC   H3R23290   3.772   1.982   4.777 -1.2624 -0.4966 -2.1872
  189DOPC   H3S23291   3.659   2.111   4.729 -0.7460  0.0255  1.8156
  189DOPC   C2423292   3.809   2.164   4.892  0.1075 -0.3827  0.7767
  189DOPC   H4R23293   3.830   2.271   4.869 -2.1353 -0.0042  0.2627
  189DOPC   H4S23294   3.908   2.124   4.923  1.7318  1.0806 -2.0290
  189DOPC   C2523295   3.700   2.161   4.995 -0.2939  0.1132 -0.2338
  189DOPC   H5R23296   3.663   2.058   5.015 -1.1185  0.3077 -0.6961
  189DOPC   H5S23297   3.614   2.221   4.958 -0.8730  0.4631  1.6114
  189DOPC   C2623298   3.753   2.220   5.122 -0.0954  0.2128 -1.0092
  189DOPC   H6R23299   3.782   2.326   5.101  0.0463  0.3732 -0.0936
  189DOPC   H6S23300   3.848   2.171   5.154 -1.7231 -1.8755  0.9381
  189DOPC   C2723301   3.647   2.210   5.235 -0.9511  1.0679 -0.0247
  189DOPC   H7R23302   3.621   2.105   5.261  0.0097  0.1309 -2.5077
  189DOPC   H7S23303   3.560   2.251   5.179 -1.8121 -0.0570  0.4476
  189DOPC   C2823304   3.686   2.296   5.360 -0.3732 -0.0360 -0.4293
  189DOPC   H8R23305   3.603   2.328   5.426  1.9334 -0.0275  2.7281
  189DOPC   H8S23306   3.728   2.389   5.316 -0.9752 -0.1817 -1.3411
  189DOPC   C2923307   3.800   2.227   5.423 -0.2498  0.2029 -0.4638
  189DOPC   H9R23308   3.887   2.208   5.359  0.4237  1.9199 -0.1283
  189DOPC  C21023309   3.795   2.164   5.540 -0.3977 -0.7133  0.3405
  189DOPC  H10R23310   3.894   2.134   5.578  0.4434  2.7098  1.2307
  189DOPC  C21123311   3.677   2.173   5.636 -0.6229 -1.0297 -0.0002
  189DOPC  H11R23312   3.660   2.067   5.665  1.2686 -1.1734  0.7824
  189DOPC  H11S23313   3.585   2.213   5.590 -0.9537  1.2929  2.3812
  189DOPC  C21223314   3.715   2.266   5.751 -0.0787 -0.3934 -0.4399
  189DOPC  H12R23315   3.620   2.290   5.803 -0.4508  3.8547 -2.5983
  189DOPC  H12S23316   3.736   2.366   5.707  1.6882 -1.0723 -1.2207
  189DOPC  C21323317   3.818   2.209   5.858  0.1721  0.1040 -0.6794
  189DOPC  H13R23318   3.820   2.282   5.941  1.0742  2.1556 -2.4170
  189DOPC  H13S23319   3.920   2.212   5.813  0.2196  0.5045 -0.5453
  189DOPC  C21423320   3.775   2.069   5.911  0.1835 -0.1093  0.7942
  189DOPC  H14R23321   3.769   2.007   5.819 -2.0839  1.2927 -0.0944
  189DOPC  H14S23322   3.672   2.097   5.943 -0.4030  0.5035 -1.4659
  189DOPC  C21523323   3.862   2.009   6.021 -0.1709  0.0469 -0.6046
  189DOPC  H15R23324   3.971   2.006   6.002  0.0722 -0.6981  0.7471
  189DOPC  H15S23325   3.841   1.901   6.036 -0.7786  0.4408  1.8323
  189DOPC  C21623326   3.860   2.076   6.163 -0.5160  0.1418  0.1063
  189DOPC  H16R23327   3.915   2.172   6.165  0.6523 -0.5133  1.5321
  189DOPC  H16S23328   3.913   2.016   6.240 -0.1042  0.4105  0.0378
  189DOPC  C21723329   3.720   2.085   6.219 -0.2393 -0.1651  0.6870
  189DOPC  H17R23330   3.684   1.980   6.222 -0.0073 -0.4144 -2.3785
  189DOPC  H17S23331   3.650   2.145   6.158 -1.2000  1.6290  3.3503
  189DOPC  C21823332   3.697   2.154   6.356  0.1841 -0.7728  0.5994
  189DOPC  H18R23333   3.732   2.089   6.439  0.2916 -1.9245 -0.3090
  189DOPC  H18S23334   3.592   2.188   6.364  0.5320  0.4765  0.0426
  189DOPC  H18T23335   3.753   2.250   6.353  1.7933 -1.5107  3.3267
  189DOPC   C3323336   4.322   1.780   4.774  0.0518  0.3504  0.0548
  189DOPC   H3X23337   4.274   1.702   4.837  0.3693  0.9013  0.9894
  189DOPC   H3Y23338   4.285   1.882   4.796 -0.7035  0.1896 -0.4401
  189DOPC   C3423339   4.470   1.782   4.816 -0.1990 -0.2413 -0.0392
  189DOPC   H4X23340   4.518   1.859   4.751 -1.4816  0.8521  0.2706
  189DOPC   H4Y23341   4.527   1.689   4.795  2.9681  1.4724  0.2596
  189DOPC   C3523342   4.485   1.821   4.965 -0.4720 -0.5103  0.7345
  189DOPC   H5X23343   4.391   1.851   5.016 -0.1836 -1.1846  1.7047
  189DOPC   H5Y23344   4.552   1.910   4.965  0.1580 -0.9562 -0.5376
  189DOPC   C3623345   4.540   1.702   5.044 -0.1498 -0.6852 -0.2980
  189DOPC   H6X23346   4.491   1.606   5.018  0.2519 -0.5651 -1.5532
  189DOPC   H6Y23347   4.647   1.678   5.028  0.1905  0.5157  0.0422
  189DOPC   C3723348   4.520   1.733   5.193 -0.3700  0.0020  0.0729
  189DOPC   H7X23349   4.425   1.786   5.213 -0.1225 -0.4660  2.8023
  189DOPC   H7Y23350   4.523   1.637   5.249 -1.1861  0.4816  0.9599
  189DOPC   C3823351   4.631   1.815   5.268 -0.0508 -0.3707  0.4251
  189DOPC   H8X23352   4.649   1.911   5.216  1.2060 -0.1201  1.2780
  189DOPC   H8Y23353   4.725   1.757   5.258  0.2553  0.3191 -1.0127
  189DOPC   C3923354   4.629   1.853   5.416 -0.4970  0.5026  0.2498
  189DOPC   H9X23355   4.640   1.959   5.439 -1.2932  0.3440  1.4299
  189DOPC  C31023356   4.625   1.768   5.522 -0.0552  0.4998  0.4718
  189DOPC  H10X23357   4.611   1.812   5.622  0.8815 -1.3643  1.4742
  189DOPC  C31123358   4.629   1.618   5.536 -0.6732 -0.3336 -0.2109
  189DOPC  H11X23359   4.694   1.588   5.451  1.4361 -2.2849  1.9396
  189DOPC  H11Y23360   4.528   1.573   5.522 -0.5433 -0.8334  0.4257
  189DOPC  C31223361   4.684   1.557   5.670  0.1087 -0.2590  0.0813
  189DOPC  H12X23362   4.791   1.586   5.664 -0.1204  0.4512 -0.8031
  189DOPC  H12Y23363   4.684   1.446   5.660  1.4082 -0.2347 -0.3765
  189DOPC  C31323364   4.606   1.610   5.796 -0.9061 -0.5843 -0.6446
  189DOPC  H13X23365   4.665   1.693   5.841  0.0817 -1.2974 -0.5863
  189DOPC  H13Y23366   4.507   1.651   5.768 -1.3733 -0.1430  1.4811
  189DOPC  C31423367   4.594   1.495   5.904 -0.2187 -0.0668  0.2368
  189DOPC  H14X23368   4.568   1.401   5.851  0.4430 -0.9393  1.4196
  189DOPC  H14Y23369   4.689   1.472   5.957  0.0019 -2.0072 -0.9004
  189DOPC  C31523370   4.481   1.507   6.005  0.8015  0.1280 -0.4917
  189DOPC  H15X23371   4.392   1.559   5.963  0.6146  1.9685  1.9486
  189DOPC  H15Y23372   4.506   1.578   6.086 -0.2252  0.1567 -0.1838
  189DOPC  C31623373   4.426   1.378   6.080 -0.0202 -0.4095 -0.3815
  189DOPC  H16X23374   4.370   1.306   6.017 -0.6222 -1.4559  1.2865
  189DOPC  H16Y23375   4.518   1.321   6.103  0.2968  0.9879  2.2050
  189DOPC  C31723376   4.357   1.408   6.213 -0.2488 -0.2855 -0.6867
  189DOPC  H17X23377   4.404   1.482   6.282 -0.0062 -0.4600 -0.6625
  189DOPC  H17Y23378   4.252   1.441   6.197 -0.0597  0.6400 -0.1321
  189DOPC  C31823379   4.348   1.271   6.299  0.2962 -0.7198 -0.8705
  189DOPC  H18X23380   4.453   1.241   6.319  0.2271 -0.1595  0.4704
  189DOPC  H18Y23381   4.295   1.292   6.395  1.4954 -0.4929 -0.2344
  189DOPC  H18Z23382   4.299   1.184   6.250 -1.1565 -0.6194  0.3059
  190DOPC     N23383   2.420   6.577   4.062 -0.4465  0.0004  0.1235
  190DOPC   C1223384   2.408   6.702   4.148 -0.3466 -0.2131  0.3050
  190DOPC  H12A23385   2.466   6.782   4.102 -2.3539  0.9953 -0.2740
  190DOPC  H12B23386   2.441   6.681   4.249  0.4677  1.0463  0.3289
  190DOPC   C1323387   2.571   6.546   4.056  0.0163  0.1931  0.1972
  190DOPC  H13A23388   2.627   6.633   4.028 -2.2825  0.8476 -2.8919
  190DOPC  H13B23389   2.604   6.514   4.154  2.3658 -0.2471 -0.6868
  190DOPC  H13C23390   2.594   6.462   3.992 -0.5034  0.6612 -0.6205
  190DOPC   C1423391   2.352   6.595   3.922 -0.3196 -0.6579  0.1962
  190DOPC  H14A23392   2.252   6.635   3.921  0.2611  0.9634 -2.4238
  190DOPC  H14B23393   2.415   6.667   3.872 -0.0730 -0.2008  1.1329
  190DOPC  H14C23394   2.340   6.497   3.877 -3.6710 -0.7680  1.0817
  190DOPC   C1523395   2.342   6.463   4.135 -0.2141 -0.2826 -0.7172
  190DOPC  H15A23396   2.323   6.383   4.065  1.3112 -1.1259 -0.2030
  190DOPC  H15B23397   2.249   6.512   4.161 -0.1903 -0.5706 -0.0679
  190DOPC  H15C23398   2.382   6.428   4.229 -0.3077  3.4878  0.8895
  190DOPC   C1123399   2.272   6.764   4.171 -0.5711  0.3238 -0.2336
  190DOPC  H11A23400   2.204   6.689   4.216 -0.1302  0.4710  0.7018
  190DOPC  H11B23401   2.291   6.838   4.251  0.6559  0.7035 -0.8420
  190DOPC     P23402   2.248   6.966   4.011  0.0300 -0.4818 -0.5319
  190DOPC   O1323403   2.197   7.000   3.874  0.4410 -0.0829  0.1754
  190DOPC   O1423404   2.391   7.000   4.033  0.1460  0.2936 -0.3370
  190DOPC   O1223405   2.220   6.817   4.049  0.1439 -0.2357 -0.3862
  190DOPC   O1123406   2.160   7.045   4.117 -0.0010  0.6237 -0.4633
  190DOPC    C123407   2.046   6.991   4.183 -0.0267  0.3407  0.0962
  190DOPC    HA23408   2.038   7.035   4.285  1.2311 -0.1760  0.4427
  190DOPC    HB23409   2.064   6.885   4.213  1.7320  0.9501  1.3413
  190DOPC    C223410   1.905   7.003   4.113 -0.0663 -0.2207  0.7354
  190DOPC    HS23411   1.894   6.938   4.023 -0.1219  0.4611  0.2397
  190DOPC   O2123412   1.890   7.139   4.071 -0.5307 -0.2814  0.0118
  190DOPC   C2123413   1.790   7.162   3.989 -0.0600  0.4755 -0.4952
  190DOPC   O2223414   1.709   7.080   3.949  0.1377 -0.4736  0.1789
  190DOPC   C2223415   1.769   7.309   3.954  0.1398  0.2254 -0.6394
  190DOPC   H2R23416   1.693   7.328   3.876 -0.8904  0.1390  0.3212
  190DOPC   H2S23417   1.864   7.357   3.920  0.2028  2.8409  2.6545
  190DOPC    C323418   1.797   6.960   4.215 -0.1397 -0.6038  0.1643
  190DOPC    HX23419   1.822   6.854   4.232  0.1693 -0.8732 -1.6874
  190DOPC    HY23420   1.695   6.967   4.170  1.0403  0.6928 -2.5771
  190DOPC   O3123421   1.806   7.039   4.334  0.1705 -0.4395 -0.2479
  190DOPC   C3123422   1.691   7.049   4.396 -0.7824  0.1329 -0.1345
  190DOPC   O3223423   1.589   6.986   4.382  0.4530  0.5475  0.0872
  190DOPC   C3223424   1.700   7.152   4.506  0.3048 -0.5126  0.3527
  190DOPC   H2X23425   1.804   7.164   4.541 -0.3453 -0.5179  2.3976
  190DOPC   H2Y23426   1.678   7.253   4.464  0.1097  0.5792  2.9014
  190DOPC   C2323427   1.739   7.387   4.099 -0.1226  0.4885  0.0909
  190DOPC   H3R23428   1.751   7.496   4.077  1.0147 -0.1792 -3.0120
  190DOPC   H3S23429   1.815   7.353   4.173  1.1159 -1.0350 -1.7912
  190DOPC   C2423430   1.594   7.365   4.158  0.3304 -0.1529 -0.0707
  190DOPC   H4R23431   1.589   7.264   4.204 -0.5659  0.4815  1.2959
  190DOPC   H4S23432   1.516   7.376   4.080  0.6304 -1.4978 -0.6059
  190DOPC   C2523433   1.563   7.469   4.275  0.3610  0.2476  0.6618
  190DOPC   H5R23434   1.613   7.562   4.242 -2.5717  1.2231 -1.4445
  190DOPC   H5S23435   1.618   7.434   4.365  0.4325  2.1159  1.3852
  190DOPC   C2623436   1.412   7.477   4.296  0.0615 -0.5985  0.6954
  190DOPC   H6R23437   1.378   7.371   4.298 -0.4150 -0.4394  2.2962
  190DOPC   H6S23438   1.362   7.512   4.203 -0.4207  0.6012  1.3906
  190DOPC   C2723439   1.358   7.552   4.417  0.2231  0.3029 -0.3249
  190DOPC   H7R23440   1.249   7.565   4.397 -0.5621 -0.5932  2.7559
  190DOPC   H7S23441   1.408   7.651   4.415  1.3853 -0.2827 -1.1640
  190DOPC   C2823442   1.382   7.480   4.548  0.3019  0.1136 -0.9840
  190DOPC   H8R23443   1.353   7.547   4.632 -2.2925 -0.4648 -1.3480
  190DOPC   H8S23444   1.491   7.461   4.562 -0.1252 -0.2889  3.3593
  190DOPC   C2923445   1.302   7.351   4.555 -0.2429  0.0649 -0.6104
  190DOPC   H9R23446   1.293   7.292   4.463  1.6121 -2.0096  0.4529
  190DOPC  C21023447   1.257   7.300   4.673  0.6052 -0.3032  1.0844
  190DOPC  H10R23448   1.181   7.221   4.662  0.1710  0.3781 -1.8737
  190DOPC  C21123449   1.263   7.369   4.806 -0.2116  0.5225  0.2418
  190DOPC  H11R23450   1.207   7.462   4.783 -0.6621 -0.0577 -1.1148
  190DOPC  H11S23451   1.364   7.390   4.849 -0.7545  1.7046  0.9919
  190DOPC  C21223452   1.179   7.304   4.915  0.4927 -0.4803 -0.4278
  190DOPC  H12R23453   1.233   7.210   4.937  2.8796  0.8090 -0.4732
  190DOPC  H12S23454   1.075   7.293   4.876  1.2469 -0.9792 -2.4421
  190DOPC  C21323455   1.178   7.390   5.054 -0.6970  0.1210  0.2732
  190DOPC  H13R23456   1.154   7.491   5.014 -1.2132 -0.8916 -2.1489
  190DOPC  H13S23457   1.283   7.385   5.090  0.0737  3.5931 -1.0997
  190DOPC  C21423458   1.080   7.338   5.164  0.3153  0.6771  0.3572
  190DOPC  H14R23459   1.099   7.231   5.187  0.0645  0.0145 -2.2130
  190DOPC  H14S23460   0.977   7.343   5.122  0.7327 -0.7479 -0.8982
  190DOPC  C21523461   1.079   7.417   5.291  0.4983 -0.2901 -0.4680
  190DOPC  H15R23462   1.065   7.526   5.270 -1.8622 -0.3337  0.5550
  190DOPC  H15S23463   1.174   7.400   5.346  0.4240 -1.5479 -0.6999
  190DOPC  C21623464   0.969   7.368   5.387 -0.3728 -0.3521  0.1511
  190DOPC  H16R23465   0.998   7.278   5.445 -0.7256 -0.2992  0.4113
  190DOPC  H16S23466   0.873   7.347   5.337 -1.7482  0.8417  2.1246
  190DOPC  C21723467   0.936   7.476   5.494 -0.1890  0.9115 -0.5399
  190DOPC  H17R23468   0.845   7.427   5.537 -0.2356 -1.9536 -3.4916
  190DOPC  H17S23469   0.911   7.569   5.439  1.6784  2.9389  1.7929
  190DOPC  C21823470   1.042   7.494   5.599 -0.7605 -0.1945  0.2182
  190DOPC  H18R23471   1.032   7.415   5.676 -2.8162 -0.3494 -0.1550
  190DOPC  H18S23472   1.050   7.590   5.655  1.2109 -0.0297 -0.2629
  190DOPC  H18T23473   1.140   7.479   5.549 -0.4980 -2.1339  1.2330
  190DOPC   C3323474   1.612   7.114   4.627 -0.2401 -0.0416 -0.1526
  190DOPC   H3X23475   1.621   7.012   4.670 -1.7395  0.4816  1.5461
  190DOPC   H3Y23476   1.502   7.119   4.608 -0.2268 -0.5450 -0.3856
  190DOPC   C3423477   1.637   7.202   4.749  0.7604 -0.0708  0.8497
  190DOPC   H4X23478   1.581   7.296   4.730  0.4199 -0.5014 -0.3380
  190DOPC   H4Y23479   1.744   7.222   4.771  1.2876  0.0406 -1.5544
  190DOPC   C3523480   1.572   7.150   4.876  0.6901 -0.2899 -0.1469
  190DOPC   H5X23481   1.618   7.052   4.899  1.4483 -0.1881 -1.1513
  190DOPC   H5Y23482   1.464   7.133   4.855  0.7979 -0.2970 -0.7002
  190DOPC   C3623483   1.566   7.258   4.993 -0.1361  0.8217  0.3192
  190DOPC   H6X23484   1.658   7.313   5.023 -0.9135  1.8748  0.8261
  190DOPC   H6Y23485   1.507   7.342   4.951 -1.2286  1.3263  2.6770
  190DOPC   C3723486   1.493   7.207   5.120 -0.1729  0.2614 -0.3665
  190DOPC   H7X23487   1.473   7.298   5.181 -0.2542  0.3320 -0.4966
  190DOPC   H7Y23488   1.393   7.168   5.090  0.8770 -1.0802 -2.3658
  190DOPC   C3823489   1.561   7.085   5.192 -0.1483 -0.5586  0.1943
  190DOPC   H8X23490   1.585   6.999   5.126 -0.5501  0.4283 -1.2792
  190DOPC   H8Y23491   1.495   7.046   5.272  0.0592 -1.3940 -0.0330
  190DOPC   C3923492   1.690   7.137   5.250 -0.5844 -0.0825  0.0382
  190DOPC   H9X23493   1.771   7.131   5.175  1.2101  4.4986  1.2787
  190DOPC  C31023494   1.711   7.183   5.373 -0.2934 -0.3547 -0.5653
  190DOPC  H10X23495   1.806   7.236   5.388 -2.2712  3.4820 -0.4665
  190DOPC  C31123496   1.613   7.201   5.487  0.5594 -0.0532  0.0438
  190DOPC  H11X23497   1.512   7.173   5.450  0.3086  2.4800 -1.4544
  190DOPC  H11Y23498   1.614   7.310   5.510  0.3237  0.1579 -0.9172
  190DOPC  C31223499   1.648   7.121   5.605 -0.1178  0.2314 -0.1633
  190DOPC  H12X23500   1.741   7.159   5.653 -1.0681  3.1888 -0.4845
  190DOPC  H12Y23501   1.655   7.015   5.572  2.2738  0.1478  0.4173
  190DOPC  C31323502   1.540   7.140   5.718  0.5763  0.1882  0.2063
  190DOPC  H13X23503   1.531   7.246   5.751 -3.4564  0.6011 -1.4963
  190DOPC  H13Y23504   1.440   7.122   5.672  0.3477  2.0245 -0.1034
  190DOPC  C31423505   1.558   7.049   5.837 -0.1007 -0.2681  0.6764
  190DOPC  H14X23506   1.584   6.946   5.806 -0.8144  0.1658 -1.4830
  190DOPC  H14Y23507   1.640   7.089   5.901 -0.1506  0.0910  0.5140
  190DOPC  C31523508   1.433   7.031   5.924 -0.3339 -0.1067 -0.1579
  190DOPC  H15X23509   1.379   6.957   5.861  0.8722 -0.5996 -0.6327
  190DOPC  H15Y23510   1.387   7.132   5.929 -1.8431 -0.7608 -0.3564
  190DOPC  C31623511   1.461   6.966   6.056 -0.0770 -0.2760  0.2695
  190DOPC  H16X23512   1.375   6.982   6.124  0.2102  2.0337  0.1598
  190DOPC  H16Y23513   1.469   6.856   6.041 -0.8019 -0.3213  0.2024
  190DOPC  C31723514   1.589   7.019   6.133  1.4307 -0.4021 -0.5490
  190DOPC  H17X23515   1.679   6.989   6.074  0.7704 -1.1984 -1.1739
  190DOPC  H17Y23516   1.595   7.129   6.150  1.2374 -0.6168  1.0834
  190DOPC  C31823517   1.606   6.956   6.266  0.2145 -0.1302 -0.2858
  190DOPC  H18X23518   1.603   6.846   6.250  1.1053 -0.1275 -0.5331
  190DOPC  H18Y23519   1.696   6.996   6.317  0.4520 -1.2762  0.2143
  190DOPC  H18Z23520   1.521   6.989   6.329 -1.6035 -1.4194 -1.9461
  191DOPC     N23521   5.346   0.393   3.305 -0.3943  0.0617  0.1607
  191DOPC   C1223522   5.214   0.410   3.382  0.2602 -0.4106  0.7002
  191DOPC  H12A23523   5.171   0.312   3.394  0.2841 -0.4901  0.1793
  191DOPC  H12B23524   5.139   0.466   3.328 -0.2781 -1.4714  0.3047
  191DOPC   C1323525   5.318   0.362   3.159  0.3157 -0.4294 -0.3024
  191DOPC  H13A23526   5.256   0.274   3.154  1.3714 -1.2682  0.7680
  191DOPC  H13B23527   5.270   0.441   3.103  0.1181 -1.1758 -1.2157
  191DOPC  H13C23528   5.411   0.336   3.109  0.8849  0.8397  0.0565
  191DOPC   C1423529   5.427   0.280   3.365 -1.0561  0.1748  0.0108
  191DOPC  H14A23530   5.432   0.294   3.472 -2.0845  0.8395 -0.0114
  191DOPC  H14B23531   5.393   0.180   3.343  2.1816 -1.4932  1.7968
  191DOPC  H14C23532   5.529   0.280   3.331 -1.2235 -2.3017 -0.6619
  191DOPC   C1523533   5.438   0.518   3.308 -0.1643  0.4309 -0.2054
  191DOPC  H15A23534   5.468   0.535   3.411  0.8715 -2.0191 -0.0238
  191DOPC  H15B23535   5.381   0.597   3.263 -0.1154  1.3526  1.2982
  191DOPC  H15C23536   5.525   0.497   3.247 -0.1525 -1.8397  0.4793
  191DOPC   C1123537   5.219   0.479   3.521 -0.7019  0.6161  0.0566
  191DOPC  H11A23538   5.256   0.583   3.511 -1.3135  0.6684 -2.4121
  191DOPC  H11B23539   5.118   0.494   3.565 -1.5251 -0.2295 -1.4506
  191DOPC     P23540   5.258   0.290   3.694 -0.1476  0.1510  0.0529
  191DOPC   O1323541   5.381   0.218   3.737  0.1906  0.1883  0.2355
  191DOPC   O1423542   5.160   0.211   3.608  0.0964  0.1086  0.3917
  191DOPC   O1223543   5.305   0.410   3.608 -0.1264  0.2745  0.1568
  191DOPC   O1123544   5.188   0.349   3.821  0.2506  0.1810 -0.4408
  191DOPC    C123545   5.209   0.489   3.852 -0.1942  0.1555  0.8894
  191DOPC    HA23546   5.162   0.553   3.774 -0.7963 -0.0071  1.1218
  191DOPC    HB23547   5.318   0.511   3.859  0.4693 -2.6103  0.5954
  191DOPC    C223548   5.153   0.535   3.995 -0.5965  0.3311  0.6574
  191DOPC    HS23549   5.151   0.646   3.983  0.7157  0.3651  0.5928
  191DOPC   O2123550   5.240   0.495   4.094 -0.0506 -0.1733 -0.2597
  191DOPC   C2123551   5.243   0.567   4.206  0.2766 -0.3973 -0.1317
  191DOPC   O2223552   5.207   0.682   4.213  0.0030 -0.1098  0.3182
  191DOPC   C2223553   5.304   0.488   4.323 -0.1470 -0.6725  0.1159
  191DOPC   H2R23554   5.315   0.378   4.306  0.0912 -1.0233  2.3016
  191DOPC   H2S23555   5.227   0.492   4.403  0.7041 -0.5907  0.9485
  191DOPC    C323556   5.013   0.470   4.002  0.2819 -0.5485 -0.2907
  191DOPC    HX23557   5.033   0.362   3.987  2.5474 -0.0344 -1.3668
  191DOPC    HY23558   4.943   0.504   3.922 -1.6655 -2.1872  0.6356
  191DOPC   O3123559   4.949   0.496   4.129  0.3104  0.4783  0.7156
  191DOPC   C3123560   4.890   0.613   4.140 -0.0507  0.4720 -0.4547
  191DOPC   O3223561   4.894   0.709   4.072 -0.4707 -0.5722  0.2892
  191DOPC   C3223562   4.815   0.615   4.276 -0.0634 -0.1333  0.1703
  191DOPC   H2X23563   4.710   0.648   4.261  0.1869  0.8184  0.4035
  191DOPC   H2Y23564   4.801   0.511   4.312  1.4559 -0.7167 -0.8404
  191DOPC   C2323565   5.444   0.555   4.352 -0.1350  0.2543 -0.9613
  191DOPC   H3R23566   5.434   0.660   4.387  0.3221 -0.4774  1.5457
  191DOPC   H3S23567   5.499   0.571   4.257  0.8436 -1.0378 -0.6445
  191DOPC   C2423568   5.529   0.473   4.456 -0.1454 -0.2461  0.2660
  191DOPC   H4R23569   5.478   0.460   4.554  2.3021 -1.3433  1.4923
  191DOPC   H4S23570   5.620   0.531   4.481  1.4972 -2.8259  0.7146
  191DOPC   C2523571   5.575   0.333   4.410  0.2751 -0.3278  0.5569
  191DOPC   H5R23572   5.618   0.338   4.308  0.0478  1.4103  0.5174
  191DOPC   H5S23573   5.489   0.264   4.419 -0.7476  0.8791  0.3366
  191DOPC   C2623574   5.687   0.272   4.495  0.1669 -0.0992  0.5528
  191DOPC   H6R23575   5.694   0.162   4.481  1.3717 -0.1322  1.2730
  191DOPC   H6S23576   5.668   0.272   4.604  4.4783 -2.4680  1.5545
  191DOPC   C2723577   5.828   0.327   4.471 -0.4963  0.3374 -0.2100
  191DOPC   H7R23578   5.829   0.432   4.436 -1.6611  0.3844 -0.1603
  191DOPC   H7S23579   5.883   0.269   4.394  1.0577  1.2640  0.1707
  191DOPC   C2823580   5.924   0.333   4.594  0.6745 -0.3761  0.3073
  191DOPC   H8R23581   5.875   0.394   4.672 -0.1830 -0.7758  0.0857
  191DOPC   H8S23582   6.022   0.382   4.574  0.9384 -0.7276  0.7053
  191DOPC   C2923583   5.939   0.188   4.627  0.2096  0.8635 -0.0036
  191DOPC   H9R23584   5.985   0.134   4.543 -0.8048  1.7809 -1.1877
  191DOPC  C21023585   5.920   0.126   4.740 -0.1361 -0.0518 -0.0597
  191DOPC  H10R23586   5.941   0.018   4.740  1.2310  0.1787 -1.0639
  191DOPC  C21123587   5.892   0.177   4.886 -0.5976 -0.5527  0.5173
  191DOPC  H11R23588   5.791   0.156   4.926 -0.9517  1.5936  0.8895
  191DOPC  H11S23589   5.907   0.287   4.888  1.1275 -0.7074 -1.3842
  191DOPC  C21223590   5.987   0.117   4.987 -0.3387  0.3234 -0.2245
  191DOPC  H12R23591   6.091   0.136   4.952 -1.1917  1.3089 -2.4408
  191DOPC  H12S23592   5.979   0.006   4.991 -0.1946  0.3431  0.8011
  191DOPC  C21323593   5.970   0.171   5.128  0.0655 -0.7999  0.4027
  191DOPC  H13R23594   5.876   0.124   5.164 -0.7729 -1.0374 -1.9557
  191DOPC  H13S23595   5.957   0.281   5.133  1.9603 -0.5913  2.1111
  191DOPC  C21423596   6.090   0.122   5.217 -0.3400 -0.1070 -0.0693
  191DOPC  H14R23597   6.183   0.173   5.184 -1.6340  1.8256 -0.9121
  191DOPC  H14S23598   6.091   0.012   5.198 -0.6018 -0.0859 -0.2148
  191DOPC  C21523599   6.059   0.153   5.362 -0.0914 -0.3062 -0.2115
  191DOPC  H15R23600   5.967   0.103   5.400  0.0226  1.9213  3.4688
  191DOPC  H15S23601   6.043   0.262   5.371  0.6611  0.0511 -2.5642
  191DOPC  C21623602   6.164   0.116   5.464  0.2695  0.2646 -0.3687
  191DOPC  H16R23603   6.250   0.185   5.445 -1.5501  2.6938 -0.2761
  191DOPC  H16S23604   6.188   0.011   5.436 -0.9122  0.0574 -0.6582
  191DOPC  C21723605   6.112   0.123   5.609  0.7030  0.8620 -0.1544
  191DOPC  H17R23606   6.160   0.040   5.666 -2.9726 -0.6288  1.1241
  191DOPC  H17S23607   6.004   0.100   5.625  1.0135  0.0202  0.8304
  191DOPC  C21823608   6.126   0.257   5.683  0.0344 -0.1373  0.8511
  191DOPC  H18R23609   6.081   0.240   5.784 -2.0855  1.4942  0.2669
  191DOPC  H18S23610   6.064   0.330   5.626  1.7652  0.5894 -0.1533
  191DOPC  H18T23611   6.230   0.294   5.693 -0.4336  0.8313  2.4960
  191DOPC   C3323612   4.890   0.714   4.371 -0.4024  0.1953  0.0247
  191DOPC   H3X23613   4.811   0.772   4.425  1.4806  1.3673  1.6848
  191DOPC   H3Y23614   4.955   0.786   4.317 -1.6452  1.7118  0.4784
  191DOPC   C3423615   4.969   0.647   4.483 -0.3865  0.2402 -0.4251
  191DOPC   H4X23616   5.049   0.594   4.427  0.3180  1.6515 -0.8276
  191DOPC   H4Y23617   4.908   0.577   4.543  1.2197 -0.4210  0.5071
  191DOPC   C3523618   5.049   0.734   4.575  0.6406 -0.6652 -0.6560
  191DOPC   H5X23619   4.969   0.802   4.611  2.6835  1.5611 -0.0170
  191DOPC   H5Y23620   5.118   0.801   4.518 -1.0879  1.0823 -0.8076
  191DOPC   C3623621   5.125   0.656   4.684  0.4490  0.6915  0.0627
  191DOPC   H6X23622   5.067   0.578   4.737  2.1312  0.1022  1.1103
  191DOPC   H6Y23623   5.208   0.606   4.629  0.4395  1.1757 -0.4032
  191DOPC   C3723624   5.188   0.741   4.788  0.3085  0.1275  0.9880
  191DOPC   H7X23625   5.238   0.822   4.732 -0.4853 -1.5734 -2.4396
  191DOPC   H7Y23626   5.096   0.766   4.845 -0.5803 -1.9835  0.6078
  191DOPC   C3823627   5.282   0.670   4.883  0.4756 -0.1366 -0.8643
  191DOPC   H8X23628   5.366   0.625   4.826  0.5747 -2.9785  1.2495
  191DOPC   H8Y23629   5.219   0.595   4.937 -0.3085  1.1864  0.1154
  191DOPC   C3923630   5.343   0.775   4.974 -0.6299  0.4077  0.3274
  191DOPC   H9X23631   5.408   0.851   4.929 -0.7475 -0.6849 -1.8465
  191DOPC  C31023632   5.355   0.764   5.108 -0.5701 -0.2877  0.1573
  191DOPC  H10X23633   5.412   0.845   5.155  2.3023  0.0566 -3.5079
  191DOPC  C31123634   5.296   0.656   5.196 -0.2831  0.0424 -0.9345
  191DOPC  H11X23635   5.370   0.575   5.213  0.9320  1.3736  0.3981
  191DOPC  H11Y23636   5.206   0.605   5.156 -0.3151  1.0332 -2.1996
  191DOPC  C31223637   5.255   0.713   5.335 -0.0204 -0.1710  0.0504
  191DOPC  H12X23638   5.192   0.643   5.394 -1.0890 -0.9693 -1.9371
  191DOPC  H12Y23639   5.182   0.794   5.312  1.3396  0.6937 -1.4481
  191DOPC  C31323640   5.376   0.754   5.427  0.0981 -0.1936  0.4245
  191DOPC  H13X23641   5.452   0.673   5.426 -0.9691 -1.3311  3.0773
  191DOPC  H13Y23642   5.419   0.847   5.384  2.2879 -1.1969  0.3382
  191DOPC  C31423643   5.316   0.784   5.568 -0.0489 -0.1016  1.0741
  191DOPC  H14X23644   5.270   0.884   5.567 -0.2636 -0.2063  0.3245
  191DOPC  H14Y23645   5.238   0.710   5.594  0.7301 -1.1048  0.6525
  191DOPC  C31523646   5.425   0.773   5.681  0.2102 -0.0580 -0.3850
  191DOPC  H15X23647   5.509   0.829   5.635 -0.4413  1.0805 -0.2113
  191DOPC  H15Y23648   5.459   0.667   5.688 -2.3343 -0.8919  0.5138
  191DOPC  C31623649   5.390   0.844   5.813  0.4391  0.2686  0.1956
  191DOPC  H16X23650   5.395   0.953   5.790  0.7604  0.4369  1.0490
  191DOPC  H16Y23651   5.282   0.825   5.829  0.0371  1.4794 -0.8377
  191DOPC  C31723652   5.488   0.840   5.933 -0.2847  0.4804 -0.9148
  191DOPC  H17X23653   5.587   0.876   5.897 -0.0861 -0.3248 -1.2007
  191DOPC  H17Y23654   5.462   0.913   6.012 -2.0962  0.1550 -1.1715
  191DOPC  C31823655   5.497   0.699   5.987  0.0418 -0.4230 -0.4638
  191DOPC  H18X23656   5.570   0.682   6.069 -0.3653 -0.6329 -0.1398
  191DOPC  H18Y23657   5.401   0.662   6.031 -1.0582  1.6813 -0.9751
  191DOPC  H18Z23658   5.505   0.627   5.903 -0.0329 -1.1709  0.1557
  192DOPC     N23659   2.064   5.970   3.549 -0.1561  0.3827 -0.3229
  192DOPC   C1223660   2.167   6.077   3.541  0.2915  0.5219  0.4018
  192DOPC  H12A23661   2.113   6.168   3.563 -2.2883 -0.7636 -0.2645
  192DOPC  H12B23662   2.189   6.081   3.435 -0.3658 -2.2597  0.0841
  192DOPC   C1323663   1.956   5.985   3.455  0.4091 -0.1167  0.5245
  192DOPC  H13A23664   1.873   5.921   3.480  1.4105 -1.2613  0.9807
  192DOPC  H13B23665   1.924   6.088   3.459  0.5307 -0.0541 -0.0211
  192DOPC  H13C23666   1.989   5.953   3.357 -0.2295  0.8351 -0.0143
  192DOPC   C1423667   2.002   5.955   3.687  0.0403 -0.3863 -0.1569
  192DOPC  H14A23668   1.942   5.866   3.701 -2.9465  0.7311 -4.1423
  192DOPC  H14B23669   2.074   5.971   3.766  0.2412  2.9840 -0.8835
  192DOPC  H14C23670   1.929   6.033   3.702  1.4116  0.6729  1.3977
  192DOPC   C1523671   2.118   5.835   3.514 -0.1168  0.2395 -0.4920
  192DOPC  H15A23672   2.046   5.757   3.536  1.5348 -1.5733 -1.2103
  192DOPC  H15B23673   2.208   5.808   3.567  0.5542 -1.4525 -2.3700
  192DOPC  H15C23674   2.148   5.816   3.412  3.2324  0.0591  0.4069
  192DOPC   C1123675   2.285   6.073   3.640 -0.5066 -0.3575 -0.2312
  192DOPC  H11A23676   2.348   5.988   3.607  0.3023  0.1853 -0.1243
  192DOPC  H11B23677   2.347   6.164   3.622 -0.8047 -0.1345 -0.1534
  192DOPC     P23678   2.216   6.200   3.850  0.0644 -0.1702  0.1295
  192DOPC   O1323679   2.180   6.311   3.754 -0.4645 -0.2370 -0.0856
  192DOPC   O1423680   2.338   6.226   3.930  0.0084 -0.5322  0.0443
  192DOPC   O1223681   2.241   6.061   3.777 -0.5973 -0.4127  0.8874
  192DOPC   O1123682   2.091   6.178   3.938  0.1566  0.2608  0.2671
  192DOPC    C123683   2.061   6.051   4.003 -0.5514  0.2904 -0.3045
  192DOPC    HA23684   2.131   5.965   3.999 -0.5053  0.3686 -1.8919
  192DOPC    HB23685   1.972   6.002   3.958  0.6641 -2.4341  0.0552
  192DOPC    C223686   2.042   6.078   4.156 -0.3850 -0.1165 -0.1202
  192DOPC    HS23687   2.019   5.986   4.213  0.8322 -1.0526 -1.0880
  192DOPC   O2123688   1.942   6.182   4.168  0.2843  0.1471  0.4150
  192DOPC   C2123689   1.822   6.130   4.157 -0.7683  0.7240 -0.2149
  192DOPC   O2223690   1.801   6.008   4.141 -0.5101  0.2144 -0.1336
  192DOPC   C2223691   1.717   6.229   4.174 -0.0965 -0.3932 -0.1860
  192DOPC   H2R23692   1.632   6.198   4.109 -0.6403 -0.8670  0.7383
  192DOPC   H2S23693   1.757   6.324   4.132  0.1830 -1.2802 -2.0381
  192DOPC    C323694   2.168   6.130   4.216  0.3537  0.9171  0.1580
  192DOPC    HX23695   2.196   6.221   4.158 -0.9848  0.0745 -1.9465
  192DOPC    HY23696   2.233   6.042   4.199 -2.6167 -2.1856  3.2988
  192DOPC   O3123697   2.155   6.158   4.357 -0.4911  0.5781 -0.0345
  192DOPC   C3123698   2.173   6.062   4.433 -0.5550  0.0240 -0.1356
  192DOPC   O3223699   2.186   5.944   4.406  0.1498 -0.3405 -0.3821
  192DOPC   C3223700   2.161   6.110   4.579 -0.2359 -0.5610  0.7375
  192DOPC   H2X23701   2.263   6.136   4.613 -0.0207 -0.2749 -0.1035
  192DOPC   H2Y23702   2.102   6.204   4.589 -1.4047 -1.2421  0.4028
  192DOPC   C2323703   1.656   6.254   4.311 -0.4338 -0.2151  0.3321
  192DOPC   H3R23704   1.604   6.160   4.336 -0.9284 -0.2127 -0.6170
  192DOPC   H3S23705   1.582   6.337   4.305  0.5678  0.6524 -0.4484
  192DOPC   C2423706   1.759   6.280   4.426  0.1759  0.4153  0.2074
  192DOPC   H4R23707   1.818   6.368   4.393 -1.1504  0.3524 -2.6263
  192DOPC   H4S23708   1.841   6.207   4.440  0.6412  0.8661 -0.1013
  192DOPC   C2523709   1.689   6.304   4.564 -0.1920  0.2123  0.8140
  192DOPC   H5R23710   1.661   6.204   4.604 -1.0620  0.5618  1.0965
  192DOPC   H5S23711   1.594   6.355   4.542 -0.0981 -0.0678 -0.3048
  192DOPC   C2623712   1.785   6.373   4.652  0.3362 -0.0836  0.3757
  192DOPC   H6R23713   1.794   6.474   4.606 -2.0724 -0.8039 -1.8561
  192DOPC   H6S23714   1.892   6.343   4.649  0.1730 -0.8517  1.6219
  192DOPC   C2723715   1.744   6.374   4.802  0.2942 -0.1574  0.1795
  192DOPC   H7R23716   1.708   6.271   4.826 -0.0207  0.2333  1.4419
  192DOPC   H7S23717   1.653   6.437   4.810  1.2568  1.2699  0.0949
  192DOPC   C2823718   1.843   6.431   4.900 -0.1406 -0.0930  0.3958
  192DOPC   H8R23719   1.832   6.541   4.883 -1.1379 -0.2973 -0.3998
  192DOPC   H8S23720   1.943   6.398   4.865 -0.5735  0.0176 -1.0200
  192DOPC   C2923721   1.802   6.391   5.042 -0.4294 -0.1533 -0.5291
  192DOPC   H9R23722   1.847   6.299   5.082  1.4799  0.7789 -0.4179
  192DOPC  C21023723   1.721   6.463   5.122  0.2353 -0.3540  0.7787
  192DOPC  H10R23724   1.716   6.434   5.228  2.5780 -0.3067  0.9468
  192DOPC  C21123725   1.663   6.599   5.097  0.2283 -1.3645 -0.3634
  192DOPC  H11R23726   1.567   6.617   5.149  0.9507  0.7324  0.3335
  192DOPC  H11S23727   1.652   6.625   4.990 -0.1018  1.4781  0.2940
  192DOPC  C21223728   1.756   6.721   5.147  0.3103 -0.1449 -0.2523
  192DOPC  H12R23729   1.700   6.814   5.123  0.9244 -0.2263 -2.1110
  192DOPC  H12S23730   1.846   6.709   5.083 -0.7316  0.2411 -1.8405
  192DOPC  C21323731   1.782   6.725   5.303  0.3265 -0.8871  0.1223
  192DOPC  H13R23732   1.855   6.807   5.312  0.7651 -1.2624  0.0077
  192DOPC  H13S23733   1.835   6.635   5.340  4.0646  1.4580  0.9661
  192DOPC  C21423734   1.652   6.744   5.379 -0.2742 -0.0331 -0.5407
  192DOPC  H14R23735   1.562   6.717   5.319  0.2398 -0.5050 -1.1073
  192DOPC  H14S23736   1.637   6.849   5.411 -0.2962 -0.3322  0.4776
  192DOPC  C21523737   1.654   6.654   5.506 -0.2502 -0.2175 -0.0999
  192DOPC  H15R23738   1.750   6.673   5.558  0.2966 -0.6068 -0.9456
  192DOPC  H15S23739   1.651   6.546   5.480  0.8118 -0.1254 -0.6487
  192DOPC  C21623740   1.537   6.688   5.600 -0.4843  0.1480 -1.0745
  192DOPC  H16R23741   1.443   6.693   5.541 -0.0567  0.5724 -1.7293
  192DOPC  H16S23742   1.553   6.784   5.654  0.2993 -0.1231 -0.8092
  192DOPC  C21723743   1.519   6.584   5.717  0.3041  0.0503 -0.7145
  192DOPC  H17R23744   1.614   6.579   5.773 -0.6008 -2.2977  0.7515
  192DOPC  H17S23745   1.500   6.482   5.679  0.3703 -0.2866  0.1305
  192DOPC  C21823746   1.405   6.622   5.815  0.2965 -0.1421  0.3521
  192DOPC  H18R23747   1.414   6.727   5.847  0.7776  0.4469 -1.5860
  192DOPC  H18S23748   1.391   6.552   5.900 -2.2418 -0.1310  0.0164
  192DOPC  H18T23749   1.305   6.621   5.767 -0.4997 -0.6085  1.9451
  192DOPC   C3323750   2.094   6.002   4.670 -0.2130 -0.5379  0.4696
  192DOPC   H3X23751   2.119   6.017   4.777  0.7293  2.3922 -0.0813
  192DOPC   H3Y23752   2.141   5.903   4.649  0.2955 -0.3271  0.6005
  192DOPC   C3423753   1.943   5.997   4.658 -0.2947 -0.5484 -0.5416
  192DOPC   H4X23754   1.911   5.966   4.556 -0.8068 -0.5159 -0.3941
  192DOPC   H4Y23755   1.908   6.101   4.678 -0.6662 -0.6746 -0.5296
  192DOPC   C3523756   1.883   5.913   4.761  0.2450 -0.2800 -0.0537
  192DOPC   H5X23757   1.946   5.932   4.850  0.0014  2.6954 -0.4159
  192DOPC   H5Y23758   1.883   5.803   4.743 -1.5722 -0.0153 -2.0736
  192DOPC   C3623759   1.740   5.953   4.800  0.1663  0.0809  0.0173
  192DOPC   H6X23760   1.753   6.053   4.846 -1.6367  0.3838 -0.0697
  192DOPC   H6Y23761   1.685   5.970   4.705 -1.5047 -1.3977  0.6695
  192DOPC   C3723762   1.665   5.860   4.900  0.0557 -0.6174 -0.2388
  192DOPC   H7X23763   1.560   5.897   4.913  0.7175  1.0359  0.8091
  192DOPC   H7Y23764   1.661   5.760   4.853 -1.9682 -1.0349  0.7024
  192DOPC   C3823765   1.724   5.876   5.038  0.0275  0.5865 -0.2420
  192DOPC   H8X23766   1.833   5.856   5.027 -0.2698 -0.9314 -0.6585
  192DOPC   H8Y23767   1.699   5.788   5.102  1.9475 -1.1382 -1.7063
  192DOPC   C3923768   1.691   6.008   5.104 -0.6483  1.0446 -0.5488
  192DOPC   H9X23769   1.775   6.078   5.090  0.9744 -1.0271 -1.8384
  192DOPC  C31023770   1.588   6.037   5.186  0.9495 -0.0411  0.1657
  192DOPC  H10X23771   1.592   6.122   5.256  1.0921 -1.9491  2.6234
  192DOPC  C31123772   1.465   5.949   5.223 -0.9285  0.3506 -0.0303
  192DOPC  H11X23773   1.470   5.857   5.161  2.1477 -1.8000  3.0845
  192DOPC  H11Y23774   1.369   5.999   5.195 -0.2053  1.9181  0.1612
  192DOPC  C31223775   1.474   5.932   5.374  0.0905  0.3470  0.1203
  192DOPC  H12X23776   1.582   5.921   5.398  0.3041  1.0026 -0.5090
  192DOPC  H12Y23777   1.416   5.843   5.405  1.2672  0.0445  1.6340
  192DOPC  C31323778   1.430   6.051   5.468  0.2330  0.0583 -0.2369
  192DOPC  H13X23779   1.470   6.150   5.439 -0.9165  0.3428 -0.9330
  192DOPC  H13Y23780   1.319   6.063   5.466  0.1408 -0.5711  0.3787
  192DOPC  C31423781   1.460   6.029   5.619 -0.0147 -0.7410  0.5711
  192DOPC  H14X23782   1.406   5.938   5.653 -1.1556 -0.3014 -0.0456
  192DOPC  H14Y23783   1.569   6.010   5.631  0.0564 -0.5734  0.1929
  192DOPC  C31523784   1.434   6.150   5.712  0.0281 -0.0758  0.0210
  192DOPC  H15X23785   1.335   6.196   5.691  0.4822  0.2714 -1.4336
  192DOPC  H15Y23786   1.513   6.220   5.679  0.7487 -0.7468  0.2845
  192DOPC  C31623787   1.448   6.096   5.857 -0.7479 -0.1174  0.5077
  192DOPC  H16X23788   1.369   6.019   5.869 -2.7237  1.7124  0.0068
  192DOPC  H16Y23789   1.553   6.064   5.872 -0.4169  0.4164 -0.5132
  192DOPC  C31723790   1.422   6.212   5.962 -0.2633  0.5559  0.6836
  192DOPC  H17X23791   1.467   6.201   6.063  0.5653  1.5818  0.4457
  192DOPC  H17Y23792   1.467   6.300   5.910 -0.4663 -0.4140 -1.2242
  192DOPC  C31823793   1.273   6.236   5.971 -0.0800 -0.3242 -0.9345
  192DOPC  H18X23794   1.259   6.313   6.050  2.2306 -0.5027 -0.2814
  192DOPC  H18Y23795   1.211   6.251   5.880 -1.1747  1.2250  0.0173
  192DOPC  H18Z23796   1.227   6.146   6.018  1.7685 -0.1344  1.4127
  193DOPC     N23797   6.620   1.794   3.073 -0.1439 -0.1915  0.7313
  193DOPC   C1223798   6.521   1.823   3.188  0.5154  0.1120 -0.5417
  193DOPC  H12A23799   6.516   1.735   3.249 -0.3018 -0.0577 -0.8507
  193DOPC  H12B23800   6.424   1.844   3.146 -0.3202  2.3752  2.1643
  193DOPC   C1323801   6.629   1.909   2.980  0.0751  0.5420 -0.0054
  193DOPC  H13A23802   6.710   1.911   2.909 -0.7909 -0.4164 -1.0454
  193DOPC  H13B23803   6.539   1.923   2.922  0.9789  3.1877 -0.9322
  193DOPC  H13C23804   6.649   1.996   3.041  0.4961  1.2060 -1.0573
  193DOPC   C1423805   6.575   1.665   3.002 -0.7965 -0.2036 -0.0427
  193DOPC  H14A23806   6.614   1.663   2.901  0.3997 -2.4464  0.4039
  193DOPC  H14B23807   6.607   1.576   3.053 -2.0489 -0.8281 -0.3298
  193DOPC  H14C23808   6.468   1.659   2.998 -0.9333  1.5002  0.3844
  193DOPC   C1523809   6.760   1.771   3.124  0.3375 -0.2334 -0.5998
  193DOPC  H15A23810   6.756   1.671   3.165  0.2721  0.2865  0.7012
  193DOPC  H15B23811   6.778   1.839   3.206  0.5365 -0.8770 -0.0953
  193DOPC  H15C23812   6.836   1.789   3.049  1.3597  0.2721  0.5161
  193DOPC   C1123813   6.559   1.938   3.284 -0.1102 -0.4439  0.0502
  193DOPC  H11A23814   6.575   2.032   3.227  2.6146  1.1470  3.1068
  193DOPC  H11B23815   6.463   1.956   3.337 -1.6441  0.1188 -2.7578
  193DOPC     P23816   6.677   1.802   3.480  0.0403 -0.0258 -0.1288
  193DOPC   O1323817   6.755   1.695   3.432  0.3262  0.4652  0.6221
  193DOPC   O1423818   6.536   1.779   3.531 -0.4055 -0.1498 -0.8115
  193DOPC   O1223819   6.670   1.917   3.370  0.5285  0.1228 -0.8763
  193DOPC   O1123820   6.752   1.878   3.600 -0.3418  0.8847 -0.2243
  193DOPC    C123821   6.722   2.017   3.619  0.2058  0.1420 -0.0753
  193DOPC    HA23822   6.613   2.036   3.631  0.4144  0.9447  0.6403
  193DOPC    HB23823   6.759   2.074   3.532  0.7816 -0.7143 -0.3983
  193DOPC    C223824   6.793   2.068   3.747 -0.2801  0.9058 -0.5347
  193DOPC    HS23825   6.902   2.044   3.743 -0.2808  0.5274  1.0696
  193DOPC   O2123826   6.733   2.020   3.874  0.1831 -0.3463  0.0855
  193DOPC   C2123827   6.794   1.908   3.921  0.6195 -0.7099  0.5432
  193DOPC   O2223828   6.878   1.847   3.866 -0.3671  0.3291 -0.1161
  193DOPC   C2223829   6.732   1.864   4.054 -0.8748 -0.3942  0.5893
  193DOPC   H2R23830   6.738   1.754   4.036 -1.1283 -0.1321 -1.3637
  193DOPC   H2S23831   6.629   1.893   4.086 -0.1812  0.2978  2.2702
  193DOPC    C323832   6.784   2.218   3.761  0.2708 -0.0311  0.0398
  193DOPC    HX23833   6.679   2.246   3.782  0.1547  1.4117 -2.1130
  193DOPC    HY23834   6.811   2.259   3.661 -2.3389 -2.5309 -1.8553
  193DOPC   O3123835   6.872   2.273   3.864  0.3138 -0.0235 -0.3823
  193DOPC   C3123836   6.826   2.373   3.934 -0.1436 -0.2149 -0.5780
  193DOPC   O3223837   6.719   2.427   3.923  0.7439 -0.3295 -0.0117
  193DOPC   C3223838   6.921   2.407   4.045 -0.5429  0.2248 -0.0221
  193DOPC   H2X23839   6.947   2.313   4.100 -0.2362  0.9323  1.0771
  193DOPC   H2Y23840   7.010   2.457   4.001 -0.4309 -0.0167 -0.0746
  193DOPC   C2323841   6.822   1.893   4.180  0.1655 -0.2462 -0.7251
  193DOPC   H3R23842   6.926   1.918   4.152 -0.6334  2.1182 -1.9005
  193DOPC   H3S23843   6.809   1.810   4.253 -0.5150 -0.3782 -0.9895
  193DOPC   C2423844   6.775   2.016   4.256  0.0732  0.3402  0.1548
  193DOPC   H4R23845   6.671   2.007   4.293 -1.0331 -3.5543 -3.1085
  193DOPC   H4S23846   6.782   2.106   4.191  0.5219  0.9424  1.0131
  193DOPC   C2523847   6.859   2.031   4.388 -0.0819  0.4938  0.0862
  193DOPC   H5R23848   6.965   2.058   4.369  0.0665  1.3297  1.8771
  193DOPC   H5S23849   6.870   1.927   4.425  0.3928  0.1792 -0.9084
  193DOPC   C2623850   6.797   2.126   4.486  0.0039  0.0415 -0.4049
  193DOPC   H6R23851   6.724   2.066   4.544 -0.0323 -0.2888 -0.7948
  193DOPC   H6S23852   6.739   2.202   4.431 -0.1158 -0.6408 -1.2305
  193DOPC   C2723853   6.909   2.216   4.558  0.2633 -0.0569  0.5268
  193DOPC   H7R23854   6.962   2.281   4.486 -0.0350 -0.2019  0.1734
  193DOPC   H7S23855   6.983   2.142   4.596  2.1548  0.3756 -2.0964
  193DOPC   C2823856   6.856   2.302   4.677  0.2530 -0.2817 -0.0089
  193DOPC   H8R23857   6.805   2.236   4.750  1.5022 -2.0965 -0.6866
  193DOPC   H8S23858   6.787   2.379   4.637 -0.4123 -1.3166 -0.9457
  193DOPC   C2923859   6.964   2.385   4.743 -0.0779  0.5754  0.1451
  193DOPC   H9R23860   7.007   2.464   4.679 -1.4448 -0.0803 -1.6725
  193DOPC  C21023861   7.026   2.353   4.862 -0.2504  0.1371 -0.3112
  193DOPC  H10R23862   7.091   2.434   4.899  0.1372  0.3344 -1.4059
  193DOPC  C21123863   6.994   2.236   4.948 -0.1341 -0.1533 -0.1690
  193DOPC  H11R23864   7.091   2.190   4.975  0.7947  0.5486 -2.1411
  193DOPC  H11S23865   6.947   2.155   4.890  2.1406 -0.4804 -1.6863
  193DOPC  C21223866   6.918   2.275   5.076 -0.1430 -0.0836  0.9111
  193DOPC  H12R23867   6.811   2.301   5.062 -0.3010 -0.8434  0.6736
  193DOPC  H12S23868   6.972   2.355   5.131  0.8229  0.5399 -0.8469
  193DOPC  C21323869   6.918   2.161   5.172 -0.4963  0.5183 -0.0995
  193DOPC  H13R23870   7.015   2.108   5.173 -1.5150 -1.4637 -1.0627
  193DOPC  H13S23871   6.846   2.083   5.142 -0.8136  0.4386  0.8368
  193DOPC  C21423872   6.878   2.215   5.309  0.4822  0.4107  0.0489
  193DOPC  H14R23873   6.784   2.274   5.300 -0.2869 -1.1526 -4.8347
  193DOPC  H14S23874   6.955   2.283   5.353  0.2866  0.2220  0.6894
  193DOPC  C21523875   6.865   2.103   5.409 -0.0654  0.8182  0.4784
  193DOPC  H15R23876   6.947   2.034   5.381 -1.1277 -0.1182 -0.4849
  193DOPC  H15S23877   6.765   2.062   5.383  0.1186 -0.4726  1.6835
  193DOPC  C21623878   6.886   2.136   5.556 -0.8550  0.4122  0.0569
  193DOPC  H16R23879   6.850   2.052   5.619 -0.9960  1.8190  1.9332
  193DOPC  H16S23880   6.824   2.223   5.586 -1.7456  0.5140 -1.9438
  193DOPC  C21723881   7.030   2.173   5.590  0.3150  0.1288 -0.0399
  193DOPC  H17R23882   7.062   2.259   5.527  1.1102 -0.4689 -0.4563
  193DOPC  H17S23883   7.111   2.098   5.580  0.8865  0.6179  0.7678
  193DOPC  C21823884   7.027   2.214   5.740 -0.0864 -0.0765  0.3415
  193DOPC  H18R23885   6.945   2.286   5.760  0.9550  1.3647 -0.3658
  193DOPC  H18S23886   7.122   2.253   5.784 -0.0594  2.3520 -1.6397
  193DOPC  H18T23887   7.008   2.125   5.803  2.8502 -0.3591  0.9960
  193DOPC   C3323888   6.852   2.509   4.140  1.2073  0.0856 -0.0980
  193DOPC   H3X23889   6.745   2.484   4.159  1.4226 -1.1697 -0.4167
  193DOPC   H3Y23890   6.840   2.599   4.076  0.3888 -0.1551 -0.3024
  193DOPC   C3423891   6.930   2.540   4.267 -0.1778 -0.6500  0.8095
  193DOPC   H4X23892   6.955   2.455   4.334  2.8492 -1.1038 -0.6890
  193DOPC   H4Y23893   6.874   2.614   4.329  0.9900 -0.9849  2.3202
  193DOPC   C3523894   7.058   2.615   4.230 -0.6078 -0.7733  0.4488
  193DOPC   H5X23895   7.045   2.709   4.172 -2.0130 -0.3017  1.4936
  193DOPC   H5Y23896   7.104   2.558   4.146 -1.4928  1.4612 -1.6806
  193DOPC   C3623897   7.152   2.642   4.343  0.3365  0.4048  0.9427
  193DOPC   H6X23898   7.178   2.542   4.383  0.4937  0.0194 -0.0981
  193DOPC   H6Y23899   7.249   2.666   4.294 -0.2373 -0.8977 -0.9366
  193DOPC   C3723900   7.095   2.730   4.451 -0.2618  0.5200 -1.0808
  193DOPC   H7X23901   7.099   2.832   4.407  0.8369  1.4066  0.9386
  193DOPC   H7Y23902   6.986   2.724   4.474 -0.7174  2.3697 -2.4978
  193DOPC   C3823903   7.177   2.718   4.584  0.4248  0.6853 -0.3737
  193DOPC   H8X23904   7.285   2.735   4.564  0.1958  1.7505 -0.7792
  193DOPC   H8Y23905   7.165   2.614   4.621  1.8173  0.4155 -0.6058
  193DOPC   C3923906   7.130   2.824   4.679 -0.0235 -0.7050  0.0694
  193DOPC   H9X23907   7.110   2.918   4.625  0.4751 -0.7199 -0.1392
  193DOPC  C31023908   7.117   2.811   4.807  0.0435  0.2488  0.6574
  193DOPC  H10X23909   7.110   2.907   4.860  1.0327  0.5973  0.1777
  193DOPC  C31123910   7.153   2.692   4.891  0.3862  0.9436  0.9402
  193DOPC  H11X23911   7.220   2.626   4.831 -0.5030 -0.1380  1.0971
  193DOPC  H11Y23912   7.058   2.638   4.914  0.9239 -0.1063  0.7632
  193DOPC  C31223913   7.230   2.738   5.019  0.0728  0.0840  0.3100
  193DOPC  H12X23914   7.163   2.818   5.058 -1.0034  0.1679 -1.5776
  193DOPC  H12Y23915   7.323   2.786   4.983  0.0742 -1.2089 -1.5853
  193DOPC  C31323916   7.250   2.634   5.126 -0.2226 -0.3276  0.6073
  193DOPC  H13X23917   7.162   2.566   5.128 -1.4633  1.1807 -0.7334
  193DOPC  H13Y23918   7.338   2.571   5.099  0.9632  0.6039  2.1169
  193DOPC  C31423919   7.274   2.688   5.266 -0.0469 -0.1415  0.4401
  193DOPC  H14X23920   7.367   2.749   5.270 -1.1393  1.9281 -2.5784
  193DOPC  H14Y23921   7.204   2.771   5.285  0.1252  0.2575 -0.6094
  193DOPC  C31523922   7.262   2.583   5.375 -0.3342 -0.3157 -0.1539
  193DOPC  H15X23923   7.361   2.536   5.390  1.1103  1.7888 -2.4586
  193DOPC  H15Y23924   7.181   2.512   5.347 -2.4729  2.1663 -0.6730
  193DOPC  C31623925   7.211   2.643   5.508 -0.2733 -0.2879  0.5958
  193DOPC  H16X23926   7.287   2.720   5.535  1.4451 -1.0051 -1.8075
  193DOPC  H16Y23927   7.107   2.676   5.487 -1.4328 -4.3393 -0.9476
  193DOPC  C31723928   7.221   2.543   5.621 -1.0636 -0.3400  0.1094
  193DOPC  H17X23929   7.145   2.466   5.598  0.0582 -1.1401 -1.0735
  193DOPC  H17Y23930   7.325   2.505   5.628  0.7562  3.4529 -2.6218
  193DOPC  C31823931   7.173   2.608   5.751  0.6157  0.3884 -0.9156
  193DOPC  H18X23932   7.065   2.629   5.733  0.8374  0.1687 -2.6299
  193DOPC  H18Y23933   7.182   2.536   5.836 -0.5719 -0.4783 -1.4850
  193DOPC  H18Z23934   7.217   2.708   5.768  0.2737  0.6521 -1.5803
  194DOPC     N23935   1.920   1.297   2.939 -0.3005  0.3494  0.3514
  194DOPC   C1223936   1.916   1.368   3.081  0.1789 -0.4005  0.0629
  194DOPC  H12A23937   1.927   1.474   3.063 -1.5077 -0.0564  0.8270
  194DOPC  H12B23938   1.993   1.330   3.145 -1.9652 -1.2028  2.3503
  194DOPC   C1323939   2.059   1.300   2.880  0.0507 -0.1261  0.4017
  194DOPC  H13A23940   2.127   1.249   2.948  0.5962 -0.3351 -0.2831
  194DOPC  H13B23941   2.064   1.247   2.786 -1.8561  0.8113 -0.2644
  194DOPC  H13C23942   2.103   1.398   2.866  2.4945 -1.0650  0.8890
  194DOPC   C1423943   1.831   1.366   2.844  0.6662  0.1414 -0.3681
  194DOPC  H14A23944   1.733   1.364   2.889  0.9669 -1.5442  0.2824
  194DOPC  H14B23945   1.866   1.468   2.831 -0.2715  0.3621 -1.2874
  194DOPC  H14C23946   1.831   1.327   2.743  0.2135 -0.4752 -0.1333
  194DOPC   C1523947   1.872   1.157   2.952  0.0110  0.0146  0.4026
  194DOPC  H15A23948   1.880   1.100   2.860  1.0394  0.6820  0.0504
  194DOPC  H15B23949   1.770   1.147   2.983 -0.8852  3.7690 -0.7805
  194DOPC  H15C23950   1.924   1.094   3.023 -0.5304  0.3355  1.0955
  194DOPC   C1123951   1.786   1.354   3.154 -0.2291  0.1341  0.7629
  194DOPC  H11A23952   1.790   1.433   3.232 -0.6660 -0.2652  1.1969
  194DOPC  H11B23953   1.696   1.378   3.093 -2.2713 -2.3666  2.5333
  194DOPC     P23954   1.860   1.191   3.341 -0.0852  0.0356 -0.3521
  194DOPC   O1323955   1.996   1.162   3.293 -0.6744  0.5765  0.4694
  194DOPC   O1423956   1.795   1.088   3.432 -0.0565 -0.3030  0.2451
  194DOPC   O1223957   1.769   1.226   3.217  0.1114 -0.2116  0.4369
  194DOPC   O1123958   1.866   1.331   3.420  0.1896 -0.0456  0.0657
  194DOPC    C123959   1.754   1.364   3.512  0.2918 -0.1880  0.2285
  194DOPC    HA23960   1.732   1.287   3.588 -0.8948 -1.1074 -0.9982
  194DOPC    HB23961   1.659   1.380   3.456 -0.8954 -1.4070  1.8217
  194DOPC    C223962   1.779   1.499   3.576 -0.4220 -0.5769  0.5659
  194DOPC    HS23963   1.802   1.571   3.494  1.5828 -0.4994  1.1365
  194DOPC   O2123964   1.895   1.487   3.660  1.2002  0.3351  0.5920
  194DOPC   C2123965   1.942   1.608   3.698 -1.3161  0.5295 -0.6280
  194DOPC   O2223966   1.912   1.714   3.649 -0.1290  0.1455 -0.2958
  194DOPC   C2223967   2.033   1.592   3.825  0.2380  0.1144  0.0529
  194DOPC   H2R23968   2.132   1.563   3.784 -0.1699 -1.9937  0.4700
  194DOPC   H2S23969   2.003   1.498   3.874 -1.0879 -0.5081 -1.8162
  194DOPC    C323970   1.654   1.532   3.656  0.0943  0.9609 -0.2649
  194DOPC    HX23971   1.573   1.550   3.582 -1.0347 -1.4840  0.2440
  194DOPC    HY23972   1.670   1.623   3.717 -1.0969  0.2777  1.1622
  194DOPC   O3123973   1.618   1.418   3.736  0.4309 -0.1138 -0.1578
  194DOPC   C3123974   1.613   1.428   3.866 -0.3485  0.2113 -0.2939
  194DOPC   O3223975   1.631   1.530   3.930 -0.3148 -0.3063 -0.3175
  194DOPC   C3223976   1.593   1.291   3.932 -0.2477 -0.8411  0.3263
  194DOPC   H2X23977   1.483   1.284   3.942 -0.4907  0.8528 -0.8194
  194DOPC   H2Y23978   1.628   1.213   3.861  1.1446  1.5227 -1.7520
  194DOPC   C2323979   2.042   1.721   3.909 -0.4926  0.2307 -0.0817
  194DOPC   H3R23980   2.026   1.813   3.848 -1.0053  0.7334  0.7921
  194DOPC   H3S23981   2.148   1.731   3.941  0.4264 -0.2042 -2.7190
  194DOPC   C2423982   1.945   1.727   4.028  0.5333 -0.4087  0.3430
  194DOPC   H4R23983   1.844   1.710   3.985 -0.4550  1.2406  1.8528
  194DOPC   H4S23984   1.942   1.827   4.077  1.0941  0.7425 -1.8120
  194DOPC   C2523985   1.963   1.624   4.141 -0.2026 -0.8986  0.3744
  194DOPC   H5R23986   2.056   1.646   4.198 -0.2788 -2.7737  1.2787
  194DOPC   H5S23987   1.977   1.525   4.093 -0.3334 -1.5347  1.6143
  194DOPC   C2623988   1.842   1.608   4.239 -0.0787  0.2842 -0.0682
  194DOPC   H6R23989   1.759   1.569   4.176  2.4597 -1.0570 -2.7955
  194DOPC   H6S23990   1.818   1.704   4.290  1.3643 -0.7231  2.7408
  194DOPC   C2723991   1.869   1.499   4.343  0.7321  0.5560  0.1185
  194DOPC   H7R23992   1.952   1.539   4.406  0.8016  2.4292 -1.1003
  194DOPC   H7S23993   1.899   1.411   4.282 -1.0073  1.3925 -2.0558
  194DOPC   C2823994   1.747   1.457   4.425  0.4882 -0.1467 -0.2238
  194DOPC   H8R23995   1.768   1.362   4.478 -0.0542  0.5166  1.2273
  194DOPC   H8S23996   1.668   1.436   4.349  0.3320 -0.6644  0.0772
  194DOPC   C2923997   1.701   1.567   4.516  0.5309 -0.7688  0.4173
  194DOPC   H9R23998   1.661   1.655   4.464  1.3599 -1.0914 -0.7999
  194DOPC  C21023999   1.699   1.565   4.657  0.0790  0.1879  0.3160
  194DOPC  H10R24000   1.650   1.645   4.715  1.7741  1.1606  0.4984
  194DOPC  C21124001   1.758   1.462   4.744 -0.0459 -0.5227 -0.9577
  194DOPC  H11R24002   1.835   1.514   4.806 -1.4849 -0.2329  0.6741
  194DOPC  H11S24003   1.795   1.375   4.687 -2.4494 -0.6326 -2.4672
  194DOPC  C21224004   1.651   1.408   4.843 -0.1922 -0.1924  0.0333
  194DOPC  H12R24005   1.696   1.315   4.884  2.5904  0.0286 -2.2282
  194DOPC  H12S24006   1.568   1.366   4.782  0.3746  0.1773 -1.0207
  194DOPC  C21324007   1.610   1.499   4.964  0.1845 -0.4660 -0.2356
  194DOPC  H13R24008   1.567   1.590   4.917  0.6397 -0.3201 -0.3680
  194DOPC  H13S24009   1.698   1.515   5.029  0.7065 -2.1494 -0.4915
  194DOPC  C21424010   1.503   1.438   5.056 -0.4580 -0.7090  0.2088
  194DOPC  H14R24011   1.515   1.328   5.070  0.7953 -0.9303 -2.0576
  194DOPC  H14S24012   1.413   1.446   4.993  0.2705 -2.2302 -1.1005
  194DOPC  C21524013   1.509   1.509   5.197  0.9438  0.9297  0.4478
  194DOPC  H15R24014   1.500   1.619   5.188  0.5491  1.0338  1.8487
  194DOPC  H15S24015   1.604   1.496   5.253  0.3836  1.2335  1.5074
  194DOPC  C21624016   1.407   1.452   5.296 -0.3351 -0.4573  0.0551
  194DOPC  H16R24017   1.443   1.351   5.327  1.4033  0.8544  2.6345
  194DOPC  H16S24018   1.314   1.450   5.235 -0.0962 -2.1467 -0.3186
  194DOPC  C21724019   1.400   1.543   5.421 -0.4694  0.5835  0.1724
  194DOPC  H17R24020   1.372   1.644   5.385  0.1059  1.3784  1.8531
  194DOPC  H17S24021   1.503   1.538   5.462 -1.2570  1.8601  2.4809
  194DOPC  C21824022   1.292   1.496   5.526  0.7461  0.5401 -0.0088
  194DOPC  H18R24023   1.188   1.512   5.492  0.7699 -1.9835 -1.5313
  194DOPC  H18S24024   1.304   1.557   5.619  1.4415 -2.1527  1.7898
  194DOPC  H18T24025   1.317   1.390   5.547  1.2735  0.7413  0.4111
  194DOPC   C3324026   1.662   1.278   4.070  0.3373 -0.2176  0.6228
  194DOPC   H3X24027   1.634   1.365   4.134 -0.5091 -0.5756  0.7604
  194DOPC   H3Y24028   1.771   1.292   4.058  0.2483 -0.6974 -0.9746
  194DOPC   C3424029   1.619   1.155   4.153 -0.3082 -0.1475  0.1790
  194DOPC   H4X24030   1.664   1.069   4.100  1.5062  1.4848 -1.0401
  194DOPC   H4Y24031   1.508   1.152   4.154 -0.2975 -0.6359  1.5264
  194DOPC   C3524032   1.669   1.156   4.299  0.0488 -0.0240  0.5870
  194DOPC   H5X24033   1.614   1.242   4.344 -3.9627 -2.7458  1.4577
  194DOPC   H5Y24034   1.778   1.175   4.308 -0.2779  1.0275  3.0919
  194DOPC   C3624035   1.638   1.029   4.379  0.0198  0.1222  1.1683
  194DOPC   H6X24036   1.529   1.009   4.375 -0.2337  1.5020  0.6213
  194DOPC   H6Y24037   1.702   0.947   4.341 -0.6803  0.8407 -1.7999
  194DOPC   C3724038   1.677   1.077   4.526 -0.0491 -0.0310 -0.8512
  194DOPC   H7X24039   1.785   1.102   4.533  0.3651 -1.8429 -0.3643
  194DOPC   H7Y24040   1.614   1.164   4.554 -0.2294  0.2984 -2.1971
  194DOPC   C3824041   1.651   0.964   4.632  0.2072  0.2228 -0.3844
  194DOPC   H8X24042   1.699   0.872   4.593 -0.7289 -1.2990  1.8125
  194DOPC   H8Y24043   1.542   0.941   4.629  0.1846  0.4173 -2.3798
  194DOPC   C3924044   1.710   0.997   4.772  0.4004  0.1113 -0.3697
  194DOPC   H9X24045   1.789   1.073   4.767  1.6947 -1.2730 -2.3451
  194DOPC  C31024046   1.675   0.946   4.889 -0.9893  0.0444  0.7890
  194DOPC  H10X24047   1.720   0.984   4.982 -1.3974 -0.3036  1.1320
  194DOPC  C31124048   1.577   0.837   4.907 -0.3473 -0.0995  0.2916
  194DOPC  H11X24049   1.626   0.768   4.979  0.4453 -1.2817 -1.3231
  194DOPC  H11Y24050   1.563   0.790   4.807 -1.7335  2.4145 -0.7843
  194DOPC  C31224051   1.449   0.899   4.951  0.7253 -0.2687  0.2794
  194DOPC  H12X24052   1.380   0.813   4.943  1.6348 -0.9821 -0.0063
  194DOPC  H12Y24053   1.420   0.981   4.881  0.4338  0.1973  0.9318
  194DOPC  C31324054   1.451   0.957   5.092  0.2715 -0.3163  0.1508
  194DOPC  H13X24055   1.550   1.007   5.098 -0.9556  2.1861  1.5405
  194DOPC  H13Y24056   1.383   1.045   5.102  0.0324 -0.6589  1.8636
  194DOPC  C31424057   1.423   0.861   5.205 -0.4443  0.0113  0.1373
  194DOPC  H14X24058   1.340   0.797   5.168  0.0786 -0.0903 -0.8811
  194DOPC  H14Y24059   1.498   0.780   5.210  0.2397  0.6437  0.2768
  194DOPC  C31524060   1.402   0.920   5.345  0.3011  0.2832  0.0995
  194DOPC  H15X24061   1.320   0.995   5.344 -1.1001 -1.1775 -1.2487
  194DOPC  H15Y24062   1.494   0.976   5.371 -0.2539  2.1110 -1.6170
  194DOPC  C31624063   1.374   0.809   5.457  0.1468 -0.0174  0.0651
  194DOPC  H16X24064   1.268   0.785   5.437  0.1078  0.9065 -0.9076
  194DOPC  H16Y24065   1.444   0.722   5.454  2.3795  1.5223  2.6219
  194DOPC  C31724066   1.376   0.866   5.601  0.3772  0.4614 -0.1157
  194DOPC  H17X24067   1.285   0.929   5.609 -0.5321 -0.6910 -0.9517
  194DOPC  H17Y24068   1.355   0.782   5.670 -0.7498 -0.7952 -1.8698
  194DOPC  C31824069   1.509   0.934   5.640 -0.2259 -0.3200  0.0484
  194DOPC  H18X24070   1.503   1.042   5.611 -0.0090  0.2198  1.8718
  194DOPC  H18Y24071   1.530   0.930   5.749  0.5443 -1.0886 -0.1171
  194DOPC  H18Z24072   1.598   0.893   5.587  1.3657 -0.8812  2.9673
  195DOPC     N24073   1.496   0.152   3.483  1.5232 -0.0257 -0.4765
  195DOPC   C1224074   1.486   0.271   3.580  0.2492  0.7110  0.5408
  195DOPC  H12A24075   1.409   0.332   3.534 -0.7792 -2.3654 -2.2638
  195DOPC  H12B24076   1.581   0.323   3.578  0.4404  0.3630  0.5960
  195DOPC   C1324077   1.374   0.066   3.486 -0.2440  0.2791 -1.0398
  195DOPC  H13A24078   1.362   0.023   3.584 -0.6260  3.0258  0.2107
  195DOPC  H13B24079   1.285   0.128   3.482 -1.3403 -0.9360  2.0411
  195DOPC  H13C24080   1.376  -0.004   3.404 -0.2813 -1.1210  0.1167
  195DOPC   C1424081   1.615   0.072   3.528 -0.1751 -0.0675  0.0067
  195DOPC  H14A24082   1.698   0.140   3.515  0.0368 -0.7186 -2.6339
  195DOPC  H14B24083   1.611   0.035   3.629 -2.8300 -0.2015 -0.0843
  195DOPC  H14C24084   1.628  -0.007   3.455  0.8899  0.2869 -0.2095
  195DOPC   C1524085   1.523   0.199   3.349 -0.5629  0.3278  0.7877
  195DOPC  H15A24086   1.452   0.277   3.328 -0.0418  0.9750  1.3820
  195DOPC  H15B24087   1.512   0.122   3.274 -3.9503  0.6317  0.8411
  195DOPC  H15C24088   1.614   0.258   3.347 -0.6163  0.4134  0.8872
  195DOPC   C1124089   1.450   0.235   3.729 -0.5082  0.4833  0.0558
  195DOPC  H11A24090   1.514   0.149   3.759 -2.2923 -0.2541  2.0209
  195DOPC  H11B24091   1.474   0.330   3.781  1.3972  1.0778 -1.7580
  195DOPC     P24092   1.206   0.301   3.763 -0.0047 -0.2085  0.5509
  195DOPC   O1324093   1.074   0.243   3.805 -0.3381 -0.2511 -0.0240
  195DOPC   O1424094   1.204   0.391   3.641 -0.1511 -0.0639 -0.4868
  195DOPC   O1224095   1.313   0.190   3.754 -0.5252  0.6528  0.3221
  195DOPC   O1124096   1.261   0.393   3.881  0.0773  0.4533  0.3920
  195DOPC    C124097   1.291   0.348   4.012 -0.1803  0.1811  0.0203
  195DOPC    HA24098   1.377   0.404   4.054 -0.4326 -0.1273  0.9723
  195DOPC    HB24099   1.314   0.240   4.009 -0.0660  0.2096 -0.1303
  195DOPC    C224100   1.170   0.367   4.105  0.3845 -0.0547  0.3736
  195DOPC    HS24101   1.091   0.309   4.053 -1.0744 -1.7239  4.0905
  195DOPC   O2124102   1.144   0.511   4.115 -0.2451 -0.0400 -0.3387
  195DOPC   C2124103   1.022   0.559   4.097  0.5776 -0.1521  0.2574
  195DOPC   O2224104   0.919   0.493   4.074 -0.3842 -0.2886 -0.4418
  195DOPC   C2224105   1.026   0.709   4.091  0.4870 -0.6731 -0.1383
  195DOPC   H2R24106   1.017   0.745   3.986  1.0295  1.5721  0.5305
  195DOPC   H2S24107   1.125   0.742   4.130  0.8637 -1.6239 -0.2685
  195DOPC    C324108   1.187   0.297   4.242  0.3755 -0.5362  0.5224
  195DOPC    HX24109   1.280   0.346   4.277  1.8280 -2.3963 -0.5544
  195DOPC    HY24110   1.197   0.187   4.230 -1.9174 -0.8617  1.0616
  195DOPC   O3124111   1.073   0.318   4.327 -0.1376 -0.5578 -0.4271
  195DOPC   C3124112   0.957   0.259   4.297  0.1275 -0.5417  0.5621
  195DOPC   O3224113   0.942   0.172   4.211 -0.5387  0.0708 -0.2231
  195DOPC   C3224114   0.850   0.314   4.395  0.1378 -0.0724 -0.7291
  195DOPC   H2X24115   0.832   0.421   4.375 -0.2646  0.0615  0.2604
  195DOPC   H2Y24116   0.758   0.255   4.371 -0.7607  0.2482  1.6361
  195DOPC   C2324117   0.901   0.760   4.166  0.4123 -0.9031  0.6175
  195DOPC   H3R24118   0.811   0.711   4.124  0.3588 -0.3047  0.0121
  195DOPC   H3S24119   0.899   0.871   4.154 -1.6493 -1.0749 -1.2181
  195DOPC   C2424120   0.906   0.730   4.320 -0.7289  0.6703  0.2450
  195DOPC   H4R24121   1.008   0.701   4.351 -1.1627 -0.5696  0.5667
  195DOPC   H4S24122   0.845   0.641   4.347 -1.4350  1.1183  0.1615
  195DOPC   C2524123   0.884   0.846   4.414 -0.2660 -1.0281 -0.4102
  195DOPC   H5R24124   0.778   0.880   4.405  0.0442 -0.2481 -1.3448
  195DOPC   H5S24125   0.954   0.927   4.383  0.5249 -1.7536 -0.5427
  195DOPC   C2624126   0.899   0.812   4.571 -0.4895  0.6995  0.1099
  195DOPC   H6R24127   1.007   0.789   4.581 -0.9876 -1.2008  1.6743
  195DOPC   H6S24128   0.856   0.711   4.589  0.0021  0.4385 -0.1662
  195DOPC   C2724129   0.849   0.917   4.671 -0.1474 -0.1112 -0.1216
  195DOPC   H7R24130   0.742   0.937   4.650  0.0597  2.1372  0.6550
  195DOPC   H7S24131   0.894   1.016   4.645 -0.9726  0.0015 -1.1506
  195DOPC   C2824132   0.885   0.878   4.812  0.1286  0.3266 -0.6892
  195DOPC   H8R24133   0.858   0.962   4.880 -1.0866  0.0354 -0.7827
  195DOPC   H8S24134   0.994   0.867   4.829  0.6035  0.0835 -3.4634
  195DOPC   C2924135   0.809   0.756   4.851 -0.1173 -0.0748  0.5735
  195DOPC   H9R24136   0.856   0.665   4.812 -2.1624 -1.0306  0.2399
  195DOPC  C21024137   0.708   0.741   4.939  0.4129  0.2668  0.6357
  195DOPC  H10R24138   0.671   0.639   4.954 -0.5490  0.4020 -0.5860
  195DOPC  C21124139   0.630   0.834   5.021  0.2814 -0.1510  0.2172
  195DOPC  H11R24140   0.522   0.846   4.995  0.8581  1.6741 -1.6400
  195DOPC  H11S24141   0.669   0.936   4.998  0.0288 -0.3709 -1.2810
  195DOPC  C21224142   0.644   0.806   5.169 -0.3335  0.0443  0.0914
  195DOPC  H12R24143   0.753   0.805   5.194 -0.3432  0.8889  0.2127
  195DOPC  H12S24144   0.603   0.705   5.187  2.1162 -1.1564 -0.6399
  195DOPC  C21324145   0.582   0.913   5.256 -0.8104  0.1731 -0.2429
  195DOPC  H13R24146   0.472   0.912   5.237 -0.9159 -0.4136  0.3513
  195DOPC  H13S24147   0.617   1.016   5.233  0.7035 -0.3166 -0.2350
  195DOPC  C21424148   0.611   0.883   5.405 -0.4579  0.1274 -0.9514
  195DOPC  H14R24149   0.716   0.907   5.434 -1.3950  1.7345  1.3509
  195DOPC  H14S24150   0.596   0.776   5.429 -0.8480  0.8467  2.3944
  195DOPC  C21524151   0.519   0.953   5.508  0.3902 -0.3062 -0.0375
  195DOPC  H15R24152   0.410   0.933   5.501  0.2165  0.9707 -1.5289
  195DOPC  H15S24153   0.522   1.062   5.487 -0.4965 -0.2290  0.1792
  195DOPC  C21624154   0.565   0.933   5.658 -0.2421  0.7431 -0.1554
  195DOPC  H16R24155   0.557   1.023   5.723 -0.6241  1.9382 -1.8015
  195DOPC  H16S24156   0.673   0.908   5.645 -0.8337 -0.8456 -2.8643
  195DOPC  C21724157   0.493   0.814   5.721  0.3013 -0.0484 -0.5573
  195DOPC  H17R24158   0.513   0.712   5.683  0.4164 -0.0733 -0.4266
  195DOPC  H17S24159   0.383   0.821   5.708 -0.0306 -3.0409 -0.0819
  195DOPC  C21824160   0.516   0.820   5.873 -0.0246 -0.3174 -0.1088
  195DOPC  H18R24161   0.471   0.732   5.923 -1.9615  0.5078 -0.2979
  195DOPC  H18S24162   0.480   0.917   5.914  1.3919 -0.2611  1.0690
  195DOPC  H18T24163   0.625   0.828   5.894  0.2618 -0.5211 -1.4045
  195DOPC   C3324164   0.868   0.296   4.547 -0.2419  0.0187 -0.4308
  195DOPC   H3X24165   0.949   0.360   4.588  0.9936 -1.6503 -0.1476
  195DOPC   H3Y24166   0.889   0.188   4.562  0.1903  0.0542 -0.7521
  195DOPC   C3424167   0.739   0.335   4.625 -0.4224 -0.6709 -0.2844
  195DOPC   H4X24168   0.654   0.282   4.576 -0.6609 -2.4605  1.9006
  195DOPC   H4Y24169   0.725   0.445   4.612  1.2803 -0.5525 -1.3729
  195DOPC   C3524170   0.762   0.306   4.773  0.3221 -0.0854 -0.5673
  195DOPC   H5X24171   0.829   0.370   4.834 -2.9370  0.6714  2.6010
  195DOPC   H5Y24172   0.810   0.206   4.782 -0.0854 -0.6065 -3.2895
  195DOPC   C3624173   0.637   0.295   4.857 -0.4279 -0.3334  0.8237
  195DOPC   H6X24174   0.583   0.391   4.866  0.1169  0.1009 -0.3776
  195DOPC   H6Y24175   0.567   0.220   4.814  0.5107 -0.6447 -0.2044
  195DOPC   C3724176   0.668   0.258   5.005 -0.3034 -0.1737  0.4875
  195DOPC   H7X24177   0.740   0.173   5.011  0.1388  0.2452  1.4522
  195DOPC   H7Y24178   0.727   0.343   5.046 -0.7577  0.3859 -0.0083
  195DOPC   C3824179   0.545   0.248   5.090  0.2624  0.5444 -0.0249
  195DOPC   H8X24180   0.474   0.186   5.030  0.0443  1.1917 -0.4379
  195DOPC   H8Y24181   0.488   0.342   5.103 -0.3225  0.0741  0.9241
  195DOPC   C3924182   0.570   0.177   5.218 -0.2178  0.1266  0.4364
  195DOPC   H9X24183   0.636   0.089   5.219  0.7035  0.7749 -0.9277
  195DOPC  C31024184   0.508   0.210   5.330  0.7271  0.6441 -0.3856
  195DOPC  H10X24185   0.539   0.151   5.417  3.1324 -0.2942 -1.7826
  195DOPC  C31124186   0.416   0.327   5.361 -0.5954 -1.0266  0.1416
  195DOPC  H11X24187   0.334   0.293   5.427 -0.4692 -0.9564  0.3347
  195DOPC  H11Y24188   0.374   0.361   5.264  0.1191  2.4958  0.9226
  195DOPC  C31224189   0.502   0.436   5.426  0.1876  1.2548  0.2245
  195DOPC  H12X24190   0.446   0.532   5.432 -0.3005  0.9371  0.8055
  195DOPC  H12Y24191   0.604   0.445   5.383 -0.5119  1.7230 -1.3991
  195DOPC  C31324192   0.530   0.399   5.576  0.0751 -0.0149  0.1381
  195DOPC  H13X24193   0.542   0.499   5.623 -1.6181  0.5575 -0.5908
  195DOPC  H13Y24194   0.445   0.347   5.625  1.0800 -1.5708  0.2868
  195DOPC  C31424195   0.667   0.327   5.597  0.1057  0.1668  0.6730
  195DOPC  H14X24196   0.648   0.222   5.564 -1.6365  1.2894 -2.2107
  195DOPC  H14Y24197   0.750   0.359   5.532 -0.1536 -1.3270 -0.4602
  195DOPC  C31524198   0.723   0.330   5.745  0.2818  0.2635  0.1165
  195DOPC  H15X24199   0.646   0.279   5.807  0.2621  0.0987 -0.0414
  195DOPC  H15Y24200   0.732   0.433   5.787 -0.3153 -0.3553  1.8689
  195DOPC  C31624201   0.862   0.261   5.766 -0.0016  0.5462  0.0861
  195DOPC  H16X24202   0.947   0.318   5.722  0.6941 -0.8391 -0.4188
  195DOPC  H16Y24203   0.894   0.260   5.873 -1.1467 -0.8333  0.4529
  195DOPC  C31724204   0.866   0.116   5.729  0.6478  0.0908  0.1358
  195DOPC  H17X24205   0.784   0.072   5.791  1.6148  0.5343  1.7978
  195DOPC  H17Y24206   0.836   0.100   5.623 -1.7220  1.3049  0.5585
  195DOPC  C31824207   0.995   0.040   5.754  0.6043 -0.2710  0.2972
  195DOPC  H18X24208   1.029   0.041   5.860 -1.8884 -1.7722  1.2128
  195DOPC  H18Y24209   0.980  -0.070   5.740  2.0804 -0.5514  0.7777
  195DOPC  H18Z24210   1.081   0.075   5.694 -1.2810  1.3265 -1.6179
  196DOPC     N24211   1.469   3.366   3.568 -0.3493 -0.3929 -0.2790
  196DOPC   C1224212   1.481   3.237   3.655 -0.3268 -0.5417  0.4573
  196DOPC  H12A24213   1.378   3.211   3.673 -0.6504  0.7039  0.4749
  196DOPC  H12B24214   1.516   3.264   3.754 -0.7526 -1.8844  1.0086
  196DOPC   C1324215   1.603   3.428   3.570 -0.8886  0.1342  0.2906
  196DOPC  H13A24216   1.610   3.513   3.503 -2.6429  0.4682  0.5020
  196DOPC  H13B24217   1.627   3.481   3.662 -2.9369  1.6372  0.0301
  196DOPC  H13C24218   1.682   3.358   3.547 -1.1703  0.4416 -1.8088
  196DOPC   C1424219   1.368   3.457   3.624  0.0400  0.1946 -0.1491
  196DOPC  H14A24220   1.382   3.479   3.729 -1.3412 -1.2128  0.3621
  196DOPC  H14B24221   1.353   3.547   3.566 -1.1207 -0.2311 -0.5193
  196DOPC  H14C24222   1.271   3.410   3.622  0.8681 -1.6018 -0.3965
  196DOPC   C1524223   1.427   3.336   3.429 -0.3771  0.4150  0.8022
  196DOPC  H15A24224   1.426   3.421   3.362  1.9061  0.3063  0.5412
  196DOPC  H15B24225   1.330   3.289   3.423  0.3910 -1.0688 -0.8804
  196DOPC  H15C24226   1.485   3.257   3.383  0.9078  1.3861  0.6824
  196DOPC   C1124227   1.572   3.120   3.622 -0.4024 -0.5478 -0.1478
  196DOPC  H11A24228   1.677   3.155   3.614 -1.1733  2.2333  0.7999
  196DOPC  H11B24229   1.561   3.045   3.704 -1.8112  0.2125  0.3854
  196DOPC     P24230   1.449   2.938   3.458 -0.4217 -0.0557  0.0117
  196DOPC   O1324231   1.521   2.872   3.347 -0.1173 -0.3172  0.2533
  196DOPC   O1424232   1.303   2.971   3.445 -0.1667 -0.5159 -0.0089
  196DOPC   O1224233   1.535   3.059   3.503 -0.8998  0.3993  0.1072
  196DOPC   O1124234   1.456   2.850   3.591 -0.3163  0.2297 -0.5259
  196DOPC    C124235   1.522   2.719   3.571  0.1804 -0.4669  0.0473
  196DOPC    HA24236   1.629   2.744   3.558 -0.1344  0.8543 -0.2096
  196DOPC    HB24237   1.485   2.656   3.487 -0.4055 -1.5279  1.0799
  196DOPC    C224238   1.523   2.630   3.701  0.0853 -0.0917  0.0736
  196DOPC    HS24239   1.559   2.529   3.671 -2.5633 -0.3417 -2.7740
  196DOPC   O2124240   1.393   2.613   3.755  0.7880 -0.0686 -0.0354
  196DOPC   C2124241   1.303   2.542   3.695 -0.0158 -0.2297 -0.0633
  196DOPC   O2224242   1.326   2.462   3.604 -0.4943 -0.0903 -0.2150
  196DOPC   C2224243   1.166   2.577   3.754  0.1559 -0.3613 -0.3118
  196DOPC   H2R24244   1.097   2.593   3.669 -1.0734 -1.5182  0.4365
  196DOPC   H2S24245   1.170   2.672   3.812  0.4280 -0.9457  0.6480
  196DOPC    C324246   1.612   2.687   3.813 -0.2395  0.4170 -0.4650
  196DOPC    HX24247   1.579   2.792   3.824 -0.0949  0.5280 -1.0658
  196DOPC    HY24248   1.716   2.693   3.775 -0.6020  0.9477 -1.4014
  196DOPC   O3124249   1.615   2.604   3.927 -0.1872  0.2007 -0.4035
  196DOPC   C3124250   1.532   2.621   4.023 -0.0530  0.5081  0.3166
  196DOPC   O3224251   1.442   2.706   4.025  0.4268  0.3960 -0.4896
  196DOPC   C3224252   1.565   2.527   4.135  0.1974 -0.5991  0.5503
  196DOPC   H2X24253   1.472   2.506   4.192 -0.1731 -4.0725 -1.0502
  196DOPC   H2Y24254   1.610   2.436   4.090  0.7138  1.0960 -2.5890
  196DOPC   C2324255   1.117   2.468   3.857 -0.1632 -0.3291  0.0947
  196DOPC   H3R24256   1.132   2.369   3.809  0.1243  0.0060 -0.5236
  196DOPC   H3S24257   1.009   2.478   3.879 -0.8729 -0.4020 -2.9253
  196DOPC   C2424258   1.194   2.465   3.988 -0.3911  0.4972 -0.2181
  196DOPC   H4R24259   1.188   2.561   4.043  0.2669  0.8944 -0.8182
  196DOPC   H4S24260   1.298   2.451   3.953  0.4909  2.1126  1.6060
  196DOPC   C2524261   1.141   2.358   4.074 -1.5332  0.6010  0.5371
  196DOPC   H5R24262   1.132   2.253   4.039 -0.1915  0.4224  0.6717
  196DOPC   H5S24263   1.034   2.381   4.096 -1.4616  0.7453  0.7316
  196DOPC   C2624264   1.213   2.356   4.206 -0.8681 -0.5310  0.9082
  196DOPC   H6R24265   1.205   2.453   4.260 -0.5078 -0.9262  1.6769
  196DOPC   H6S24266   1.321   2.340   4.187 -0.8799  0.4309 -0.0724
  196DOPC   C2724267   1.174   2.236   4.293 -0.4007 -0.6732  0.1305
  196DOPC   H7R24268   1.228   2.146   4.257  1.9427  0.3753  0.7939
  196DOPC   H7S24269   1.065   2.216   4.297 -0.3542 -0.8128  2.2249
  196DOPC   C2824270   1.222   2.240   4.440 -0.5372 -0.3304 -0.7143
  196DOPC   H8R24271   1.198   2.339   4.486  0.8676  0.6649 -2.0415
  196DOPC   H8S24272   1.333   2.240   4.430 -0.1046  1.3785  2.5921
  196DOPC   C2924273   1.186   2.118   4.518 -0.3507  0.7127  0.1379
  196DOPC   H9R24274   1.226   2.021   4.486  0.7352  0.6283  1.6098
  196DOPC  C21024275   1.102   2.111   4.621  0.4785 -0.4924  0.1623
  196DOPC  H10R24276   1.080   2.014   4.668 -0.0459  0.5254  2.1482
  196DOPC  C21124277   1.022   2.224   4.668 -0.1770 -0.3607 -0.0379
  196DOPC  H11R24278   0.927   2.180   4.704 -0.2802 -0.0478  0.0775
  196DOPC  H11S24279   1.004   2.292   4.582 -2.5331  1.2139  1.5700
  196DOPC  C21224280   1.073   2.314   4.783  0.0261  0.1967  0.3925
  196DOPC  H12R24281   0.998   2.394   4.801 -0.8960 -0.3863 -0.7462
  196DOPC  H12S24282   1.176   2.352   4.762  0.6788 -2.1294 -0.9626
  196DOPC  C21324283   1.082   2.238   4.920  0.7114  0.3329 -0.2444
  196DOPC  H13R24284   1.157   2.157   4.935 -0.9563 -1.0247  1.0564
  196DOPC  H13S24285   0.990   2.180   4.942  1.6702 -1.7309 -1.3760
  196DOPC  C21424286   1.086   2.349   5.030  0.3168  0.6979 -0.2801
  196DOPC  H14R24287   1.008   2.427   5.020  1.4171  1.9901  0.7835
  196DOPC  H14S24288   1.182   2.402   5.016  2.3174 -2.4460  0.4155
  196DOPC  C21524289   1.090   2.297   5.177  0.1936  0.2913 -0.6684
  196DOPC  H15R24290   1.189   2.249   5.189  0.3689  0.6245 -0.7617
  196DOPC  H15S24291   1.019   2.213   5.193  0.3229  0.1598 -0.7938
  196DOPC  C21624292   1.075   2.411   5.279 -0.2224 -0.2035 -0.0626
  196DOPC  H16R24293   0.975   2.457   5.272 -0.3208 -0.5908 -1.4576
  196DOPC  H16S24294   1.151   2.487   5.249  1.6569 -1.8701  0.2266
  196DOPC  C21724295   1.098   2.364   5.424 -0.3060  0.5826 -0.4186
  196DOPC  H17R24296   1.008   2.312   5.463 -1.8029  3.2974 -0.0211
  196DOPC  H17S24297   1.099   2.458   5.482 -2.5683 -0.0160  0.6854
  196DOPC  C21824298   1.236   2.295   5.455  0.3237  0.3942 -0.0663
  196DOPC  H18R24299   1.307   2.365   5.406  0.4987  0.4452  0.2580
  196DOPC  H18S24300   1.240   2.195   5.407 -0.1403  0.6364 -0.6143
  196DOPC  H18T24301   1.252   2.299   5.565 -0.3568 -0.1285  0.0557
  196DOPC   C3324302   1.671   2.587   4.234 -0.3424 -0.2432  0.4071
  196DOPC   H3X24303   1.652   2.696   4.242  0.9218 -0.0501  0.9843
  196DOPC   H3Y24304   1.772   2.584   4.187 -0.0653 -1.1907  1.0399
  196DOPC   C3424305   1.695   2.517   4.370 -0.1689  0.3329 -0.8836
  196DOPC   H4X24306   1.768   2.434   4.357 -0.3263 -0.1777  1.1261
  196DOPC   H4Y24307   1.600   2.462   4.388 -0.1120  0.0408 -1.4446
  196DOPC   C3524308   1.739   2.604   4.484 -0.4106 -0.7887  0.0758
  196DOPC   H5X24309   1.668   2.688   4.499 -1.7712 -2.0842  1.2219
  196DOPC   H5Y24310   1.833   2.654   4.452 -1.1014  0.5629  0.0762
  196DOPC   C3624311   1.770   2.538   4.620  0.9019  0.0248  0.7099
  196DOPC   H6X24312   1.679   2.481   4.646  0.1205  0.5389 -0.7937
  196DOPC   H6Y24313   1.858   2.472   4.606  1.1555  0.3605  0.6832
  196DOPC   C3724314   1.808   2.633   4.733 -0.4085  1.0249 -0.2692
  196DOPC   H7X24315   1.738   2.718   4.718 -1.9014  0.1204  1.2347
  196DOPC   H7Y24316   1.780   2.588   4.831 -0.3698 -0.5260 -0.9532
  196DOPC   C3824317   1.953   2.673   4.722 -0.5050  0.3252 -0.4578
  196DOPC   H8X24318   1.974   2.713   4.621 -0.2217 -0.2110 -0.6164
  196DOPC   H8Y24319   2.018   2.583   4.711 -1.8365 -0.5031 -2.0191
  196DOPC   C3924320   1.994   2.773   4.831 -0.2166 -0.1634 -0.1562
  196DOPC   H9X24321   1.971   2.878   4.807  0.9200 -0.5525 -3.4430
  196DOPC  C31024322   2.020   2.744   4.962  0.1670 -0.0845  0.1221
  196DOPC  H10X24323   2.035   2.832   5.027  0.5944 -0.0951  0.0371
  196DOPC  C31124324   2.033   2.613   5.028  0.2963 -1.3901  0.3098
  196DOPC  H11X24325   2.140   2.604   5.056  0.8275 -0.7927 -1.4496
  196DOPC  H11Y24326   1.995   2.530   4.966 -2.4868 -1.7093  2.2155
  196DOPC  C31224327   1.945   2.618   5.160 -0.2991  0.3975  0.1797
  196DOPC  H12X24328   1.843   2.634   5.121  0.7133  2.5672 -1.8049
  196DOPC  H12Y24329   1.984   2.704   5.219 -1.6273  0.9328  0.3098
  196DOPC  C31324330   1.938   2.493   5.237  0.3729 -0.1313 -1.3572
  196DOPC  H13X24331   1.904   2.411   5.171  1.0027 -1.8983  0.4323
  196DOPC  H13Y24332   2.046   2.470   5.253  0.2997 -1.5219 -2.6829
  196DOPC  C31424333   1.875   2.509   5.372  0.8776 -0.5327  0.3525
  196DOPC  H14X24334   1.900   2.421   5.435 -3.7338 -3.0741 -0.8621
  196DOPC  H14Y24335   1.926   2.595   5.419  0.6295 -0.0015 -0.3270
  196DOPC  C31524336   1.726   2.529   5.370 -0.1725  0.2729 -0.3228
  196DOPC  H15X24337   1.687   2.426   5.355 -0.5312  0.0947  1.6066
  196DOPC  H15Y24338   1.684   2.602   5.298 -0.0208  0.9148  0.2351
  196DOPC  C31624339   1.679   2.562   5.510  0.4266 -0.3294 -0.1176
  196DOPC  H16X24340   1.731   2.496   5.582  1.0486  1.7363  1.4380
  196DOPC  H16Y24341   1.691   2.669   5.539 -1.1264 -0.2380  0.2765
  196DOPC  C31724342   1.532   2.527   5.521  0.6687  0.2899  0.4146
  196DOPC  H17X24343   1.468   2.580   5.447  0.2398  0.4591  0.9011
  196DOPC  H17Y24344   1.533   2.418   5.500 -0.6596  0.3757 -0.1448
  196DOPC  C31824345   1.466   2.562   5.658 -0.6179 -0.3893 -0.1395
  196DOPC  H18X24346   1.362   2.522   5.653 -0.5881 -0.6396  0.9922
  196DOPC  H18Y24347   1.527   2.510   5.735  4.4060  2.6084 -1.6560
  196DOPC  H18Z24348   1.473   2.670   5.680  1.3016 -0.4912 -0.0934
  197DOPC     N24349   2.833   0.561   3.548 -0.1168  1.0971 -0.0065
  197DOPC   C1224350   2.705   0.590   3.617 -0.5885 -0.4977 -0.0545
  197DOPC  H12A24351   2.636   0.507   3.616 -0.7304 -0.3931 -1.5224
  197DOPC  H12B24352   2.673   0.672   3.554  0.6817 -0.4100 -0.6081
  197DOPC   C1324353   2.920   0.690   3.550  0.4897 -0.5818  0.4962
  197DOPC  H13A24354   2.948   0.699   3.654 -0.6879 -2.4691  1.0113
  197DOPC  H13B24355   3.017   0.670   3.507  0.0473 -1.2713 -0.1901
  197DOPC  H13C24356   2.867   0.773   3.505 -0.0112 -1.3348 -0.3316
  197DOPC   C1424357   2.800   0.524   3.401  0.6086  0.6006 -0.5524
  197DOPC  H14A24358   2.750   0.429   3.398 -0.0671  0.7968  2.2609
  197DOPC  H14B24359   2.733   0.598   3.360 -0.4005  1.1258  1.8885
  197DOPC  H14C24360   2.889   0.514   3.340  0.8047 -1.2477 -0.0211
  197DOPC   C1524361   2.913   0.454   3.609 -0.3670  0.1819  0.3806
  197DOPC  H15A24362   2.856   0.362   3.611 -0.1538  0.0376  0.0207
  197DOPC  H15B24363   2.949   0.482   3.707  4.0290 -1.3568 -0.5362
  197DOPC  H15C24364   3.009   0.435   3.562 -0.4812 -0.1026  0.2570
  197DOPC   C1124365   2.697   0.647   3.757 -0.1663 -0.4002 -0.8463
  197DOPC  H11A24366   2.731   0.752   3.748  0.5595 -0.3335  1.8404
  197DOPC  H11B24367   2.592   0.651   3.793  0.0211  1.3728 -0.4297
  197DOPC     P24368   2.743   0.474   3.954 -0.2427 -0.1689  0.2314
  197DOPC   O1324369   2.832   0.482   4.066 -0.5956  0.2437  0.0775
  197DOPC   O1424370   2.729   0.346   3.880  0.2872 -0.0763 -0.3548
  197DOPC   O1224371   2.792   0.582   3.844  0.5506 -0.2311  0.2325
  197DOPC   O1124372   2.606   0.525   4.001  0.0245  0.1607  0.3249
  197DOPC    C124373   2.580   0.650   4.068  0.1449 -0.7596  0.5726
  197DOPC    HA24374   2.478   0.687   4.042 -0.9038 -3.0729  1.1338
  197DOPC    HB24375   2.655   0.727   4.040  0.4702 -0.7653  1.4230
  197DOPC    C224376   2.570   0.629   4.226 -0.5238 -0.6651  0.0060
  197DOPC    HS24377   2.673   0.595   4.250  1.1361  1.7106 -2.9726
  197DOPC   O2124378   2.460   0.547   4.253 -0.0595 -0.0493  0.1754
  197DOPC   C2124379   2.490   0.432   4.310 -0.2571 -0.2619 -0.2883
  197DOPC   O2224380   2.607   0.388   4.320  0.0623  0.1711  0.4314
  197DOPC   C2224381   2.369   0.359   4.363 -0.0647 -0.4333 -0.4650
  197DOPC   H2R24382   2.345   0.271   4.299 -1.7111  0.3475 -1.0006
  197DOPC   H2S24383   2.276   0.420   4.358  0.3598  0.1500 -3.2360
  197DOPC    C324384   2.545   0.771   4.288  0.2059  0.3492  0.1282
  197DOPC    HX24385   2.444   0.798   4.250 -0.0070 -1.7225 -0.9114
  197DOPC    HY24386   2.618   0.842   4.243 -0.6268  0.4793 -1.0533
  197DOPC   O3124387   2.542   0.766   4.432 -0.6103  0.2948 -0.1386
  197DOPC   C3124388   2.504   0.877   4.497 -0.5434  0.9725  0.2045
  197DOPC   O3224389   2.484   0.984   4.450 -0.1400 -0.2138  0.4648
  197DOPC   C3224390   2.483   0.849   4.645  0.1753  0.1559 -1.3668
  197DOPC   H2X24391   2.380   0.807   4.638  0.8585 -2.0407  0.5500
  197DOPC   H2Y24392   2.547   0.770   4.689 -0.5977 -0.1734 -0.7964
  197DOPC   C2324393   2.391   0.311   4.507  0.4811 -0.7786 -0.1364
  197DOPC   H3R24394   2.473   0.236   4.511 -0.0343 -1.2896  1.6556
  197DOPC   H3S24395   2.297   0.261   4.537  0.5646 -0.7628  0.1537
  197DOPC   C2424396   2.428   0.424   4.602  0.0565 -0.8261 -0.6165
  197DOPC   H4R24397   2.349   0.502   4.595  1.3775  0.7364  1.0210
  197DOPC   H4S24398   2.525   0.471   4.576 -0.7843  1.3180 -0.1523
  197DOPC   C2524399   2.454   0.389   4.753  0.2627  0.4397  1.2351
  197DOPC   H5R24400   2.558   0.350   4.751 -0.3197 -1.1050 -0.5787
  197DOPC   H5S24401   2.380   0.309   4.772  0.7944 -1.2007 -2.6972
  197DOPC   C2624402   2.462   0.502   4.857  0.0047 -0.7508 -0.2453
  197DOPC   H6R24403   2.383   0.573   4.826  0.5188  0.6403  1.4614
  197DOPC   H6S24404   2.562   0.546   4.836 -0.0617 -0.5997 -0.2451
  197DOPC   C2724405   2.435   0.459   5.001  0.1833 -1.0753 -0.2298
  197DOPC   H7R24406   2.506   0.379   5.032 -0.5367 -0.6635  2.7556
  197DOPC   H7S24407   2.333   0.419   5.019  0.4374 -0.6824  2.6477
  197DOPC   C2824408   2.449   0.577   5.107 -0.0771 -0.0643  0.0222
  197DOPC   H8R24409   2.361   0.640   5.082 -0.9626 -1.4962 -0.5921
  197DOPC   H8S24410   2.543   0.636   5.091  1.0541 -1.4904  1.1255
  197DOPC   C2924411   2.454   0.533   5.247 -0.3907  0.1574  0.5455
  197DOPC   H9R24412   2.451   0.426   5.270 -0.7994  0.1026  0.2378
  197DOPC  C21024413   2.452   0.620   5.353  0.1192 -0.3143 -0.0854
  197DOPC  H10R24414   2.461   0.571   5.451  0.7812  2.2173  1.1819
  197DOPC  C21124415   2.450   0.774   5.340  1.1951 -0.1913 -0.2916
  197DOPC  H11R24416   2.421   0.800   5.236 -1.2541  1.8608  0.7980
  197DOPC  H11S24417   2.555   0.808   5.354  0.8182  1.3781 -1.0126
  197DOPC  C21224418   2.346   0.844   5.434  0.3761  0.1681 -0.1780
  197DOPC  H12R24419   2.353   0.801   5.536  0.1899 -3.7456 -1.6440
  197DOPC  H12S24420   2.248   0.810   5.393  1.0855 -1.1620 -0.8504
  197DOPC  C21324421   2.354   0.995   5.445  0.1504  0.5470  0.3350
  197DOPC  H13R24422   2.356   1.018   5.337  2.8057 -0.3922  0.1043
  197DOPC  H13S24423   2.456   1.018   5.485  0.0458 -0.2306  1.0822
  197DOPC  C21424424   2.240   1.043   5.525  0.5301 -0.5404 -0.0648
  197DOPC  H14R24425   2.239   1.009   5.630 -1.8279 -0.0637  0.1303
  197DOPC  H14S24426   2.144   0.998   5.491 -1.0541  0.9969  2.0580
  197DOPC  C21524427   2.247   1.194   5.530  0.2450 -0.1095 -0.0946
  197DOPC  H15R24428   2.186   1.239   5.449  1.7036 -0.2989 -1.3349
  197DOPC  H15S24429   2.350   1.231   5.511  0.2857  1.4775  2.6794
  197DOPC  C21624430   2.187   1.266   5.649 -0.1031  0.2701 -0.0174
  197DOPC  H16R24431   2.081   1.237   5.662 -0.4277  1.2326 -0.4362
  197DOPC  H16S24432   2.179   1.375   5.629  2.3241  0.3558 -0.8685
  197DOPC  C21724433   2.279   1.254   5.766 -0.4057  0.2169 -0.0740
  197DOPC  H17R24434   2.377   1.300   5.743 -1.3360  1.7518 -1.1396
  197DOPC  H17S24435   2.286   1.144   5.781  0.3773  0.4225  1.2318
  197DOPC  C21824436   2.223   1.315   5.895 -0.1417 -0.0836  0.3296
  197DOPC  H18R24437   2.288   1.290   5.982  2.0188 -0.6525 -1.3545
  197DOPC  H18S24438   2.120   1.278   5.916  0.2770 -1.6152 -0.1790
  197DOPC  H18T24439   2.226   1.425   5.880 -2.6870  0.1229  0.9583
  197DOPC   C3324440   2.493   0.973   4.734 -0.0051 -0.3061  0.3825
  197DOPC   H3X24441   2.407   1.037   4.702  0.4444  1.0066  1.7372
  197DOPC   H3Y24442   2.582   1.038   4.723  0.9202 -1.5608  0.2179
  197DOPC   C3424443   2.477   0.941   4.893  0.2057  0.2382  0.5227
  197DOPC   H4X24444   2.539   0.851   4.916  0.7797  0.4083 -0.3015
  197DOPC   H4Y24445   2.370   0.929   4.918 -0.2215  0.1040 -1.2312
  197DOPC   C3524446   2.548   1.053   4.969 -0.4216  0.2698 -0.2394
  197DOPC   H5X24447   2.500   1.148   4.940 -0.4704  0.1954 -0.4042
  197DOPC   H5Y24448   2.656   1.053   4.942 -0.2778  0.0675  0.3109
  197DOPC   C3624449   2.534   1.034   5.123  0.6024  0.1389 -0.1393
  197DOPC   H6X24450   2.427   1.010   5.141  0.1832  2.2314  0.4132
  197DOPC   H6Y24451   2.599   0.952   5.160  0.5850  0.0742 -0.2512
  197DOPC   C3724452   2.566   1.161   5.197 -0.9466  0.2189  0.1925
  197DOPC   H7X24453   2.550   1.248   5.130 -0.0379  0.4633  0.2819
  197DOPC   H7Y24454   2.499   1.170   5.286 -2.1469 -2.2148 -0.3673
  197DOPC   C3824455   2.710   1.181   5.249  0.1235 -0.1962  0.2255
  197DOPC   H8X24456   2.785   1.155   5.172  0.1664  0.5618  0.0020
  197DOPC   H8Y24457   2.723   1.116   5.338  0.9436  1.0286  1.0384
  197DOPC   C3924458   2.725   1.320   5.303 -0.2675  0.8870 -0.3105
  197DOPC   H9X24459   2.736   1.393   5.222  2.6357 -0.7602 -1.5915
  197DOPC  C31024460   2.752   1.362   5.435  0.1827  0.1347  0.6052
  197DOPC  H10X24461   2.763   1.469   5.460 -2.0128  0.4286  0.5237
  197DOPC  C31124462   2.744   1.283   5.559 -0.3423 -0.7050  0.0983
  197DOPC  H11X24463   2.849   1.268   5.591  0.5961 -0.4023 -2.5663
  197DOPC  H11Y24464   2.705   1.180   5.545 -1.2105 -0.4280  0.3856
  197DOPC  C31224465   2.656   1.348   5.654 -0.5482  0.5017  0.4082
  197DOPC  H12X24466   2.559   1.343   5.598 -0.4656  1.4114  0.1613
  197DOPC  H12Y24467   2.681   1.455   5.666 -0.2647  0.5387 -0.4387
  197DOPC  C31324468   2.652   1.293   5.801  0.2691 -0.2425  0.6661
  197DOPC  H13X24469   2.592   1.356   5.870 -1.7983 -0.4301 -0.8583
  197DOPC  H13Y24470   2.603   1.194   5.799  1.8995 -1.0873  1.0415
  197DOPC  C31424471   2.796   1.264   5.851 -0.6388 -0.3152 -0.1294
  197DOPC  H14X24472   2.859   1.190   5.797  1.0972  1.9717 -1.4328
  197DOPC  H14Y24473   2.862   1.354   5.854  1.0835 -1.5063 -0.3029
  197DOPC  C31524474   2.790   1.203   5.987 -0.7951  0.0271 -0.5624
  197DOPC  H15X24475   2.749   1.099   5.985 -0.3150 -0.1966  0.6019
  197DOPC  H15Y24476   2.724   1.267   6.049 -0.6795  0.6812 -1.1036
  197DOPC  C31624477   2.934   1.202   6.051 -0.4943  0.1317 -0.9532
  197DOPC  H16X24478   3.000   1.129   6.000 -1.0056 -0.6043 -0.5813
  197DOPC  H16Y24479   2.985   1.301   6.045 -0.5646  0.3598  1.4314
  197DOPC  C31724480   2.933   1.149   6.198  0.3257  0.2705  0.2027
  197DOPC  H17X24481   2.876   1.055   6.209 -3.2080  2.0864 -0.9608
  197DOPC  H17Y24482   3.035   1.131   6.236 -0.5809 -1.1388  2.1408
  197DOPC  C31824483   2.879   1.256   6.286 -0.3607 -0.4796 -0.5704
  197DOPC  H18X24484   2.770   1.276   6.276 -0.2084  0.5672 -0.2606
  197DOPC  H18Y24485   2.902   1.234   6.392  1.4508  0.1725 -0.7931
  197DOPC  H18Z24486   2.926   1.354   6.263  0.8605 -1.2395 -1.4225
  198DOPC     N24487   1.246   6.110   3.388 -0.1621 -0.3047 -0.3601
  198DOPC   C1224488   1.171   6.179   3.502 -0.0874  0.7868  0.0896
  198DOPC  H12A24489   1.068   6.201   3.476 -0.9292 -1.2238  1.4407
  198DOPC  H12B24490   1.230   6.267   3.521  2.2492 -0.1420 -2.2815
  198DOPC   C1324491   1.179   5.976   3.351  0.5201  0.5554  0.2848
  198DOPC  H13A24492   1.223   5.916   3.272 -0.4817 -0.2842  0.3423
  198DOPC  H13B24493   1.187   5.902   3.429  0.1699 -0.0924 -0.2772
  198DOPC  H13C24494   1.077   5.988   3.319  0.2481 -0.9591  0.5144
  198DOPC   C1424495   1.385   6.078   3.426 -0.1491 -0.0952 -0.0155
  198DOPC  H14A24496   1.450   6.164   3.437 -0.6644  0.2705  0.1948
  198DOPC  H14B24497   1.389   6.024   3.520  0.5132  0.2436  0.1603
  198DOPC  H14C24498   1.434   6.018   3.352  0.1445 -0.4694  0.4749
  198DOPC   C1524499   1.258   6.197   3.272 -0.2137  0.0231  0.5140
  198DOPC  H15A24500   1.303   6.287   3.310 -1.6330  0.8027  0.4254
  198DOPC  H15B24501   1.161   6.215   3.227  1.2055  1.6228 -2.0813
  198DOPC  H15C24502   1.306   6.153   3.186  0.5612 -0.1773  1.0387
  198DOPC   C1124503   1.158   6.107   3.640 -0.3727  0.4174 -0.3367
  198DOPC  H11A24504   1.080   6.155   3.703  0.6358  2.3816 -0.4855
  198DOPC  H11B24505   1.120   6.006   3.615  1.7127 -0.5299  0.1354
  198DOPC     P24506   1.332   6.214   3.796  0.4992  0.2850 -0.4497
  198DOPC   O1324507   1.342   6.340   3.723 -0.2520  0.4112  0.0117
  198DOPC   O1424508   1.454   6.166   3.859  0.7210 -0.0138 -0.1092
  198DOPC   O1224509   1.278   6.089   3.711 -0.9916  0.2465 -0.1134
  198DOPC   O1124510   1.224   6.241   3.913  0.0170  0.3169  0.6105
  198DOPC    C124511   1.150   6.128   3.971 -0.4326 -0.0793 -0.2661
  198DOPC    HA24512   1.195   6.032   3.936 -0.5502  0.1343 -1.0347
  198DOPC    HB24513   1.046   6.124   3.932 -1.0700  1.4415  1.2022
  198DOPC    C224514   1.154   6.129   4.130 -0.1461 -0.2908  0.4597
  198DOPC    HS24515   1.088   6.046   4.162 -0.0692 -0.5508 -0.0458
  198DOPC   O2124516   1.117   6.263   4.171 -0.3864 -0.0267 -0.4213
  198DOPC   C2124517   0.988   6.279   4.172  0.5411 -0.2753  0.0917
  198DOPC   O2224518   0.908   6.201   4.126  0.5582 -0.5371  0.5288
  198DOPC   C2224519   0.951   6.414   4.235  0.5442  0.2549 -1.0299
  198DOPC   H2R24520   0.849   6.444   4.203 -0.3357  1.8840  2.7671
  198DOPC   H2S24521   1.016   6.495   4.195  0.4313  1.2705  0.7114
  198DOPC    C324522   1.299   6.115   4.173 -0.6792  0.6421  0.1122
  198DOPC    HX24523   1.344   6.216   4.157 -0.6683  0.3263 -2.2605
  198DOPC    HY24524   1.368   6.053   4.112  0.2666  0.4094  1.3822
  198DOPC   O3124525   1.319   6.099   4.313  0.0499 -0.0802  0.3010
  198DOPC   C3124526   1.317   5.971   4.362  0.0226 -0.5282  0.2304
  198DOPC   O3224527   1.319   5.870   4.290  0.5443  0.6569  0.7706
  198DOPC   C3224528   1.333   5.968   4.515  0.0904 -0.3193  0.6413
  198DOPC   H2X24529   1.246   5.915   4.559 -0.7013  1.3982  1.2454
  198DOPC   H2Y24530   1.424   5.908   4.540  0.9525  1.0943  1.0190
  198DOPC   C2324531   0.962   6.403   4.387 -0.0794 -0.3652 -0.4001
  198DOPC   H3R24532   0.951   6.505   4.428  1.7459  0.6039 -2.1449
  198DOPC   H3S24533   1.065   6.376   4.419 -0.3689 -0.3222  0.6049
  198DOPC   C2424534   0.852   6.314   4.441  0.8311 -0.6863 -0.1327
  198DOPC   H4R24535   0.841   6.211   4.401 -0.5301 -0.6038 -0.0362
  198DOPC   H4S24536   0.751   6.360   4.431 -0.1155 -2.2571  1.5188
  198DOPC   C2524537   0.856   6.298   4.594  0.0389  0.2920  0.5871
  198DOPC   H5R24538   0.753   6.289   4.633  0.4234 -0.2033  1.5276
  198DOPC   H5S24539   0.892   6.388   4.649  1.3354 -0.5576  1.1820
  198DOPC   C2624540   0.934   6.166   4.641 -0.1218 -0.5140 -0.2454
  198DOPC   H6R24541   1.043   6.181   4.629  0.0874 -2.2870 -0.9157
  198DOPC   H6S24542   0.898   6.079   4.582  0.8674 -1.1730  0.0942
  198DOPC   C2724543   0.901   6.134   4.792  0.4070 -0.1152 -0.0549
  198DOPC   H7R24544   0.944   6.220   4.849 -0.1168 -0.8970  1.5950
  198DOPC   H7S24545   0.956   6.040   4.815 -0.4449 -0.1641  2.0206
  198DOPC   C2824546   0.751   6.121   4.834  0.8584 -0.3643  0.4064
  198DOPC   H8R24547   0.696   6.217   4.825 -2.3641 -1.7599  3.0394
  198DOPC   H8S24548   0.738   6.085   4.939  1.3219 -0.2249  0.5135
  198DOPC   C2924549   0.681   6.020   4.744  0.7396 -0.0698  0.0283
  198DOPC   H9R24550   0.654   6.059   4.645 -1.5897 -0.0690  0.5938
  198DOPC  C21024551   0.653   5.888   4.765 -0.0291 -0.3954 -0.7004
  198DOPC  H10R24552   0.614   5.830   4.680 -0.7691  1.4979 -1.7167
  198DOPC  C21124553   0.686   5.808   4.886  0.6807  0.1781 -0.4017
  198DOPC  H11R24554   0.785   5.820   4.935  0.3971 -2.2275  0.9504
  198DOPC  H11S24555   0.680   5.701   4.856  0.8062  0.5919 -1.9798
  198DOPC  C21224556   0.581   5.843   4.999 -0.0846  0.0265 -0.0961
  198DOPC  H12R24557   0.477   5.822   4.967  0.8122 -1.9611 -1.9516
  198DOPC  H12S24558   0.586   5.948   5.036 -0.0811 -0.1085  0.2912
  198DOPC  C21324559   0.607   5.761   5.128  0.8771  0.4208  0.5542
  198DOPC  H13R24560   0.713   5.777   5.157  0.5681 -1.1250  2.6975
  198DOPC  H13S24561   0.595   5.653   5.105  1.6221  0.8915 -2.5979
  198DOPC  C21424562   0.518   5.797   5.249 -0.6536  0.0168 -0.3902
  198DOPC  H14R24563   0.507   5.908   5.242  0.9621  0.4376  2.4569
  198DOPC  H14S24564   0.567   5.761   5.342  3.1655 -0.1347 -2.2749
  198DOPC  C21524565   0.379   5.739   5.242  0.0857  0.5223 -0.7053
  198DOPC  H15R24566   0.385   5.629   5.252  2.2838  0.7721  2.2691
  198DOPC  H15S24567   0.332   5.766   5.145  1.2723  0.8033 -1.2202
  198DOPC  C21624568   0.297   5.777   5.370  0.4257 -0.1448  0.5460
  198DOPC  H16R24569   0.318   5.884   5.391 -0.3193 -0.1953  1.6159
  198DOPC  H16S24570   0.338   5.723   5.457 -0.1585  0.3070  1.1186
  198DOPC  C21724571   0.149   5.733   5.358  0.0729 -0.0636 -0.4764
  198DOPC  H17R24572   0.147   5.622   5.364 -0.3949 -0.0072  0.5979
  198DOPC  H17S24573   0.101   5.758   5.261 -2.7978 -0.2098  0.7999
  198DOPC  C21824574   0.061   5.808   5.459  0.0171 -0.1171  0.8468
  198DOPC  H18R24575   0.116   5.807   5.555 -0.7543  0.3148  1.3087
  198DOPC  H18S24576  -0.035   5.755   5.473 -0.0098  0.0668  1.3939
  198DOPC  H18T24577   0.043   5.916   5.436  0.1476 -0.1319  0.6724
  198DOPC   C3324578   1.346   6.107   4.579  0.1799  0.1461  0.4371
  198DOPC   H3X24579   1.255   6.163   4.547 -0.4520 -0.8774  0.4139
  198DOPC   H3Y24580   1.433   6.168   4.544  3.0505 -3.7843  0.0251
  198DOPC   C3424581   1.343   6.103   4.738  0.4359 -0.3936 -0.6628
  198DOPC   H4X24582   1.441   6.059   4.766 -0.0381 -0.5272  0.8447
  198DOPC   H4Y24583   1.263   6.039   4.779  0.5223 -0.9790 -1.3701
  198DOPC   C3524584   1.341   6.247   4.809 -0.6046  0.2419  0.3161
  198DOPC   H5X24585   1.253   6.301   4.767 -1.8167 -0.6579  1.6153
  198DOPC   H5Y24586   1.438   6.289   4.775  1.0306 -1.2211  2.9138
  198DOPC   C3624587   1.341   6.222   4.957  0.4155  0.0988 -0.0890
  198DOPC   H6X24588   1.244   6.186   4.999  0.8680 -0.1377  0.7930
  198DOPC   H6Y24589   1.409   6.142   4.995 -1.4438 -2.2593 -1.4496
  198DOPC   C3724590   1.367   6.352   5.027  0.1086  0.4122  0.4379
  198DOPC   H7X24591   1.473   6.363   5.058 -0.5947  0.4242  3.0669
  198DOPC   H7Y24592   1.343   6.434   4.957  2.5717  0.3696 -0.5458
  198DOPC   C3824593   1.283   6.366   5.161  0.1322  0.2872  0.2977
  198DOPC   H8X24594   1.309   6.286   5.234  2.4324  0.3659 -0.3540
  198DOPC   H8Y24595   1.178   6.352   5.126  0.0588  0.6007  0.3901
  198DOPC   C3924596   1.303   6.511   5.214 -0.0758 -0.5860 -0.1118
  198DOPC   H9X24597   1.335   6.583   5.138 -2.0507 -0.6140 -1.0323
  198DOPC  C31024598   1.289   6.538   5.346  0.3910 -0.5673  0.2058
  198DOPC  H10X24599   1.287   6.643   5.379 -0.6876 -0.4197 -0.3101
  198DOPC  C31124600   1.249   6.444   5.458 -0.2853 -0.5711 -0.4025
  198DOPC  H11X24601   1.336   6.426   5.525  1.5937  0.8592 -2.3323
  198DOPC  H11Y24602   1.225   6.342   5.420  2.5286 -1.3783 -0.2603
  198DOPC  C31224603   1.129   6.495   5.528  0.7829  0.0777  0.9358
  198DOPC  H12X24604   1.049   6.510   5.453 -0.7799  0.7900  2.6757
  198DOPC  H12Y24605   1.147   6.597   5.570  1.1887 -0.1641  1.3636
  198DOPC  C31324606   1.070   6.406   5.640 -0.2205 -0.5400  0.4016
  198DOPC  H13X24607   1.076   6.304   5.595 -0.0251  0.5191 -2.1244
  198DOPC  H13Y24608   1.142   6.416   5.724 -0.7054  0.2329  0.7398
  198DOPC  C31424609   0.923   6.428   5.678  0.2645  0.8966  0.0458
  198DOPC  H14X24610   0.910   6.536   5.701 -0.5303  0.5230  1.4845
  198DOPC  H14Y24611   0.874   6.412   5.580  0.7316  1.6502 -0.3201
  198DOPC  C31524612   0.871   6.345   5.802  0.3360 -0.1421 -0.5346
  198DOPC  H15X24613   0.910   6.242   5.791  0.4789 -0.2533  0.7868
  198DOPC  H15Y24614   0.760   6.348   5.804  0.3314  2.3777 -1.1117
  198DOPC  C31624615   0.925   6.407   5.931 -0.3130 -0.3858 -1.0547
  198DOPC  H16X24616   1.033   6.387   5.947 -0.7505 -1.6069  0.5705
  198DOPC  H16Y24617   0.910   6.517   5.921  0.8847 -0.0740  0.1934
  198DOPC  C31724618   0.843   6.352   6.052 -0.9928 -0.3299 -1.0752
  198DOPC  H17X24619   0.850   6.426   6.134  1.9353  0.2840 -1.7436
  198DOPC  H17Y24620   0.742   6.343   6.007 -1.0984 -0.1718 -0.8716
  198DOPC  C31824621   0.883   6.207   6.089  0.1383 -0.2960 -0.1931
  198DOPC  H18X24622   0.834   6.145   6.011  1.1688 -0.9753 -0.3170
  198DOPC  H18Y24623   0.993   6.201   6.090  0.0849 -1.3971 -0.2052
  198DOPC  H18Z24624   0.835   6.177   6.185 -0.1457  2.0633  0.4811
  199DOPC     N24625   5.901   0.078   3.682 -0.1976 -0.3102  0.0647
  199DOPC   C1224626   5.773   0.120   3.619 -0.1157 -0.0391  0.1199
  199DOPC  H12A24627   5.704   0.053   3.669  0.5196  0.6731  2.0090
  199DOPC  H12B24628   5.784   0.087   3.516  0.9937 -1.6011  0.6948
  199DOPC   C1324629   5.902   0.123   3.825  0.0063 -0.1723 -0.7555
  199DOPC  H13A24630   5.990   0.095   3.880 -1.6878 -2.0829  1.1160
  199DOPC  H13B24631   5.899   0.231   3.819 -0.8730 -0.1816 -0.5485
  199DOPC  H13C24632   5.815   0.090   3.879  1.1174 -2.4385 -0.2358
  199DOPC   C1424633   6.019   0.136   3.610 -0.6041  1.1783 -0.4401
  199DOPC  H14A24634   6.016   0.244   3.611 -0.4563  1.2871 -3.5580
  199DOPC  H14B24635   6.114   0.097   3.644  0.7134  3.0707 -1.7599
  199DOPC  H14C24636   6.018   0.112   3.505  1.8236  1.3112 -0.5473
  199DOPC   C1524637   5.911  -0.071   3.681  0.5346 -0.7618  0.2157
  199DOPC  H15A24638   6.005  -0.098   3.726  1.1468  2.3840  1.0131
  199DOPC  H15B24639   5.911  -0.114   3.582 -0.9397  1.1443 -0.6953
  199DOPC  H15C24640   5.828  -0.125   3.726 -2.0653 -0.2611 -3.5489
  199DOPC   C1124641   5.723   0.267   3.628  0.4679 -0.5449  0.2217
  199DOPC  H11A24642   5.621   0.285   3.587  0.1075  0.2319  1.3927
  199DOPC  H11B24643   5.713   0.279   3.738 -0.6247  1.2111 -0.0241
  199DOPC     P24644   5.877   0.481   3.647  0.1000 -0.0724  0.2479
  199DOPC   O1324645   5.760   0.550   3.704 -0.1603 -0.2233  0.1557
  199DOPC   O1424646   5.959   0.555   3.553  0.3014  0.3696  0.8133
  199DOPC   O1224647   5.819   0.354   3.572 -0.4199  0.1961 -0.1216
  199DOPC   O1124648   5.961   0.422   3.764 -0.0175 -0.6452 -0.1606
  199DOPC    C124649   6.094   0.458   3.793  0.1047 -0.0017  0.7341
  199DOPC    HA24650   6.128   0.554   3.748 -0.4853  0.3147  0.9415
  199DOPC    HB24651   6.164   0.376   3.769 -0.9435 -1.4144  2.2490
  199DOPC    C224652   6.117   0.480   3.945  0.6897 -0.4746 -0.1208
  199DOPC    HS24653   6.109   0.382   3.997  1.3577 -1.4714 -1.8127
  199DOPC   O2124654   6.028   0.590   3.981 -0.0880 -0.0101  0.2482
  199DOPC   C2124655   5.982   0.582   4.100  0.2740 -0.5111 -0.4732
  199DOPC   O2224656   6.008   0.500   4.185  0.4581  0.6134 -0.0979
  199DOPC   C2224657   5.896   0.713   4.134 -0.4177  0.1459  1.1717
  199DOPC   H2R24658   5.804   0.715   4.072 -1.9496  1.5414  3.3480
  199DOPC   H2S24659   5.954   0.806   4.112 -1.2342  0.1238 -1.3703
  199DOPC    C324660   6.269   0.512   3.962 -0.2358  0.2207  0.5590
  199DOPC    HX24661   6.294   0.601   3.901 -2.8189 -0.2408 -1.3593
  199DOPC    HY24662   6.325   0.438   3.902 -0.0176  0.2112  0.7732
  199DOPC   O3124663   6.313   0.510   4.099 -0.1115  0.2400 -0.0885
  199DOPC   C3124664   6.331   0.389   4.151  0.3141  0.2335 -0.0594
  199DOPC   O3224665   6.326   0.280   4.092 -0.2310 -0.0891 -0.1733
  199DOPC   C3224666   6.336   0.401   4.302 -0.1701  0.1004  0.1131
  199DOPC   H2X24667   6.434   0.444   4.330  2.2675 -3.6821 -1.6562
  199DOPC   H2Y24668   6.265   0.474   4.344 -1.0598  0.7202 -2.2876
  199DOPC   C2324669   5.865   0.717   4.283  0.8453  0.2451 -0.2982
  199DOPC   H3R24670   5.845   0.614   4.318  2.6780 -0.3573 -0.9082
  199DOPC   H3S24671   5.777   0.783   4.299  1.1399  1.0012 -1.6567
  199DOPC   C2424672   5.976   0.785   4.370  0.8274 -0.0205  0.1574
  199DOPC   H4R24673   5.942   0.874   4.426  1.7833 -0.7619  1.9905
  199DOPC   H4S24674   6.068   0.799   4.309  0.2683  0.4783 -0.5949
  199DOPC   C2524675   6.014   0.682   4.482 -0.1495 -0.2634  0.2862
  199DOPC   H5R24676   6.050   0.590   4.429 -1.1032 -0.3347 -0.2584
  199DOPC   H5S24677   5.931   0.644   4.545  0.8715  0.2904  2.0567
  199DOPC   C2624678   6.118   0.739   4.573  0.0873 -0.0782 -0.9806
  199DOPC   H6R24679   6.080   0.829   4.626  0.7765  0.5395 -1.5174
  199DOPC   H6S24680   6.199   0.785   4.512 -0.9461  0.3384 -2.0822
  199DOPC   C2724681   6.183   0.649   4.676  0.1738 -0.4353 -0.3677
  199DOPC   H7R24682   6.255   0.710   4.735  1.0809 -0.5159 -1.3595
  199DOPC   H7S24683   6.232   0.570   4.615  0.6864 -1.4651  1.2931
  199DOPC   C2824684   6.085   0.597   4.783 -0.0042 -0.0785 -0.2910
  199DOPC   H8R24685   5.985   0.578   4.738 -0.8798  2.6097  0.3199
  199DOPC   H8S24686   6.072   0.683   4.853  1.1190 -0.3175  0.2399
  199DOPC   C2924687   6.134   0.473   4.856  0.4725  0.2045 -0.4764
  199DOPC   H9R24688   6.141   0.383   4.793  1.1911 -1.7145  2.1679
  199DOPC  C21024689   6.175   0.475   4.982  0.3270 -0.2058 -0.8068
  199DOPC  H10R24690   6.193   0.378   5.031  2.4662  0.3563 -0.3877
  199DOPC  C21124691   6.184   0.603   5.060 -0.2389  0.4177 -0.7303
  199DOPC  H11R24692   6.092   0.629   5.115 -0.2669 -2.9585  1.0624
  199DOPC  H11S24693   6.215   0.691   4.999 -0.2595 -0.2674 -1.7679
  199DOPC  C21224694   6.298   0.600   5.166  0.1952 -0.1369 -0.0143
  199DOPC  H12R24695   6.312   0.704   5.203  2.0491 -0.9327  1.7499
  199DOPC  H12S24696   6.396   0.589   5.115  0.6339 -2.1800  1.1470
  199DOPC  C21324697   6.278   0.493   5.280 -0.1443  0.0959 -0.4098
  199DOPC  H13R24698   6.320   0.396   5.247  0.6237  0.1648  0.3530
  199DOPC  H13S24699   6.173   0.468   5.305 -0.6505  1.4969 -1.0489
  199DOPC  C21424700   6.338   0.542   5.412  0.1091 -0.5430 -0.0533
  199DOPC  H14R24701   6.441   0.570   5.381  0.9304 -2.1399  1.0993
  199DOPC  H14S24702   6.341   0.456   5.482 -1.0899  0.7874  1.7213
  199DOPC  C21524703   6.271   0.659   5.479 -0.3209 -0.1738  0.4401
  199DOPC  H15R24704   6.203   0.712   5.409  1.3051 -0.9651 -1.8916
  199DOPC  H15S24705   6.354   0.728   5.507  0.5426  0.6587 -3.5019
  199DOPC  C21624706   6.193   0.608   5.593 -0.2209  0.3150 -1.3091
  199DOPC  H16R24707   6.253   0.568   5.678 -1.3874  0.4025 -0.4160
  199DOPC  H16S24708   6.121   0.529   5.564 -0.3890 -0.2275  0.4665
  199DOPC  C21724709   6.095   0.713   5.657  0.2038  0.5267  0.2550
  199DOPC  H17R24710   6.017   0.655   5.711 -0.4598  0.0042 -1.2408
  199DOPC  H17S24711   6.050   0.770   5.574  1.2522  1.6244  0.4098
  199DOPC  C21824712   6.172   0.811   5.745  0.6920 -0.4049  0.1825
  199DOPC  H18R24713   6.108   0.899   5.766  0.8830 -0.6539  2.0170
  199DOPC  H18S24714   6.254   0.860   5.688 -0.1230  0.7966  0.0097
  199DOPC  H18T24715   6.195   0.762   5.842 -0.2734 -0.6608  0.2854
  199DOPC   C3324716   6.338   0.270   4.381 -0.4202 -0.0760 -0.2987
  199DOPC   H3X24717   6.423   0.210   4.341  0.8043  0.3732  1.5266
  199DOPC   H3Y24718   6.247   0.213   4.349 -0.3950 -0.5894  0.5258
  199DOPC   C3424719   6.360   0.271   4.533 -0.0781  0.1330 -0.4916
  199DOPC   H4X24720   6.273   0.311   4.589 -0.3989 -0.0221 -0.8738
  199DOPC   H4Y24721   6.444   0.334   4.568  1.0841 -0.3177 -2.3193
  199DOPC   C3524722   6.388   0.126   4.592  0.7457 -0.0037 -0.5134
  199DOPC   H5X24723   6.488   0.084   4.567  0.8657  0.0894 -0.1989
  199DOPC   H5Y24724   6.304   0.069   4.548 -1.7197  2.1483  1.1438
  199DOPC   C3624725   6.359   0.106   4.742 -0.2772 -0.0394 -0.6723
  199DOPC   H6X24726   6.267   0.155   4.782  0.4757 -0.0835  1.2191
  199DOPC   H6Y24727   6.336  -0.003   4.750 -0.5377  0.1663  2.4992
  199DOPC   C3724728   6.482   0.145   4.831 -0.0078 -0.1781 -0.9167
  199DOPC   H7X24729   6.572   0.088   4.800  0.2611 -0.1371 -0.2400
  199DOPC   H7Y24730   6.499   0.253   4.812 -0.6248 -0.1515 -1.3375
  199DOPC   C3824731   6.465   0.124   4.985  0.5117  0.2835 -0.0946
  199DOPC   H8X24732   6.363   0.152   5.017 -0.0724  0.1211 -1.7260
  199DOPC   H8Y24733   6.540   0.193   5.029  1.2624  0.1819 -1.1605
  199DOPC   C3924734   6.492  -0.018   5.023  0.6764 -0.0048  0.2155
  199DOPC   H9X24735   6.553  -0.072   4.949  2.6508 -0.4798  2.0868
  199DOPC  C31024736   6.481  -0.078   5.145  0.0483  0.5815  0.3796
  199DOPC  H10X24737   6.491  -0.187   5.150 -0.8040  0.4003 -1.1387
  199DOPC  C31124738   6.442   0.000   5.266 -0.1347  0.2613  0.2081
  199DOPC  H11X24739   6.350  -0.035   5.318 -0.0675  1.4336  1.1603
  199DOPC  H11Y24740   6.444   0.111   5.257 -0.0333  0.1458 -1.4467
  199DOPC  C31224741   6.559  -0.013   5.365 -0.1589 -0.3931  0.5426
  199DOPC  H12X24742   6.660   0.031   5.351 -0.8026  0.9302 -0.1007
  199DOPC  H12Y24743   6.573  -0.121   5.387 -1.5580 -1.0070 -1.3204
  199DOPC  C31324744   6.506   0.051   5.493  0.9406 -0.6612  0.3249
  199DOPC  H13X24745   6.476   0.153   5.461  2.2025  0.0609  1.3624
  199DOPC  H13Y24746   6.415   0.006   5.537 -0.8215  2.8840  0.6408
  199DOPC  C31424747   6.605   0.045   5.602  1.2975  0.0091 -0.0482
  199DOPC  H14X24748   6.624  -0.062   5.623 -1.4134 -0.2636  1.5274
  199DOPC  H14Y24749   6.703   0.088   5.571  0.3799  0.3164 -2.7376
  199DOPC  C31524750   6.561   0.111   5.730  0.3098  0.6202 -0.6591
  199DOPC  H15X24751   6.450   0.117   5.736  0.3145  0.2455 -0.0745
  199DOPC  H15Y24752   6.600   0.212   5.752  1.1875  0.0036  0.7563
  199DOPC  C31624753   6.604   0.033   5.864 -0.4123 -1.0869 -0.4379
  199DOPC  H16X24754   6.712   0.028   5.889 -0.5392 -0.9862  0.1310
  199DOPC  H16Y24755   6.563   0.106   5.936  2.1480 -0.1454  0.1451
  199DOPC  C31724756   6.549  -0.111   5.881  0.2443  0.0902  0.0517
  199DOPC  H17X24757   6.605  -0.184   5.820 -0.1944  0.9243 -1.4099
  199DOPC  H17Y24758   6.559  -0.145   5.986 -1.1635  0.6992  0.4091
  199DOPC  C31824759   6.397  -0.121   5.872  0.5057 -0.0979  0.0918
  199DOPC  H18X24760   6.361  -0.090   5.771  1.1228  0.4356  0.0312
  199DOPC  H18Y24761   6.380  -0.230   5.885 -1.3806  0.4156  3.0645
  199DOPC  H18Z24762   6.334  -0.067   5.946  0.8062 -0.7552  0.8462
  200DOPC     N24763   1.471   0.982   3.208 -0.5893  0.4777  0.0689
  200DOPC   C1224764   1.499   1.125   3.233 -0.2889 -0.1120  0.0191
  200DOPC  H12A24765   1.603   1.141   3.208 -0.2319 -1.6413 -0.8279
  200DOPC  H12B24766   1.472   1.153   3.334 -0.7913  2.0175 -0.6582
  200DOPC   C1324767   1.496   0.936   3.065 -0.4577  0.2827  0.1506
  200DOPC  H13A24768   1.478   0.829   3.066  1.1682 -0.0186 -0.3900
  200DOPC  H13B24769   1.427   0.989   3.002 -1.1408 -0.7865 -0.0143
  200DOPC  H13C24770   1.599   0.944   3.035 -0.1043  1.8051  1.5836
  200DOPC   C1424771   1.331   0.940   3.248  0.4264  0.3426 -0.0849
  200DOPC  H14A24772   1.323   0.833   3.256 -1.5716  0.4209 -0.6186
  200DOPC  H14B24773   1.299   0.979   3.344 -0.5884  2.3746 -1.1771
  200DOPC  H14C24774   1.259   0.983   3.180 -1.6317 -0.8968  1.2259
  200DOPC   C1524775   1.569   0.906   3.303 -0.4109 -0.5162  0.0675
  200DOPC  H15A24776   1.673   0.924   3.278 -0.0474 -1.0448  1.1597
  200DOPC  H15B24777   1.557   0.799   3.303  0.3569 -0.6210 -1.1527
  200DOPC  H15C24778   1.558   0.942   3.404  0.3964  0.2407 -0.1010
  200DOPC   C1124779   1.430   1.233   3.143  0.5791 -0.0037  0.3563
  200DOPC  H11A24780   1.456   1.335   3.179 -0.7560  0.2197  0.7341
  200DOPC  H11B24781   1.467   1.215   3.040 -0.5546 -0.1117 -0.0510
  200DOPC     P24782   1.206   1.291   3.252 -0.1262  0.3564 -0.6442
  200DOPC   O1324783   1.094   1.196   3.289 -0.4838  0.5205 -0.6601
  200DOPC   O1424784   1.181   1.425   3.201 -0.1360 -0.9021 -0.0098
  200DOPC   O1224785   1.292   1.215   3.143 -0.2402  0.1130  0.3821
  200DOPC   O1124786   1.312   1.296   3.371 -0.1481 -0.1333 -0.2688
  200DOPC    C124787   1.326   1.399   3.466 -0.4176 -0.0603 -0.0577
  200DOPC    HA24788   1.285   1.495   3.427 -2.4930 -1.4038 -1.3948
  200DOPC    HB24789   1.433   1.423   3.483 -0.4572 -1.2518  2.3099
  200DOPC    C224790   1.251   1.361   3.597  0.1411 -0.5194 -0.0539
  200DOPC    HS24791   1.146   1.340   3.570  0.2697 -0.5326 -0.5576
  200DOPC   O2124792   1.267   1.462   3.698  0.1779 -0.4049 -0.2042
  200DOPC   C2124793   1.157   1.525   3.735 -0.5081 -0.2728 -1.1845
  200DOPC   O2224794   1.044   1.510   3.687 -0.0667 -0.1894  0.3212
  200DOPC   C2224795   1.200   1.625   3.850  0.1695  0.2190 -0.4957
  200DOPC   H2R24796   1.108   1.682   3.876 -0.2051  0.1606 -1.6755
  200DOPC   H2S24797   1.273   1.700   3.813  0.1029  2.3211  3.0492
  200DOPC    C324798   1.301   1.232   3.663  0.1486  0.2701 -0.2838
  200DOPC    HX24799   1.403   1.250   3.703  0.5006  0.0299 -1.0637
  200DOPC    HY24800   1.297   1.154   3.585  1.9125  0.5739 -0.7083
  200DOPC   O3124801   1.199   1.191   3.755 -0.0251  0.1270  0.6016
  200DOPC   C3124802   1.240   1.112   3.852  0.2952 -0.8706 -0.4271
  200DOPC   O3224803   1.349   1.062   3.864 -0.0081  0.3574  0.6528
  200DOPC   C3224804   1.118   1.079   3.944 -0.1371 -0.9177  0.1031
  200DOPC   H2X24805   1.029   1.081   3.878 -0.9426 -1.0162  1.1647
  200DOPC   H2Y24806   1.143   0.975   3.974 -0.9554 -0.8896  0.9329
  200DOPC   C2324807   1.257   1.551   3.972  0.5384  0.8126  0.1934
  200DOPC   H3R24808   1.358   1.510   3.954  0.2066  1.2031 -3.2316
  200DOPC   H3S24809   1.182   1.471   3.990 -0.0763  0.7620 -2.2055
  200DOPC   C2424810   1.250   1.644   4.101 -0.2922  0.2861 -0.0826
  200DOPC   H4R24811   1.142   1.668   4.108 -0.4456 -0.3681 -0.1030
  200DOPC   H4S24812   1.309   1.737   4.085 -0.6697  0.4933 -0.2894
  200DOPC   C2524813   1.297   1.564   4.228  0.3016 -0.1312  0.4093
  200DOPC   H5R24814   1.396   1.517   4.210  0.5917  0.6668 -0.1487
  200DOPC   H5S24815   1.224   1.484   4.253  0.9110  0.1271  3.3747
  200DOPC   C2624816   1.295   1.650   4.350  0.8287  0.2538 -0.3792
  200DOPC   H6R24817   1.215   1.727   4.343 -0.7094 -0.7430  3.3769
  200DOPC   H6S24818   1.382   1.719   4.347  0.1641  1.1762  0.6598
  200DOPC   C2724819   1.281   1.592   4.491 -0.0565 -0.8031  0.0434
  200DOPC   H7R24820   1.355   1.510   4.504  0.0780 -0.8111 -0.7154
  200DOPC   H7S24821   1.177   1.554   4.504 -0.1189 -1.4595 -1.9752
  200DOPC   C2824822   1.308   1.690   4.605  0.4580 -0.0689 -0.2877
  200DOPC   H8R24823   1.232   1.770   4.588 -0.0932 -0.6027 -0.3790
  200DOPC   H8S24824   1.414   1.719   4.591  1.0153 -1.4141  1.0012
  200DOPC   C2924825   1.288   1.621   4.740  0.1269 -0.3181 -0.1621
  200DOPC   H9R24826   1.312   1.516   4.756 -1.3933 -0.6040  0.4914
  200DOPC  C21024827   1.244   1.686   4.852 -0.1201 -0.1914  0.3887
  200DOPC  H10R24828   1.233   1.631   4.947 -0.5307 -0.2357  0.3189
  200DOPC  C21124829   1.220   1.831   4.869  0.8898 -0.7598 -0.3410
  200DOPC  H11R24830   1.113   1.860   4.875  1.2804  0.9990 -1.0360
  200DOPC  H11S24831   1.261   1.880   4.778  0.3912 -1.7304 -1.1109
  200DOPC  C21224832   1.285   1.881   4.999  0.3750 -0.1122  1.0948
  200DOPC  H12R24833   1.302   1.991   4.988  0.2544 -0.0600  1.4194
  200DOPC  H12S24834   1.388   1.842   5.013  0.6733  0.6680  1.1395
  200DOPC  C21324835   1.202   1.859   5.127 -0.2719 -0.6929 -0.4547
  200DOPC  H13R24836   1.160   1.756   5.121 -0.0044 -0.9839  1.6994
  200DOPC  H13S24837   1.116   1.929   5.128  0.8886  0.7818 -0.9040
  200DOPC  C21424838   1.285   1.890   5.251 -0.0852  0.5205  0.0161
  200DOPC  H14R24839   1.320   1.996   5.248 -0.6073  0.6781 -2.0219
  200DOPC  H14S24840   1.378   1.830   5.253  0.2231  0.9684  2.3744
  200DOPC  C21524841   1.200   1.869   5.375 -0.5142 -0.1314 -0.0971
  200DOPC  H15R24842   1.177   1.760   5.379  2.2214 -0.7916 -0.4958
  200DOPC  H15S24843   1.108   1.932   5.383 -0.3219 -0.0029  1.3145
  200DOPC  C21624844   1.277   1.910   5.499 -0.5970  0.4793  0.0373
  200DOPC  H16R24845   1.307   2.017   5.489 -0.4561  0.3088 -1.5435
  200DOPC  H16S24846   1.380   1.871   5.487 -1.0919 -1.2126  0.9460
  200DOPC  C21724847   1.217   1.880   5.634  0.0202 -0.1827  0.2278
  200DOPC  H17R24848   1.198   1.771   5.636 -1.9439 -0.0583 -3.3012
  200DOPC  H17S24849   1.117   1.928   5.646 -0.4945 -1.0631 -0.3958
  200DOPC  C21824850   1.306   1.909   5.755  0.5741 -0.4983 -0.6969
  200DOPC  H18R24851   1.342   2.013   5.746 -1.8699  0.5741  0.7222
  200DOPC  H18S24852   1.396   1.845   5.753  0.0885 -1.1898 -2.7249
  200DOPC  H18T24853   1.249   1.907   5.851 -1.6427  1.9847 -1.8423
  200DOPC   C3324854   1.103   1.161   4.076  0.3740  0.7152  0.5177
  200DOPC   H3X24855   0.993   1.152   4.090  0.1181 -1.3402 -1.8633
  200DOPC   H3Y24856   1.143   1.263   4.064  2.3040 -0.1627 -1.2196
  200DOPC   C3424857   1.167   1.088   4.202 -0.2907 -0.2789  0.5050
  200DOPC   H4X24858   1.277   1.075   4.195 -0.4397 -0.6382 -2.5694
  200DOPC   H4Y24859   1.125   0.985   4.211  1.6964 -1.2301 -0.5358
  200DOPC   C3524860   1.131   1.154   4.328 -0.4050 -0.3990  0.0979
  200DOPC   H5X24861   1.022   1.139   4.345 -0.5327 -0.1739 -0.4869
  200DOPC   H5Y24862   1.151   1.263   4.331  4.0788 -1.0466  1.5919
  200DOPC   C3624863   1.201   1.103   4.455  0.4549  0.1881  0.2743
  200DOPC   H6X24864   1.171   0.997   4.468  1.4937 -0.4219 -1.8712
  200DOPC   H6Y24865   1.307   1.097   4.422  0.3518  0.2389 -0.0750
  200DOPC   C3724866   1.178   1.186   4.585 -0.2050  0.2457  0.4131
  200DOPC   H7X24867   1.210   1.292   4.573  0.6187 -0.2627 -2.6311
  200DOPC   H7Y24868   1.068   1.190   4.600 -0.6487  1.0181 -2.3967
  200DOPC   C3824869   1.243   1.119   4.705  0.1473  0.7127 -0.1056
  200DOPC   H8X24870   1.342   1.080   4.674  0.3318  1.8859 -1.0954
  200DOPC   H8Y24871   1.192   1.025   4.737  1.0648  1.1903  3.1420
  200DOPC   C3924872   1.274   1.201   4.824  0.1386  0.2242 -0.2280
  200DOPC   H9X24873   1.376   1.241   4.829  0.1332  0.2351 -0.2055
  200DOPC  C31024874   1.187   1.226   4.926 -0.3211 -0.2253  0.3558
  200DOPC  H10X24875   1.206   1.309   4.996  0.0668  1.1535 -1.3048
  200DOPC  C31124876   1.047   1.171   4.929  0.0294 -0.2833  0.4171
  200DOPC  H11X24877   1.026   1.107   4.840  2.0561  2.0638 -1.9182
  200DOPC  H11Y24878   0.972   1.253   4.919 -0.4056 -0.7530 -0.3219
  200DOPC  C31224879   1.007   1.099   5.061 -0.3347 -0.7088  0.0721
  200DOPC  H12X24880   1.057   1.000   5.068  0.8364 -0.1060  0.5244
  200DOPC  H12Y24881   0.897   1.081   5.063 -0.2910 -1.0046 -0.0675
  200DOPC  C31324882   1.047   1.180   5.193 -0.0194  0.5239 -0.0654
  200DOPC  H13X24883   1.157   1.197   5.202 -0.1135  0.3557  1.6914
  200DOPC  H13Y24884   1.009   1.284   5.181 -0.8210  0.4838  1.8418
  200DOPC  C31424885   0.985   1.129   5.319 -0.1337  0.3151 -0.5913
  200DOPC  H14X24886   0.874   1.134   5.317 -0.4587 -3.7180 -2.5929
  200DOPC  H14Y24887   1.010   1.022   5.330  2.0130  0.7129 -1.1411
  200DOPC  C31524888   1.036   1.208   5.440 -0.2524 -0.6319  0.2003
  200DOPC  H15X24889   0.996   1.311   5.438  1.2513 -0.0092  0.8476
  200DOPC  H15Y24890   1.146   1.213   5.428 -0.1389  1.2323  1.6023
  200DOPC  C31624891   1.019   1.143   5.581 -0.1834  0.0890  0.4079
  200DOPC  H16X24892   1.012   1.032   5.585 -0.1049  0.0812  0.3495
  200DOPC  H16Y24893   1.114   1.173   5.633  0.8079 -0.0989 -1.2345
  200DOPC  C31724894   0.901   1.197   5.658  0.1475  0.0756  0.6615
  200DOPC  H17X24895   0.895   1.308   5.663 -3.0606 -0.0444  4.1604
  200DOPC  H17Y24896   0.800   1.169   5.622 -0.5188  0.7402  1.9569
  200DOPC  C31824897   0.921   1.148   5.800  0.0592  0.0070 -1.1366
  200DOPC  H18X24898   0.823   1.106   5.830  0.4901 -1.4521 -1.6963
  200DOPC  H18Y24899   1.010   1.082   5.806 -0.0697 -0.0455  0.5345
  200DOPC  H18Z24900   0.949   1.238   5.859  1.9729 -0.9355 -0.5349
  201SOD    SOD24901   3.388   6.406  11.441 -0.2131  0.8000 -0.3319
  202SOD    SOD24902   4.570   0.439   2.545 -0.1859 -0.0727 -0.0741
  203SOD    SOD24903   6.442   3.334   9.557 -0.4420 -0.1666 -0.4000
  204SOD    SOD24904   5.829   1.696   0.957  0.4528  0.2265 -0.4185
  205SOD    SOD24905   6.384   2.143  11.264 -0.4266 -0.5453  0.0531
  206SOD    SOD24906   3.601   0.463   3.686  0.0947 -0.2107  0.4057
  207SOD    SOD24907   2.617   6.789   1.526  0.4997  0.5746 -0.3445
  208SOD    SOD24908   0.861   5.622   9.058 -0.1194  0.6673 -0.6445
  209SOD    SOD24909   5.036   1.801   4.050 -0.8651  0.2332 -0.3084
  210SOD    SOD24910   3.994   2.361   8.810 -0.0707  0.3305  0.0703
  211SOD    SOD24911   0.747   2.600   9.816  0.1929 -0.1432  0.1613
  212SOD    SOD24912   6.260   3.843   9.469 -0.1712 -0.2496  0.0819
  213SOD    SOD24913   1.143   4.189   4.018 -0.5757 -0.1405 -0.4156
  214SOD    SOD24914   0.908   5.157   8.496 -0.0586  0.3965 -0.0674
  215SOD    SOD24915   1.931   1.707   9.884  0.2823  0.1497 -0.1879
  216SOD    SOD24916   5.394   3.235   9.219  0.2464 -0.3234 -0.2564
  217SOD    SOD24917   3.778   3.943   1.812  0.4129 -0.0116  0.1673
  218SOD    SOD24918   5.958   1.161   8.557  0.7751  0.2600  0.3805
  219SOD    SOD24919   1.513   2.767  11.244  0.0705 -0.6698  0.0521
  220SOD    SOD24920   4.179   6.024   3.105 -0.0795  0.6215  0.2509
  221SOD    SOD24921   1.864   3.724   2.855  0.0674  0.1389 -0.3643
  222SOD    SOD24922   3.997   2.943  10.634 -0.1865  0.0870 -0.4467
  223SOD    SOD24923   4.835   4.474   2.695  0.0948 -0.3733 -0.2611
  224SOD    SOD24924   1.989   2.458   1.040 -0.5843  0.2590 -0.7375
  225SOD    SOD24925   1.937   6.686   3.645  0.2931 -0.2636 -0.1135
  226SOD    SOD24926   1.803   4.656  10.478  0.0461  0.6079  0.1703
  227CLA    CLA24927   3.217   0.005   3.971  0.0300 -0.0084 -0.1877
  228CLA    CLA24928   0.535   3.596   1.897  0.3344 -0.0819  0.4616
  229CLA    CLA24929   3.861   5.061   3.352  0.2174  0.2370 -0.2467
  230CLA    CLA24930   2.706   1.132  11.025 -0.0759  0.5731 -0.0512
  231CLA    CLA24931   0.599   1.591  11.558 -0.2755 -0.0254  0.0677
  232CLA    CLA24932   1.871   5.855  10.994  0.4533  0.3475 -0.0646
  233CLA    CLA24933   3.217   6.247  10.635  0.5828  0.0138 -0.2045
  234CLA    CLA24934   5.694   2.254  11.483 -0.3854 -0.1097 -0.2646
  235CLA    CLA24935   6.156   3.802   2.948 -0.3704  0.2239 -0.0244
  236CLA    CLA24936   5.095   6.106  10.772  0.0103  0.3972  0.1065
  237CLA    CLA24937   6.338   3.524   9.112 -0.0604  0.2838  0.2192
  238CLA    CLA24938   0.014   6.645   1.319 -0.1625 -0.0176 -0.3328
  239CLA    CLA24939   2.050   3.642   3.045 -0.0362  0.1297  0.1515
  240CLA    CLA24940   4.436   3.498   9.287  0.4745 -0.3943  0.0423
  241CLA    CLA24941   5.998   0.827   1.679  0.0957 -0.0743 -0.0031
  242CLA    CLA24942   1.811   1.238   9.363 -0.0067 -0.4331 -0.2121
  243CLA    CLA24943   5.679   0.308   1.090  0.2609  0.0768  0.2219
  244CLA    CLA24944   2.537   6.622   0.921  0.2017 -0.0885 -0.0022
  245CLA    CLA24945   4.117   4.586   1.182 -0.0248 -0.5772 -0.3601
  246CLA    CLA24946   6.673   2.515  10.971  0.2362 -0.1304 -0.1482
  247CLA    CLA24947   3.623   2.939   2.716 -0.2704 -0.0828 -0.0076
  248CLA    CLA24948   2.413   0.727   3.495  0.0895  0.1382 -0.1048
  249CLA    CLA24949   2.923   3.567   3.483  0.3553  0.0608 -0.0697
  250CLA    CLA24950   5.059   3.681   9.873 -0.3619  0.1435  0.1907
  251CLA    CLA24951   6.353   2.799   9.857 -0.1830  0.3033 -0.4493
  252CLA    CLA24952   1.942   4.970   2.498 -0.2315  0.0319  0.1972
  253TIP3   OH224953   5.190   4.830   8.961 -0.7974 -0.1947  0.2751
  253TIP3    H124954   5.237   4.802   9.040 -0.1265  0.4093  0.1040
  253TIP3    H224955   5.247   4.805   8.889 -1.1039 -0.1531  0.0179
  254TIP3   OH224956   5.717   5.699   8.713  0.1937 -0.5817  0.0678
  254TIP3    H124957   5.673   5.614   8.711  0.1158 -0.5357 -0.2859
  254TIP3    H224958   5.810   5.678   8.709  0.2045 -0.6736  0.6670
  255TIP3   OH224959   4.715   4.443   9.781  0.1157 -0.1874  0.2411
  255TIP3    H124960   4.799   4.460   9.824 -0.1513  2.7864 -0.2419
  255TIP3    H224961   4.738   4.419   9.691  0.4715 -1.3855  0.6278
  256TIP3   OH224962   3.018   4.728  11.155 -0.1839  0.6593 -0.5342
  256TIP3    H124963   3.070   4.713  11.234 -1.2496  2.2773  0.5219
  256TIP3    H224964   3.082   4.754  11.089  0.6949 -0.5287 -0.1806
  257TIP3   OH224965   3.991   6.752  10.358 -0.5078  0.2085 -0.5039
  257TIP3    H124966   3.953   6.669  10.385  0.8626 -0.5407 -0.7844
  257TIP3    H224967   3.922   6.817  10.375 -1.7514 -1.0248 -0.6790
  258TIP3   OH224968   1.622   3.906  11.656 -0.0065  0.3374 -0.1119
  258TIP3    H124969   1.612   3.822  11.700 -0.6996  0.4779  0.0193
  258TIP3    H224970   1.648   3.967  11.725 -0.3129  0.3962 -0.0476
  259TIP3   OH224971   5.758   3.723   9.527 -0.4297  0.3126  0.2353
  259TIP3    H124972   5.762   3.736   9.622 -2.7619 -2.9164  0.9853
  259TIP3    H224973   5.673   3.758   9.502 -0.2169  0.3294 -0.4676
  260TIP3   OH224974   2.102   5.238  10.528 -0.0266 -0.1233 -0.0393
  260TIP3    H124975   2.031   5.244  10.592 -1.5851 -1.7982 -1.4981
  260TIP3    H224976   2.181   5.230  10.582 -1.2871 -1.6484  1.7291
  261TIP3   OH224977   3.906   1.984   9.014  0.2455  0.5768  0.6160
  261TIP3    H124978   3.877   1.942   9.095  1.7439 -0.8054  0.4915
  261TIP3    H224979   3.939   1.912   8.960 -2.9130  1.0604 -2.3112
  262TIP3   OH224980   0.238   6.200  10.026  0.1193 -0.5522  1.1062
  262TIP3    H124981   0.212   6.127   9.970  4.1255 -1.2013 -0.1715
  262TIP3    H224982   0.254   6.161  10.112  0.8987 -0.9457  0.7885
  263TIP3   OH224983   0.219   0.821   8.169 -0.0675  0.2206 -0.1364
  263TIP3    H124984   0.231   0.851   8.259 -0.2015  0.7732 -0.2959
  263TIP3    H224985   0.235   0.899   8.116  0.5742 -0.2384 -0.6238
  264TIP3   OH224986   5.968   6.794  10.984  0.0107 -0.6236 -0.3475
  264TIP3    H124987   5.951   6.879  11.025 -0.0485  0.4227 -2.4377
  264TIP3    H224988   6.040   6.758  11.035 -0.4745  0.3070  1.0764
  265TIP3   OH224989   6.164   4.801  10.421  0.4910 -0.3583 -0.4495
  265TIP3    H124990   6.095   4.761  10.475 -1.0563 -1.2609 -2.9182
  265TIP3    H224991   6.179   4.887  10.461 -3.6519  0.7988 -0.9181
  266TIP3   OH224992   5.945   6.082  10.970 -0.0191 -0.0302  0.0940
  266TIP3    H124993   5.996   6.087  10.889  0.7766  0.0054  0.5868
  266TIP3    H224994   6.009   6.059  11.037 -0.5602  0.5470  0.8242
  267TIP3   OH224995   5.222   1.803  11.302  0.1880  0.4174 -0.0220
  267TIP3    H124996   5.165   1.735  11.338 -2.3946  1.8374 -1.2359
  267TIP3    H224997   5.306   1.758  11.290 -0.7165 -1.8833  1.4218
  268TIP3   OH224998   5.440   1.039  10.964  0.3274  0.3944 -0.1661
  268TIP3    H124999   5.360   1.004  10.925  0.3915 -0.7541  0.6922
  268TIP3    H225000   5.483   1.085  10.892  1.0078 -2.6290 -1.8689
  269TIP3   OH225001   1.471   5.374  11.923 -0.2139 -0.2958 -0.2327
  269TIP3    H125002   1.504   5.455  11.963  0.4140 -1.1138  0.9834
  269TIP3    H225003   1.535   5.353  11.855 -0.5669  0.4101 -0.7872
  270TIP3   OH225004   5.041   1.634  11.460 -0.3036 -0.3149  0.5790
  270TIP3    H125005   4.967   1.693  11.445 -0.4312 -0.1506  1.7790
  270TIP3    H225006   5.000   1.549  11.477 -0.2885 -0.0300  2.1789
  271TIP3   OH225007   6.420   2.917   9.282  0.5014  0.4893 -0.1586
  271TIP3    H125008   6.455   2.848   9.225  2.9712  0.2835  1.4329
  271TIP3    H225009   6.333   2.886   9.307 -0.5775  0.4838 -3.4962
  272TIP3   OH225010   0.475   5.093   9.690 -0.0256 -0.6312 -0.4013
  272TIP3    H125011   0.523   5.162   9.735 -1.5379 -0.7304  1.4673
  272TIP3    H225012   0.472   5.021   9.753 -0.4213 -1.5800 -1.4640
  273TIP3   OH225013   3.206   2.336  11.688  0.2008 -0.6862  0.6510
  273TIP3    H125014   3.209   2.410  11.628 -2.2134 -2.2478 -1.6120
  273TIP3    H225015   3.127   2.349  11.740 -0.5393 -1.8258 -0.1214
  274TIP3   OH225016   0.788   6.116   9.696 -0.2585  0.0162  0.5550
  274TIP3    H125017   0.756   6.104   9.786  0.8147  1.6039  1.2008
  274TIP3    H225018   0.883   6.104   9.703 -0.2741 -0.9941 -0.6185
  275TIP3   OH225019   0.993   1.135   8.113  0.1922 -0.3614  0.3367
  275TIP3    H125020   0.962   1.194   8.044  0.3435 -0.8804 -0.1878
  275TIP3    H225021   1.088   1.146   8.113  0.1164  0.3099  1.0881
  276TIP3   OH225022   5.833   0.507  10.963 -0.0589  0.2866  0.1210
  276TIP3    H125023   5.778   0.566  11.015 -0.7439  0.8520 -1.1941
  276TIP3    H225024   5.775   0.473  10.895  0.2813 -2.0885  0.9478
  277TIP3   OH225025   1.463   4.807  11.154 -0.5163  0.8533  0.0681
  277TIP3    H125026   1.410   4.738  11.114  0.0402  0.1480  0.5262
  277TIP3    H225027   1.401   4.879  11.169 -1.3707  0.0256  0.6632
  278TIP3   OH225028   1.013   2.770  10.512 -0.1971  0.6361  0.3528
  278TIP3    H125029   1.079   2.793  10.578  4.6285 -0.2880 -3.5304
  278TIP3    H225030   0.973   2.853  10.487  0.5581  1.4799  1.8735
  279TIP3   OH225031   6.244   0.022   9.689  0.5966  0.3434  0.2710
  279TIP3    H125032   6.303   0.027   9.614 -1.2636  0.8450 -1.2237
  279TIP3    H225033   6.293  -0.028   9.755  4.2689  3.8992  0.6462
  280TIP3   OH225034   6.778   4.314   9.816  0.1527  0.0889  0.2117
  280TIP3    H125035   6.704   4.348   9.866 -0.0143  0.8189 -0.5197
  280TIP3    H225036   6.746   4.232   9.779  0.7756 -1.3229  2.5432
  281TIP3   OH225037   3.559   1.240  10.625 -0.3048  0.1269 -0.3403
  281TIP3    H125038   3.639   1.286  10.652 -0.1186  0.4011 -1.2789
  281TIP3    H225039   3.556   1.253  10.530 -1.1905 -0.3311 -0.3857
  282TIP3   OH225040   5.588   6.464   8.543  0.4348 -0.1454 -0.4873
  282TIP3    H125041   5.538   6.427   8.471  0.2927 -0.1953 -0.3637
  282TIP3    H225042   5.680   6.454   8.517  0.3810 -0.0928 -0.6947
  283TIP3   OH225043   4.079   1.550   8.685 -0.0923  0.0896 -0.7547
  283TIP3    H125044   4.062   1.472   8.737 -0.5788  1.0405  0.5926
  283TIP3    H225045   4.117   1.518   8.604 -1.5675 -1.6283 -0.8219
  284TIP3   OH225046   5.661   1.631   1.131 -0.3395 -0.1065 -0.0124
  284TIP3    H125047   5.654   1.644   1.226  0.3055 -0.2645  0.0612
  284TIP3    H225048   5.572   1.612   1.103 -0.6972  0.8323  0.4253
  285TIP3   OH225049   5.379   5.186   2.171 -0.2212  0.2274  0.4596
  285TIP3    H125050   5.315   5.158   2.106 -0.4470  1.0542  0.3133
  285TIP3    H225051   5.363   5.280   2.182  2.0625  0.8402 -0.8323
  286TIP3   OH225052   3.074   5.206   2.055 -0.1083  0.1083 -0.1220
  286TIP3    H125053   3.073   5.226   1.961  1.2960  1.5701  0.1352
  286TIP3    H225054   3.024   5.276   2.095  1.4475  0.9420  0.4318
  287TIP3   OH225055   2.433   1.204   0.462  0.2303 -0.1168  0.0777
  287TIP3    H125056   2.351   1.161   0.440  0.2602 -0.8509  1.3147
  287TIP3    H225057   2.500   1.137   0.449  0.4573  0.0191  0.5210
  288TIP3   OH225058   0.104   4.984   3.524 -0.0511  0.0886  0.2945
  288TIP3    H125059   0.044   5.048   3.563  1.4200  0.9037  1.3345
  288TIP3    H225060   0.071   4.899   3.553 -0.5823  0.5270  1.0214
  289TIP3   OH225061   0.995   3.448   2.182 -0.6945 -0.4464 -0.3431
  289TIP3    H125062   1.012   3.512   2.252 -1.1640 -0.0448 -0.5897
  289TIP3    H225063   1.079   3.406   2.168  0.1383  1.4569 -1.5026
  290TIP3   OH225064   5.617   5.625   0.973 -0.4741 -0.0107  0.4073
  290TIP3    H125065   5.610   5.701   0.915  0.7109  0.0006  0.2550
  290TIP3    H225066   5.704   5.590   0.956 -0.6946 -0.9169  1.0821
  291TIP3   OH225067   0.530   6.334   1.625  0.2246  0.5560  0.3768
  291TIP3    H125068   0.449   6.323   1.575  0.1530  0.1883  0.5686
  291TIP3    H225069   0.521   6.274   1.698 -0.4687  2.3785  1.8652
  292TIP3   OH225070   2.406   0.043   4.758  0.0801 -0.9218 -0.6640
  292TIP3    H125071   2.476   0.085   4.707  1.3088 -2.8266 -0.6726
  292TIP3    H225072   2.439   0.043   4.848 -0.8992  0.0775 -0.2942
  293TIP3   OH225073   1.807   4.060   3.151 -0.2578  0.2171  0.2453
  293TIP3    H125074   1.901   4.044   3.142 -0.2621  0.5739 -0.4916
  293TIP3    H225075   1.773   4.056   3.062 -0.9716 -0.0696  0.5252
  294TIP3   OH225076   5.190   6.059   2.033  0.1166  0.3650 -0.5893
  294TIP3    H125077   5.272   6.036   1.990  0.7069 -0.0155  0.6940
  294TIP3    H225078   5.195   6.017   2.119 -0.8953  1.3175 -0.0338
  295TIP3   OH225079   3.457   3.091   1.905 -0.1140  0.1659 -0.3725
  295TIP3    H125080   3.432   3.026   1.971 -0.0494  0.6879  0.1649
  295TIP3    H225081   3.382   3.150   1.899  0.6674  1.3339  0.7541
  296TIP3   OH225082   0.536   6.369   1.229 -0.3142 -0.1502  0.1231
  296TIP3    H125083   0.511   6.415   1.309  2.5779  1.2202  0.3544
  296TIP3    H225084   0.535   6.277   1.254  0.7670  0.2504  1.8761
  297TIP3   OH225085   4.203   5.795   3.039  0.5863 -0.1861 -0.0542
  297TIP3    H125086   4.144   5.746   2.982  0.0464  1.0045 -0.5611
  297TIP3    H225087   4.273   5.733   3.061  0.7738 -0.7204 -1.9565
  298TIP3   OH225088   0.787   2.174   2.543 -0.5037 -0.7076 -0.0695
  298TIP3    H125089   0.786   2.220   2.460  0.2894  1.1268  0.8732
  298TIP3    H225090   0.869   2.202   2.585 -1.0637 -1.2743  1.4780
  299TIP3   OH225091   4.740   2.249   2.347  0.3593  0.5702 -0.0324
  299TIP3    H125092   4.830   2.280   2.336  0.8065 -0.3423  0.9242
  299TIP3    H225093   4.735   2.170   2.293  1.3647 -1.6267  2.8142
  300TIP3   OH225094   6.592   1.512   2.322  0.4228  0.3634  0.5526
  300TIP3    H125095   6.630   1.566   2.391 -1.4759  2.1137  0.3056
  300TIP3    H225096   6.665   1.460   2.289  1.3282 -1.0325  4.2358
  301TIP3   OH225097   3.717   5.067   3.885  0.7356 -0.3367  0.0382
  301TIP3    H125098   3.781   5.109   3.827  0.1239 -0.9912 -1.1328
  301TIP3    H225099   3.654   5.136   3.905  0.1410 -0.4679 -1.2869
  302TIP3   OH225100   4.575   0.016   1.120  0.8576 -0.2491 -0.4691
  302TIP3    H125101   4.600  -0.074   1.141 -2.2470 -1.0579  0.2068
  302TIP3    H225102   4.619   0.033   1.036  3.5401 -1.3986  0.5741
  303TIP3   OH225103   1.079   0.584   2.431  0.8616  0.0464 -0.4230
  303TIP3    H125104   1.096   0.636   2.353 -0.1552 -1.0872 -1.4426
  303TIP3    H225105   1.100   0.494   2.405 -0.1865 -0.4452  0.3660
  304TIP3   OH225106   0.673   5.984   1.090 -0.8515  0.0147  0.0753
  304TIP3    H125107   0.626   5.980   1.007 -0.7879  0.5058  0.0104
  304TIP3    H225108   0.604   5.993   1.156 -0.9359 -0.9881  0.1363
  305TIP3   OH225109   3.887   2.317   1.614  0.6829 -0.0665 -0.1091
  305TIP3    H125110   3.826   2.243   1.611 -0.6001  0.9473  0.1505
  305TIP3    H225111   3.834   2.390   1.646  2.0670  0.8330  0.1944
  306TIP3   OH225112   3.131   3.927   0.878 -0.0254 -0.2839  0.0264
  306TIP3    H125113   3.156   3.906   0.787  1.0958 -1.0037  0.4736
  306TIP3    H225114   3.184   3.868   0.931 -1.8348 -0.9865  1.1137
  307TIP3   OH225115   6.480   2.559   0.620  0.7317  0.5090  0.3190
  307TIP3    H125116   6.467   2.522   0.533 -0.5232  2.3826 -0.3561
  307TIP3    H225117   6.414   2.517   0.674  2.2137 -1.4807  0.7170
  308TIP3   OH225118   0.322   5.880   2.781  0.4962 -0.1511 -0.2902
  308TIP3    H125119   0.316   5.789   2.810 -1.2836 -0.5594 -1.7421
  308TIP3    H225120   0.290   5.879   2.691 -2.1758  2.2663  0.4731
  309TIP3   OH225121   0.877   4.372   2.433 -0.4098 -0.2637  1.0576
  309TIP3    H125122   0.933   4.447   2.411 -1.6621  0.6737  0.9868
  309TIP3    H225123   0.931   4.295   2.412  0.3100  0.6051 -0.4466
  310TIP3   OH225124   4.451   2.957   3.528 -0.0341 -0.4926 -0.0440
  310TIP3    H125125   4.502   2.979   3.606 -1.2812 -0.8076  0.8925
  310TIP3    H225126   4.399   3.035   3.510  0.3416 -0.3702 -0.6671
  311TIP3   OH225127   1.394   2.734   2.805  0.2784 -0.4433  0.1525
  311TIP3    H125128   1.457   2.799   2.776  0.7691 -0.5166  1.0075
  311TIP3    H225129   1.421   2.653   2.762  0.0393 -0.2258 -0.4202
  312TIP3   OH225130   4.223   0.332   1.837  0.4863  0.4916  0.7245
  312TIP3    H125131   4.225   0.270   1.764 -0.3227  0.3482  0.8079
  312TIP3    H225132   4.130   0.338   1.859  0.1804  3.5760 -0.8625
  313TIP3   OH225133   1.380   6.380   1.441 -0.7990 -0.8280  0.4217
  313TIP3    H125134   1.361   6.436   1.366 -1.0277  1.2157  1.8846
  313TIP3    H225135   1.299   6.334   1.459 -0.3580 -2.4029 -1.3460
  314TIP3   OH225136   3.054   5.574   1.019  0.0813 -0.0952 -0.0089
  314TIP3    H125137   3.117   5.506   1.043  0.2651  0.6407  1.6814
  314TIP3    H225138   3.022   5.609   1.102 -2.1637 -0.0470 -0.8004
  315TIP3   OH225139   2.136   2.738   3.114 -0.6303  0.4614  0.5498
  315TIP3    H125140   2.176   2.825   3.105  0.8489 -0.2407  0.0354
  315TIP3    H225141   2.137   2.702   3.025  1.0206 -1.0135  1.1227
  316TIP3   OH225142   5.373   1.469   1.546  0.1704 -0.8362 -0.2109
  316TIP3    H125143   5.380   1.374   1.557 -1.1311 -0.6913  3.1390
  316TIP3    H225144   5.437   1.505   1.607  0.2408  0.4526 -1.0044
  317TIP3   OH225145   4.586   2.810   2.628  0.2408 -0.5395  0.8831
  317TIP3    H125146   4.550   2.898   2.622 -1.1495 -0.9625  2.3099
  317TIP3    H225147   4.678   2.823   2.652 -0.1068  0.5193  1.7089
  318TIP3   OH225148   5.818   6.315   2.102  0.1256  0.4053 -0.4067
  318TIP3    H125149   5.853   6.237   2.146  0.4351  0.2482 -0.9225
  318TIP3    H225150   5.893   6.352   2.055 -0.0855  0.8553 -0.3919
  319TIP3   OH225151   2.692   3.436   0.540 -0.1211 -0.0402  0.2399
  319TIP3    H125152   2.640   3.515   0.558  0.7124  0.6230 -0.2250
  319TIP3    H225153   2.778   3.456   0.576 -0.2804 -1.3020  1.3859
  320TIP3   OH225154   0.518   4.839   2.060 -0.1946  0.1380  0.6682
  320TIP3    H125155   0.496   4.919   2.108 -0.1477  0.1001  0.7530
  320TIP3    H225156   0.604   4.814   2.094 -0.9342 -0.8862  1.8770
  321TIP3   OH225157   3.389   0.537   1.467  0.0459 -0.0624  0.5314
  321TIP3    H125158   3.370   0.445   1.487  1.0784  0.0412  2.1838
  321TIP3    H225159   3.400   0.539   1.372  0.2900 -1.6964  0.4944
  322TIP3   OH225160   4.148   3.793   2.891  0.1287  0.4369 -0.0944
  322TIP3    H125161   4.151   3.865   2.953  0.3527 -1.1356  1.8405
  322TIP3    H225162   4.240   3.768   2.880 -0.0319 -0.4411  0.4248
  323TIP3   OH225163   0.757   4.961   8.881  0.2016  0.1367  0.6114
  323TIP3    H125164   0.690   4.930   8.943 -0.0206 -2.6153 -0.8440
  323TIP3    H225165   0.829   4.991   8.936 -0.6677 -0.6052  2.2104
  324TIP3   OH225166   0.918   1.213   8.836  0.2142 -0.0516  0.1506
  324TIP3    H125167   0.869   1.186   8.914 -0.2471  1.5164  0.4326
  324TIP3    H225168   0.882   1.161   8.765 -0.6485 -0.1715  0.6659
  325TIP3   OH225169   4.563   6.331  10.765  0.6768 -0.5742 -0.3556
  325TIP3    H125170   4.658   6.327  10.761  0.8722 -1.1571  2.6666
  325TIP3    H225171   4.543   6.419  10.796  0.2727 -0.6377 -0.4231
  326TIP3   OH225172   4.627   4.207  10.898  0.4086  0.1870 -0.5955
  326TIP3    H125173   4.618   4.112  10.887 -0.1578  0.2341 -0.6034
  326TIP3    H225174   4.706   4.230  10.849  0.3980 -0.2427 -0.8209
  327TIP3   OH225175   0.335   1.362   9.445 -0.3407  0.7689  0.1078
  327TIP3    H125176   0.293   1.424   9.387 -0.6903  1.1917  0.7972
  327TIP3    H225177   0.264   1.305   9.476  0.0234 -0.1870 -0.7609
  328TIP3   OH225178   1.775   1.938  12.089  0.2459  0.3674  0.9506
  328TIP3    H125179   1.768   1.997  12.014  1.5897 -1.5001 -0.7775
  328TIP3    H225180   1.687   1.936  12.127 -0.6966  0.7865 -1.0916
  329TIP3   OH225181   5.378   1.972   9.914  0.2364 -0.4930  0.2263
  329TIP3    H125182   5.458   1.949   9.962 -0.3193 -2.5591  0.2511
  329TIP3    H225183   5.402   1.963   9.822 -0.0937 -1.6314  0.2435
  330TIP3   OH225184   4.018   2.303   9.959 -0.8931 -0.0866  0.2164
  330TIP3    H125185   4.048   2.310   9.868 -0.0886  0.5072  0.5209
  330TIP3    H225186   3.931   2.345   9.959 -1.3926 -1.0773 -0.4977
  331TIP3   OH225187   3.694   6.789  10.279  0.3179  0.2418  0.0001
  331TIP3    H125188   3.636   6.849  10.232 -0.6855 -2.1679 -2.0891
  331TIP3    H225189   3.653   6.777  10.365 -0.6065  0.9055 -0.3366
  332TIP3   OH225190   5.972   5.773   9.425  0.0441 -0.2560 -0.1412
  332TIP3    H125191   5.986   5.847   9.366  0.9197 -0.7359 -0.5417
  332TIP3    H225192   6.016   5.799   9.506  1.1979 -0.7417 -0.6033
  333TIP3   OH225193   2.806   0.198  11.441 -0.1136  0.4745  0.3920
  333TIP3    H125194   2.740   0.257  11.478 -0.2419 -0.1157  1.1356
  333TIP3    H225195   2.788   0.113  11.482  1.3997  0.4015  0.9834
  334TIP3   OH225196   5.831   1.743   9.536 -0.4520 -0.2190  0.3537
  334TIP3    H125197   5.780   1.663   9.523 -2.1052  0.5787  1.4906
  334TIP3    H225198   5.810   1.770   9.626 -0.5359  1.8663 -0.2396
  335TIP3   OH225199   5.217   6.362  10.428  0.2610 -0.5167  0.1583
  335TIP3    H125200   5.147   6.426  10.445  0.9533 -0.3332  2.6351
  335TIP3    H225201   5.240   6.377  10.336 -1.2003  1.1940  0.0061
  336TIP3   OH225202   3.538   4.077   8.673  0.0823  0.2802 -0.1813
  336TIP3    H125203   3.631   4.071   8.651  0.3946  1.0502  0.8683
  336TIP3    H225204   3.536   4.120   8.758 -1.3340  2.1022 -1.0828
  337TIP3   OH225205   2.368   4.108  10.715  0.0515 -0.6509  0.1724
  337TIP3    H125206   2.278   4.091  10.743  0.2872 -2.1650  0.0553
  337TIP3    H225207   2.419   4.108  10.797 -0.3388  2.5954  0.5411
  338TIP3   OH225208   6.035   1.452   9.020 -0.7871  0.1030 -0.6918
  338TIP3    H125209   5.990   1.507   9.084  1.2672 -0.5330  1.4623
  338TIP3    H225210   6.115   1.501   8.999  0.3290 -1.2970  0.0995
  339TIP3   OH225211   0.869   3.585   8.774  0.0209  0.2272  0.3312
  339TIP3    H125212   0.888   3.522   8.705 -0.2114 -1.0448  1.3928
  339TIP3    H225213   0.900   3.669   8.740  1.7757 -0.7160 -0.4898
  340TIP3   OH225214   6.790   4.973  11.589 -0.5362  0.0091  0.2243
  340TIP3    H125215   6.825   5.041  11.531 -1.3543  0.3235  0.0849
  340TIP3    H225216   6.750   5.022  11.662  0.1817 -0.3720  0.8837
  341TIP3   OH225217   3.762   5.696  10.150  0.1685 -0.3727 -0.1344
  341TIP3    H125218   3.755   5.780  10.103 -1.0631 -0.3369  0.0718
  341TIP3    H225219   3.783   5.721  10.240  1.3708 -0.3810 -0.4001
  342TIP3   OH225220   4.817   6.012   9.633  0.6842 -0.8689  0.1274
  342TIP3    H125221   4.891   5.988   9.689  0.7872  0.3787  0.5618
  342TIP3    H225222   4.743   6.022   9.693  0.6252 -0.2113 -0.0499
  343TIP3   OH225223   0.564   0.553   9.596  0.1495  0.8087 -0.3432
  343TIP3    H125224   0.628   0.584   9.532  0.3416  1.2743  0.0720
  343TIP3    H225225   0.514   0.631   9.620 -0.5236  0.4650 -0.6016
  344TIP3   OH225226   6.240   3.224  10.653 -0.6359 -0.4173  0.0145
  344TIP3    H125227   6.154   3.213  10.613  0.2489 -2.0565 -1.6473
  344TIP3    H225228   6.243   3.158  10.722 -1.0296  0.2572  0.6802
  345TIP3   OH225229   4.527   1.658  10.460  0.1982  0.1280  0.4900
  345TIP3    H125230   4.577   1.578  10.444 -0.4827  0.1239 -2.0827
  345TIP3    H225231   4.437   1.629  10.471 -0.1545  0.5334 -1.0805
  346TIP3   OH225232   2.886   6.727  10.200 -0.2640 -0.2045  0.2997
  346TIP3    H125233   2.797   6.763  10.211 -0.3591 -0.4348  0.2950
  346TIP3    H225234   2.919   6.769  10.121 -0.2193  0.1825  0.5213
  347TIP3   OH225235   6.425   1.856  10.845  0.2172 -0.3458  0.3074
  347TIP3    H125236   6.509   1.877  10.885 -0.2316  0.2411  0.9909
  347TIP3    H225237   6.442   1.782  10.788  1.2837  0.0504  0.0987
  348TIP3   OH225238   6.000   4.320   8.541 -0.3983 -0.3085 -0.1689
  348TIP3    H125239   5.926   4.347   8.486  0.3816 -0.1684 -1.1754
  348TIP3    H225240   6.043   4.250   8.491 -0.5175 -1.2034  0.9406
  349TIP3   OH225241   0.781   1.074  10.049  0.0385 -0.3378  0.2384
  349TIP3    H125242   0.816   1.141   9.991 -2.0089 -0.2918 -1.0362
  349TIP3    H225243   0.717   1.120  10.103 -0.1323 -0.9225  0.5381
  350TIP3   OH225244   2.313   6.615   9.819 -0.1046 -0.2488 -0.0527
  350TIP3    H125245   2.324   6.520   9.824 -1.6876 -0.5328 -1.0601
  350TIP3    H225246   2.356   6.639   9.737  0.9027  0.0292  0.5438
  351TIP3   OH225247   1.988   5.428  10.295 -0.0840 -0.4949  0.5544
  351TIP3    H125248   2.031   5.352  10.333 -0.2908 -1.0576 -0.3058
  351TIP3    H225249   2.055   5.467  10.238 -0.4220 -0.8749 -0.1187
  352TIP3   OH225250   1.142   1.149   9.477 -0.0288 -0.3674  0.2926
  352TIP3    H125251   1.109   1.193   9.399  0.2170  1.2594  1.0542
  352TIP3    H225252   1.085   1.073   9.488  0.2006 -0.8990 -1.6920
  353TIP3   OH225253   1.417   1.230  10.527 -0.1959  0.1443  0.0101
  353TIP3    H125254   1.427   1.167  10.598  0.3972  1.6257  1.2947
  353TIP3    H225255   1.464   1.190  10.453  0.6648 -0.6597  0.9594
  354TIP3   OH225256   2.463   1.898  12.095 -0.0629 -0.1503 -0.1547
  354TIP3    H125257   2.522   1.936  12.160  0.4448 -1.0965 -0.0433
  354TIP3    H225258   2.477   1.951  12.017  1.8243 -1.0356 -0.4870
  355TIP3   OH225259   1.279   5.264  10.385  0.3378  0.2078  0.0973
  355TIP3    H125260   1.326   5.305  10.312  0.6915  0.5606  0.5057
  355TIP3    H225261   1.292   5.325  10.458 -2.2343  1.2208 -0.1902
  356TIP3   OH225262   6.636   0.493   8.918 -0.3274 -0.8280 -0.1791
  356TIP3    H125263   6.689   0.463   8.992  2.2814 -0.1289 -1.6458
  356TIP3    H225264   6.633   0.418   8.858  1.4931 -0.0290 -1.3551
  357TIP3   OH225265   3.838   0.385  11.281  0.4485  0.2153 -0.1918
  357TIP3    H125266   3.920   0.435  11.284  1.2034 -0.8073 -1.8565
  357TIP3    H225267   3.837   0.336  11.363  1.8760 -0.2177 -0.3868
  358TIP3   OH225268   0.106   0.799   8.956 -0.2738 -0.6074  0.2034
  358TIP3    H125269   0.116   0.855   9.033  0.1686  1.8117 -1.5258
  358TIP3    H225270   0.195   0.786   8.924 -0.4824 -1.2979 -0.1129
  359TIP3   OH225271   5.978   0.818  11.505  0.2600  0.1554 -0.0278
  359TIP3    H125272   5.916   0.757  11.546 -1.5977  0.6517 -1.8955
  359TIP3    H225273   6.003   0.775  11.423 -1.5194  2.0193 -1.6586
  360TIP3   OH225274   6.043   5.072   9.732  0.8179 -0.1401 -0.6425
  360TIP3    H125275   6.039   4.984   9.771 -0.1544 -0.9816 -2.5176
  360TIP3    H225276   6.132   5.101   9.749  1.1390 -1.4520  0.1008
  361TIP3   OH225277   4.093   2.332  11.447 -0.5930 -0.1075  0.6327
  361TIP3    H125278   4.152   2.367  11.513 -0.7033 -2.0759  1.8526
  361TIP3    H225279   4.020   2.296  11.497 -2.0442  0.7583 -0.7499
  362TIP3   OH225280   1.875   5.582  11.189 -0.4971 -0.2640 -0.0772
  362TIP3    H125281   1.893   5.660  11.135  1.7979  0.4983  1.6111
  362TIP3    H225282   1.815   5.613  11.256 -0.3090 -0.1743  0.0518
  363TIP3   OH225283   0.637   0.136  10.141  0.4456 -0.1130  0.2196
  363TIP3    H125284   0.669   0.069  10.080  2.4783  1.2488 -0.3218
  363TIP3    H225285   0.543   0.141  10.124  0.3166 -2.3923 -0.1171
  364TIP3   OH225286   6.508   5.202  11.548  0.0404 -0.3808 -0.1373
  364TIP3    H125287   6.493   5.230  11.458 -2.6371  1.9566  0.8688
  364TIP3    H225288   6.437   5.139  11.566 -0.5811  0.5471  0.8016
  365TIP3   OH225289   6.742   0.047  11.040  0.6355 -0.1254  0.4675
  365TIP3    H125290   6.655   0.087  11.040  1.3459  1.6946  3.3062
  365TIP3    H225291   6.758   0.022  11.131  3.2291 -0.0565  0.1099
  366TIP3   OH225292   1.795   3.170   9.849  0.7787 -0.7777 -0.7015
  366TIP3    H125293   1.714   3.169   9.799  0.4056  2.2081 -0.3718
  366TIP3    H225294   1.863   3.193   9.786  0.7430  0.2715 -0.3877
  367TIP3   OH225295   4.285   6.479  10.795 -0.2372 -0.3165 -0.5088
  367TIP3    H125296   4.306   6.388  10.814 -0.1473 -0.1925 -0.0024
  367TIP3    H225297   4.202   6.495  10.842 -0.5585 -0.3056 -1.0715
  368TIP3   OH225298   6.558   4.501   9.451  0.2058 -0.3493  0.0345
  368TIP3    H125299   6.522   4.553   9.523 -0.0528  1.0639 -1.0935
  368TIP3    H225300   6.535   4.549   9.372  1.8644 -1.0513 -0.9247
  369TIP3   OH225301   3.169   5.334  10.852  0.1910  0.1854 -0.3390
  369TIP3    H125302   3.117   5.364  10.926  1.4347 -1.1352  1.1502
  369TIP3    H225303   3.231   5.405  10.835 -0.4305  0.7039 -0.4505
  370TIP3   OH225304   6.137   1.729  11.874 -0.7768 -0.1791  0.0885
  370TIP3    H125305   6.205   1.794  11.856 -2.0421  0.9387 -0.8935
  370TIP3    H225306   6.078   1.771  11.937  0.5071 -1.9347  2.6392
  371TIP3   OH225307   1.932   1.357  10.190 -0.2321  0.2950 -0.0005
  371TIP3    H125308   1.997   1.349  10.260  1.4502 -0.5304 -1.5769
  371TIP3    H225309   1.914   1.451  10.185  0.3695  0.4717  0.8836
  372TIP3   OH225310   0.392   2.523   9.451  0.6570  0.1546  0.3768
  372TIP3    H125311   0.332   2.451   9.470  0.4405  0.2113 -0.0767
  372TIP3    H225312   0.456   2.486   9.390  1.4357 -0.0673  1.3132
  373TIP3   OH225313   4.869   6.280  11.082 -0.9881  0.0003  0.6129
  373TIP3    H125314   4.927   6.226  11.027 -0.5125  0.7137  0.3910
  373TIP3    H225315   4.786   6.233  11.081 -0.2072 -1.5094  1.6265
  374TIP3   OH225316   5.275   2.291   8.929 -0.0611  0.1830 -0.1130
  374TIP3    H125317   5.222   2.368   8.911 -1.1438 -0.5041  0.0030
  374TIP3    H225318   5.211   2.225   8.958  0.8532 -0.7014 -0.0710
  375TIP3   OH225319   3.496   3.718   9.376 -0.6308  0.4247  0.2827
  375TIP3    H125320   3.440   3.641   9.365  0.2650 -0.3292  0.8149
  375TIP3    H225321   3.563   3.708   9.308  0.0418  0.2150  0.9644
  376TIP3   OH225322   0.114   3.499  11.665 -0.2914  0.2951  0.7223
  376TIP3    H125323   0.145   3.589  11.668 -0.2489  0.3053  0.1742
  376TIP3    H225324   0.184   3.448  11.707  1.3529  0.0988 -1.9858
  377TIP3   OH225325   4.246   4.897   9.095 -0.6601  0.1347  0.7159
  377TIP3    H125326   4.208   4.985   9.093 -0.2011  0.3254 -0.0662
  377TIP3    H225327   4.264   4.881   9.188 -0.6763  0.9046  0.8588
  378TIP3   OH225328   0.727   2.453   9.386  0.1103 -0.3981  0.4713
  378TIP3    H125329   0.757   2.520   9.325 -1.1441  0.3582  0.6450
  378TIP3    H225330   0.713   2.500   9.468  0.0376 -1.0404  0.8354
  379TIP3   OH225331   6.659   2.580   8.953  0.1097 -0.5230  0.7646
  379TIP3    H125332   6.615   2.500   8.980 -0.4801 -0.6403 -0.4516
  379TIP3    H225333   6.588   2.641   8.932  0.4853 -0.5665 -0.7967
  380TIP3   OH225334   0.590   0.032   9.689  0.5965  0.0730 -0.3434
  380TIP3    H125335   0.637  -0.031   9.634  2.1716  0.7650  0.1447
  380TIP3    H225336   0.498   0.009   9.679  0.9032 -0.3601 -2.5662
  381TIP3   OH225337   1.052   2.099   8.811  0.1418 -0.3008 -0.0395
  381TIP3    H125338   1.125   2.038   8.811 -0.6949 -1.3801  1.8842
  381TIP3    H225339   1.050   2.135   8.900 -1.0886  0.4233 -0.3313
  382TIP3   OH225340   3.940   1.317  11.157 -0.5204 -0.1823 -0.5947
  382TIP3    H125341   3.860   1.333  11.207 -1.0695 -1.2353 -1.1041
  382TIP3    H225342   3.985   1.248  11.206  0.4036  0.8517  0.0370
  383TIP3   OH225343   2.833   4.259  12.133 -0.0332  0.6943 -0.1126
  383TIP3    H125344   2.904   4.221  12.081  0.5486  0.2905  0.9397
  383TIP3    H225345   2.836   4.352  12.113 -0.9487  0.3416 -2.1120
  384TIP3   OH225346   6.678   3.800  11.819 -0.5158 -0.1165  0.1491
  384TIP3    H125347   6.750   3.857  11.847  0.6888 -1.2235 -0.5428
  384TIP3    H225348   6.696   3.784  11.726 -2.1236  0.2060 -0.2555
  385TIP3   OH225349   6.589   4.309  10.994 -0.3723 -0.5143 -1.0539
  385TIP3    H125350   6.507   4.329  10.948 -0.6844  0.6550 -0.0262
  385TIP3    H225351   6.630   4.395  11.008 -0.5821 -0.7626  1.3786
  386TIP3   OH225352   6.065   6.503   9.768  0.1863  0.0909  0.3528
  386TIP3    H125353   6.025   6.491   9.682 -0.2746 -1.3525  0.7350
  386TIP3    H225354   5.992   6.492   9.829  0.6557  0.2913  0.9540
  387TIP3   OH225355   1.449   4.745  10.761  0.2003  1.0690 -0.4099
  387TIP3    H125356   1.529   4.752  10.814  0.4419 -1.2670 -0.3944
  387TIP3    H225357   1.382   4.718  10.823  0.2312 -0.5509 -1.0329
  388TIP3   OH225358   6.584   2.172  12.010  0.3623  0.0952  0.1001
  388TIP3    H125359   6.545   2.085  12.015 -2.2228  1.1819  0.4392
  388TIP3    H225360   6.514   2.232  12.036  2.5446  2.2034  1.6084
  389TIP3   OH225361   0.185   2.175   8.922  0.3398  0.4249 -0.3670
  389TIP3    H125362   0.202   2.260   8.962  1.5537  1.5982 -3.0685
  389TIP3    H225363   0.165   2.196   8.830  3.6252 -2.2392 -1.9220
  390TIP3   OH225364   1.699   4.766  10.917  0.2566 -0.0348  0.1127
  390TIP3    H125365   1.712   4.681  10.960 -1.1691 -0.4497 -0.2284
  390TIP3    H225366   1.635   4.811  10.972 -0.5924 -0.0482 -0.8316
  391TIP3   OH225367   2.642   4.392  10.004  0.4000  0.1111 -0.4318
  391TIP3    H125368   2.625   4.397   9.910  0.4182 -2.3346 -0.6055
  391TIP3    H225369   2.703   4.464  10.020 -0.0497  0.9480 -2.1501
  392TIP3   OH225370   3.120   3.264  10.544  0.1180  0.0177 -0.1437
  392TIP3    H125371   3.066   3.224  10.475 -0.4041 -0.0942  0.3289
  392TIP3    H225372   3.065   3.335  10.579 -0.7134 -1.5584  1.9421
  393TIP3   OH225373   4.477   2.429  10.815 -0.8416 -0.0589 -0.3997
  393TIP3    H125374   4.433   2.355  10.773 -1.4230  0.0999 -0.0870
  393TIP3    H225375   4.494   2.490  10.744  0.4221 -0.8489 -0.8099
  394TIP3   OH225376   5.666   3.353   8.323  0.1386  0.2684 -0.1650
  394TIP3    H125377   5.752   3.394   8.314 -0.2336  0.6902 -2.3531
  394TIP3    H225378   5.608   3.408   8.271 -1.6555  0.4126  1.8567
  395TIP3   OH225379   4.109   0.568   9.187 -0.2332  1.0064 -0.3249
  395TIP3    H125380   4.126   0.604   9.275 -0.7071 -1.6893  0.9757
  395TIP3    H225381   4.013   0.570   9.179 -0.1600  1.7950 -1.0527
  396TIP3   OH225382   2.480   5.085   8.764 -0.0182 -0.2621 -0.6696
  396TIP3    H125383   2.439   5.005   8.798 -2.8929  0.7710 -1.4422
  396TIP3    H225384   2.489   5.069   8.670 -0.6190  0.3086 -0.8293
  397TIP3   OH225385   4.570   5.566   9.420  0.0947 -0.0938  0.4328
  397TIP3    H125386   4.548   5.528   9.335  0.8638  1.5171 -0.5298
  397TIP3    H225387   4.519   5.515   9.483  1.9510 -3.5579 -0.5925
  398TIP3   OH225388   0.707   5.173  10.427  0.1935  0.1878 -0.0276
  398TIP3    H125389   0.769   5.231  10.470 -0.1569  0.3528  0.2548
  398TIP3    H225390   0.637   5.160  10.491  0.0975 -0.2642 -0.2178
  399TIP3   OH225391   4.512   5.853  11.437 -0.0590  0.1512 -0.2097
  399TIP3    H125392   4.580   5.865  11.502 -0.2971 -0.8739  0.2499
  399TIP3    H225393   4.557   5.862  11.353  0.9998 -2.0621  0.0511
  400TIP3   OH225394   3.417   0.249  11.153 -0.3704  0.1301  0.7527
  400TIP3    H125395   3.437   0.214  11.066 -1.3810  1.3891 -0.0301
  400TIP3    H225396   3.347   0.313  11.137 -0.3500  0.6212  2.4557
  401TIP3   OH225397   1.791   1.529   9.877  0.6763  0.0260 -0.3922
  401TIP3    H125398   1.726   1.513   9.945 -0.3734 -0.8074 -1.5450
  401TIP3    H225399   1.828   1.443   9.858 -1.4370 -0.4166 -3.1396
  402TIP3   OH225400   6.152   2.948   9.623 -0.3289 -0.4286  0.0296
  402TIP3    H125401   6.178   3.015   9.560 -2.2392  1.6832  1.3320
  402TIP3    H225402   6.232   2.931   9.673  0.2609  0.7613 -0.4601
  403TIP3   OH225403   6.052   3.601  11.449 -0.2401  0.1322 -0.5934
  403TIP3    H125404   6.133   3.651  11.463 -1.2786  1.3147  1.5240
  403TIP3    H225405   6.067   3.519  11.495 -0.8675  1.0783  1.3970
  404TIP3   OH225406   0.231   4.470  11.581  0.0844  0.2760  0.0306
  404TIP3    H125407   0.170   4.543  11.578  0.1567  0.4178  1.2903
  404TIP3    H225408   0.308   4.505  11.626  0.4314 -0.3625 -0.0479
  405TIP3   OH225409   5.886   1.197  10.442 -0.4316 -0.7259 -0.8052
  405TIP3    H125410   5.810   1.199  10.500 -0.3352  0.4899 -0.6959
  405TIP3    H225411   5.933   1.118  10.468 -1.2008 -1.0254 -0.2823
  406TIP3   OH225412   4.255   3.216  12.019 -0.1099 -0.1220 -0.1776
  406TIP3    H125413   4.165   3.185  12.011 -0.0041 -0.2671 -0.9566
  406TIP3    H225414   4.288   3.216  11.929  0.8619 -0.6480  0.1694
  407TIP3   OH225415   5.266   4.003  10.513 -0.3398  0.2207 -0.0286
  407TIP3    H125416   5.171   3.997  10.512 -0.3098 -1.9096  1.9946
  407TIP3    H225417   5.295   3.944  10.443 -0.4908 -0.3458  0.3843
  408TIP3   OH225418   4.832   1.250  11.143 -0.3764 -0.2394 -0.1063
  408TIP3    H125419   4.884   1.219  11.217 -0.2478 -1.0603 -0.5231
  408TIP3    H225420   4.895   1.256  11.071 -0.6825 -0.3382 -0.3831
  409TIP3   OH225421   2.141   5.756  11.076 -0.1612  0.0691  0.3243
  409TIP3    H125422   2.050   5.761  11.047 -0.7094  0.7166  2.0381
  409TIP3    H225423   2.142   5.801  11.160  2.0817  1.5577 -0.4006
  410TIP3   OH225424   5.332   4.600   9.752 -0.2385  0.3693 -0.6330
  410TIP3    H125425   5.353   4.614   9.845 -1.7528 -0.5642 -0.1159
  410TIP3    H225426   5.249   4.553   9.753 -1.0394  1.6543 -2.5316
  411TIP3   OH225427   1.987   5.224   9.968  0.3992  0.2007  0.1222
  411TIP3    H125428   1.927   5.154   9.997  0.7369 -0.6797 -1.2247
  411TIP3    H225429   1.929   5.296   9.944  0.0189  0.2366  1.0970
  412TIP3   OH225430   1.775   4.539  11.346  0.0200 -0.4526 -0.4486
  412TIP3    H125431   1.758   4.631  11.326 -1.1537  0.2992  3.3374
  412TIP3    H225432   1.867   4.527  11.324  0.2486  1.6715 -0.8821
  413TIP3   OH225433   1.795   5.976  11.282 -0.1958  0.0931 -0.0233
  413TIP3    H125434   1.848   5.942  11.355  0.1367 -0.0854 -0.3478
  413TIP3    H225435   1.845   5.954  11.204 -0.1673  1.0052 -0.2634
  414TIP3   OH225436   5.903   4.903   9.339 -0.0101  0.4184 -0.9381
  414TIP3    H125437   5.901   4.993   9.305 -0.2842  0.3484 -1.1059
  414TIP3    H225438   5.867   4.850   9.269  1.4637 -0.0188 -1.4056
  415TIP3   OH225439   6.615   1.140  11.285  0.1770 -0.6013 -0.3274
  415TIP3    H125440   6.648   1.157  11.197 -0.3082 -1.1566 -0.6234
  415TIP3    H225441   6.522   1.161  11.279  0.2915  0.0943  0.2585
  416TIP3   OH225442   6.332   4.045   9.842  0.0745 -0.0630  0.4765
  416TIP3    H125443   6.289   4.087   9.916 -1.6041  0.2045 -0.5849
  416TIP3    H225444   6.261   4.026   9.781  1.5412  0.9673 -1.6735
  417TIP3   OH225445   2.659   2.577   9.094 -0.1782 -0.0552  0.7347
  417TIP3    H125446   2.648   2.484   9.071 -1.8622  0.5215 -1.0203
  417TIP3    H225447   2.738   2.578   9.149 -0.0656 -2.5065  0.7558
  418TIP3   OH225448   4.857   1.508  10.181 -0.3692  0.2358 -0.2004
  418TIP3    H125449   4.937   1.553  10.156 -0.2052 -0.0234 -0.1451
  418TIP3    H225450   4.866   1.420  10.144 -1.0293  0.4799 -0.9676
  419TIP3   OH225451   6.190   6.776  10.803  0.0010 -0.3211 -0.1381
  419TIP3    H125452   6.230   6.839  10.864  1.8598  0.8449 -2.4324
  419TIP3    H225453   6.101   6.765  10.837  0.5497  1.2322  2.0606
  420TIP3   OH225454   4.831   1.028  10.004 -0.3499 -0.1964  0.6075
  420TIP3    H125455   4.826   0.957   9.939  0.2876  0.4443 -0.1657
  420TIP3    H225456   4.872   1.100   9.957 -1.2788  0.8084  1.2947
  421TIP3   OH225457   5.877   0.765  10.600 -0.3356 -0.3047  0.3064
  421TIP3    H125458   5.876   0.669  10.591  1.5452 -0.2937 -0.3849
  421TIP3    H225459   5.798   0.794  10.555 -0.8761 -1.5097  0.4235
  422TIP3   OH225460   0.464   6.541  11.074  0.2154 -0.6599  0.3262
  422TIP3    H125461   0.537   6.497  11.116  0.0596 -0.1254  1.1928
  422TIP3    H225462   0.390   6.528  11.133  0.2655  1.0866  0.8324
  423TIP3   OH225463   6.685   6.545  11.904 -0.4651 -0.1865 -0.4824
  423TIP3    H125464   6.734   6.468  11.934  1.0518  0.7094 -0.5672
  423TIP3    H225465   6.601   6.539  11.949  0.9191 -0.0444  2.3186
  424TIP3   OH225466   0.290   2.488  10.567 -0.0489  0.6100 -0.1704
  424TIP3    H125467   0.224   2.421  10.584 -0.5386  1.2500  0.5106
  424TIP3    H225468   0.250   2.570  10.596  0.9689  1.0355  0.0896
  425TIP3   OH225469   0.128   4.392  10.042 -0.0057 -0.4938 -0.2721
  425TIP3    H125470   0.111   4.370   9.951 -1.4883  0.3727 -0.2339
  425TIP3    H225471   0.132   4.487  10.044  1.8971 -0.5263  0.2959
  426TIP3   OH225472   2.263   3.378   8.609 -0.4354  0.0978 -0.2216
  426TIP3    H125473   2.195   3.351   8.547  0.1063 -0.9302 -0.3855
  426TIP3    H225474   2.218   3.380   8.694 -0.5623 -1.0908 -0.2452
  427TIP3   OH225475   1.134   6.485   9.216 -0.3137  0.9844  0.3602
  427TIP3    H125476   1.105   6.467   9.126  0.2433 -1.1627  0.5566
  427TIP3    H225477   1.194   6.560   9.207  0.4703  0.2153 -1.2016
  428TIP3   OH225478   1.393   6.491   9.589  0.3400  0.2731 -0.6631
  428TIP3    H125479   1.417   6.526   9.504  2.7077 -1.4198 -0.8011
  428TIP3    H225480   1.462   6.521   9.648 -0.0770 -0.3518  0.1706
  429TIP3   OH225481   2.565   6.611   9.082 -0.6134 -0.5405  0.1944
  429TIP3    H125482   2.545   6.697   9.120 -0.7755  0.1128 -1.3046
  429TIP3    H225483   2.483   6.562   9.091 -0.7773 -0.2515  0.3303
  430TIP3   OH225484   2.071   0.841  11.687 -0.0798 -0.3304 -0.0336
  430TIP3    H125485   2.005   0.837  11.757 -0.6376  0.0558 -0.5298
  430TIP3    H225486   2.104   0.752  11.681 -0.4804 -0.5083  0.2951
  431TIP3   OH225487   4.306   3.205   9.988 -0.0172  0.1518  0.3803
  431TIP3    H125488   4.228   3.153  10.007  0.8777 -1.7035 -0.8316
  431TIP3    H225489   4.366   3.184  10.059  0.7850 -1.4686 -0.7263
  432TIP3   OH225490   0.867   3.826   9.970 -0.4487 -0.3181 -0.4784
  432TIP3    H125491   0.862   3.736   9.939 -1.3567 -1.2595  2.1372
  432TIP3    H225492   0.790   3.869   9.932 -0.1670 -0.6837 -1.5012
  433TIP3   OH225493   0.335   0.346  10.534  0.2317  0.5258 -0.2011
  433TIP3    H125494   0.418   0.366  10.490  1.1195 -0.1939  1.0540
  433TIP3    H225495   0.342   0.390  10.619  0.5482 -1.7565  1.0280
  434TIP3   OH225496   6.430   3.539   8.569  0.7114  0.8320  0.6600
  434TIP3    H125497   6.418   3.509   8.659 -0.8405  1.2089  0.6186
  434TIP3    H225498   6.416   3.461   8.516  1.9761  0.5327  0.7337
  435TIP3   OH225499   0.670   2.000  10.423  0.0665  0.2195 -0.7573
  435TIP3    H125500   0.662   2.095  10.420 -0.6030  0.2561  0.9065
  435TIP3    H225501   0.763   1.983  10.407  0.7401  1.3713  1.4995
  436TIP3   OH225502   5.791   3.600  10.755  0.5778  0.3901  0.1514
  436TIP3    H125503   5.844   3.533  10.798 -0.8404 -0.0077  1.4085
  436TIP3    H225504   5.745   3.553  10.685  0.2233  0.2093  0.4957
  437TIP3   OH225505   1.547   0.743  11.996 -0.1618  0.1933  0.3545
  437TIP3    H125506   1.512   0.814  11.942  0.4392  1.3674  1.4417
  437TIP3    H225507   1.483   0.732  12.066 -0.1847 -0.2290  0.2640
  438TIP3   OH225508   2.805   4.422  10.278 -0.0422 -0.3784 -0.3355
  438TIP3    H125509   2.831   4.459  10.194 -0.8740 -1.1061 -0.9325
  438TIP3    H225510   2.743   4.486  10.314 -0.3894 -0.5044 -0.7047
  439TIP3   OH225511   2.832   0.884  10.067 -0.0407  0.1541  0.0044
  439TIP3    H125512   2.765   0.946  10.036 -0.1297  0.8432  1.4829
  439TIP3    H225513   2.904   0.895  10.005 -0.8025  0.3314 -0.8737
  440TIP3   OH225514   5.506   3.044   9.813  0.0478  0.0011  0.0705
  440TIP3    H125515   5.529   3.016   9.901  1.4740 -1.7008 -0.7711
  440TIP3    H225516   5.425   3.093   9.824 -0.0338 -0.5042  2.2667
  441TIP3   OH225517   5.256   6.715  10.455  0.0539 -0.2276 -0.2253
  441TIP3    H125518   5.257   6.663  10.374 -0.0395 -0.5305 -0.0370
  441TIP3    H225519   5.305   6.794  10.434 -0.0300 -0.2734 -0.6004
  442TIP3   OH225520   3.463   6.458  11.678  0.4364 -0.1890 -0.1379
  442TIP3    H125521   3.411   6.519  11.729 -1.1716 -1.4423 -0.1808
  442TIP3    H225522   3.532   6.428  11.738 -1.0780 -1.2123  1.1547
  443TIP3   OH225523   0.619   1.736   9.916 -0.0123 -0.0746 -0.0463
  443TIP3    H125524   0.707   1.732   9.878  0.1191 -1.1528  0.3293
  443TIP3    H225525   0.626   1.804   9.984 -0.0617  1.3413 -1.4062
  444TIP3   OH225526   0.023   4.684  10.070  0.0020 -0.8175  0.2027
  444TIP3    H125527   0.016   4.780  10.069  0.8836 -0.7473 -1.4799
  444TIP3    H225528  -0.041   4.657  10.136 -4.1029  0.6206 -2.7611
  445TIP3   OH225529   6.719   3.399  11.289  0.4353 -0.5240  0.1751
  445TIP3    H125530   6.787   3.465  11.299 -0.8908  0.8412  0.6471
  445TIP3    H225531   6.764   3.322  11.255  2.3797 -0.0443  1.5213
  446TIP3   OH225532   0.666   6.119  10.778 -0.1220 -0.4397 -0.2911
  446TIP3    H125533   0.715   6.053  10.727 -0.3359 -0.8692  0.0534
  446TIP3    H225534   0.575   6.106  10.753 -0.0691  0.4143 -0.9902
  447TIP3   OH225535   5.899   4.955  11.650 -0.3106 -0.4333 -0.6637
  447TIP3    H125536   5.968   4.970  11.715 -0.0372 -0.5277 -0.9306
  447TIP3    H225537   5.905   4.862  11.629  0.4950 -0.1274 -1.8272
  448TIP3   OH225538   1.374   3.524   9.676 -0.2201 -0.2203 -0.0317
  448TIP3    H125539   1.281   3.540   9.661 -0.2931 -0.7463 -0.1609
  448TIP3    H225540   1.403   3.596   9.732 -0.7544 -0.1806  0.1914
  449TIP3   OH225541   3.431   1.502   9.933 -0.0615  0.0375  0.3493
  449TIP3    H125542   3.375   1.517  10.010  0.0947 -1.9213  0.8983
  449TIP3    H225543   3.488   1.430   9.959  1.0079  0.3324 -1.1057
  450TIP3   OH225544   4.151   1.571  11.900 -0.1494  0.7393  0.0828
  450TIP3    H125545   4.125   1.512  11.972 -1.6418  2.5198  1.0889
  450TIP3    H225546   4.068   1.604  11.866  0.5863  0.5704 -1.9629
  451TIP3   OH225547   4.250   1.153   9.099  0.6800 -0.5257 -1.2411
  451TIP3    H125548   4.275   1.113   9.016  0.8709 -1.3424 -0.7981
  451TIP3    H225549   4.279   1.244   9.090  3.2465 -1.2246 -1.0572
  452TIP3   OH225550   6.457   4.774  10.373 -0.2648  0.1423  0.0596
  452TIP3    H125551   6.462   4.804  10.283  0.0390 -0.8072 -0.2540
  452TIP3    H225552   6.364   4.751  10.386 -0.2437 -0.0427 -0.1196
  453TIP3   OH225553   0.493   5.777  11.803 -0.1008 -0.2160  0.2155
  453TIP3    H125554   0.587   5.760  11.800 -0.0215 -0.4074  2.1083
  453TIP3    H225555   0.485   5.861  11.847 -0.8198 -0.2683  0.2025
  454TIP3   OH225556   3.006   4.043  10.956 -0.1153  0.5091 -0.1404
  454TIP3    H125557   2.953   3.973  10.917 -0.1758 -0.0089  0.8404
  454TIP3    H225558   2.941   4.107  10.987 -0.0434  1.3380 -1.5913
  455TIP3   OH225559   6.557   2.132   8.989 -0.8688 -0.3001 -0.2055
  455TIP3    H125560   6.477   2.091   8.955 -0.6191  0.2623 -1.5262
  455TIP3    H225561   6.608   2.058   9.023 -1.5522 -0.7727 -0.1702
  456TIP3   OH225562   3.289   0.756   8.589  0.0825  0.1607  0.4048
  456TIP3    H125563   3.219   0.789   8.534 -0.4384  0.9958  1.5282
  456TIP3    H225564   3.324   0.681   8.541 -0.5208  0.6974 -0.9105
  457TIP3   OH225565   4.289   4.735  11.443 -0.1705  0.2886 -0.0133
  457TIP3    H125566   4.296   4.812  11.387 -0.0490  0.4288  0.1915
  457TIP3    H225567   4.370   4.735  11.494  0.7278 -1.0532 -1.3652
  458TIP3   OH225568   5.756   2.379   8.487  0.0225  0.6154 -0.5961
  458TIP3    H125569   5.719   2.301   8.445 -0.6389 -0.1747  1.3409
  458TIP3    H225570   5.691   2.448   8.472 -0.0868  0.4088 -1.0749
  459TIP3   OH225571   0.180   2.900  10.397  0.2578 -0.0421  0.3959
  459TIP3    H125572   0.182   2.912  10.492 -0.9428 -0.9476  0.5549
  459TIP3    H225573   0.087   2.896  10.375  0.4903  1.5050 -1.0144
  460TIP3   OH225574   3.568   0.284  10.644  0.2892  0.6766  0.6808
  460TIP3    H125575   3.637   0.337  10.684  1.4664  0.5650 -1.0866
  460TIP3    H225576   3.545   0.332  10.564 -0.4792 -0.1497  0.3975
  461TIP3   OH225577   3.571   2.488  11.257  0.3654 -0.7893 -0.3408
  461TIP3    H125578   3.656   2.470  11.296  0.6443 -0.4874 -0.7955
  461TIP3    H225579   3.579   2.457  11.166  0.1816 -0.2420 -0.5486
  462TIP3   OH225580   6.715   4.702   9.585 -0.2522 -0.1763 -0.0348
  462TIP3    H125581   6.757   4.737   9.506 -0.0603  0.5080  0.3669
  462TIP3    H225582   6.653   4.770   9.611 -0.9216 -0.7702 -0.0756
  463TIP3   OH225583   2.640   0.952   9.032  0.2975  0.2176 -0.7766
  463TIP3    H125584   2.725   0.947   9.075  0.1181  1.0559 -0.2968
  463TIP3    H225585   2.617   0.861   9.011 -0.7716 -0.6259  3.1959
  464TIP3   OH225586   4.758   3.973   9.393 -0.0887  0.3728  0.2793
  464TIP3    H125587   4.717   3.972   9.306  0.2793  1.0107  0.0931
  464TIP3    H225588   4.685   3.989   9.452 -0.7947 -2.6722  0.3793
  465TIP3   OH225589   0.427   5.805   8.881  0.1492 -0.0045 -0.1607
  465TIP3    H125590   0.392   5.721   8.852  0.2121 -0.9498  2.2611
  465TIP3    H225591   0.421   5.862   8.804 -0.1651 -2.1221 -1.7766
  466TIP3   OH225592   0.666   1.644  10.632  0.6214  0.3065 -0.1347
  466TIP3    H125593   0.735   1.710  10.624 -0.6174  1.6353 -0.1753
  466TIP3    H225594   0.670   1.616  10.724  0.4615  1.2277  0.1595
  467TIP3   OH225595   2.785   6.768  11.010  0.5969  0.3248 -0.0045
  467TIP3    H125596   2.740   6.841  11.053  1.0570  0.3227  0.4978
  467TIP3    H225597   2.730   6.746  10.935  0.4857  1.2234 -0.1964
  468TIP3   OH225598   0.815   3.080   9.287  0.5330  0.1528  0.0782
  468TIP3    H125599   0.774   3.147   9.342  0.7824  0.6924 -0.3843
  468TIP3    H225600   0.742   3.033   9.247  0.3548  1.1851 -0.8387
  469TIP3   OH225601   5.130   1.854  11.849 -0.4598  0.3112 -0.0704
  469TIP3    H125602   5.226   1.853  11.852 -0.3119 -2.1951 -2.5414
  469TIP3    H225603   5.109   1.898  11.766 -1.5257  1.2813  0.6752
  470TIP3   OH225604   6.606   2.181  11.249 -0.0119 -0.0205 -0.1260
  470TIP3    H125605   6.690   2.204  11.209 -0.2752  0.8130 -0.2187
  470TIP3    H225606   6.615   2.209  11.340  0.1453 -0.7953  0.1020
  471TIP3   OH225607   0.951   2.376   8.781 -0.5662 -0.0038  0.1655
  471TIP3    H125608   0.951   2.287   8.747 -0.4655  0.5307 -1.2905
  471TIP3    H225609   1.042   2.390   8.809 -0.4344 -0.1410 -0.1863
  472TIP3   OH225610   6.791   0.991  10.226 -0.0229  0.6623 -0.1249
  472TIP3    H125611   6.758   1.045  10.298  0.0882  0.0275  0.4176
  472TIP3    H225612   6.815   0.908  10.268  1.0128  0.6415 -0.7172
  473TIP3   OH225613   2.744   1.276   9.568  0.8047 -0.0577 -0.0938
  473TIP3    H125614   2.747   1.371   9.574  0.6314  0.1191 -1.9587
  473TIP3    H225615   2.827   1.247   9.605  0.2715  0.6982  1.7744
  474TIP3   OH225616   4.978   5.851  10.643  0.7320 -0.5001 -0.4561
  474TIP3    H125617   5.023   5.913  10.700  2.7598 -1.4662 -0.9403
  474TIP3    H225618   4.946   5.904  10.570 -0.2978  0.4367  0.6236
  475TIP3   OH225619   1.855   1.461   8.007 -0.3232  0.4315  0.4158
  475TIP3    H125620   1.817   1.545   7.979 -0.6727  0.1075 -0.1065
  475TIP3    H225621   1.847   1.405   7.930 -1.0165 -0.3877  1.0670
  476TIP3   OH225622   4.158   4.513  11.571 -0.1024  0.5265  0.0399
  476TIP3    H125623   4.187   4.563  11.647 -1.8714  1.2784  0.2672
  476TIP3    H225624   4.163   4.575  11.498 -1.2423  0.7267  0.1153
  477TIP3   OH225625   0.040   3.689  11.319  0.0437 -0.3527 -0.7983
  477TIP3    H125626  -0.029   3.742  11.279 -2.6024 -3.1604 -0.3780
  477TIP3    H225627   0.120   3.740  11.309 -2.2814  3.8734  0.0739
  478TIP3   OH225628   2.870   5.433  10.151 -0.2291  0.2426 -0.3694
  478TIP3    H125629   2.894   5.520  10.121 -0.2422  0.3433 -0.0899
  478TIP3    H225630   2.852   5.384  10.070  0.5928  0.2572 -0.5772
  479TIP3   OH225631   0.249   2.958  11.216  0.3016  0.5198 -0.0822
  479TIP3    H125632   0.190   2.895  11.175 -0.5833  1.6357 -0.5713
  479TIP3    H225633   0.234   2.947  11.310 -1.0372  1.0689 -0.2024
  480TIP3   OH225634   5.743   6.250   9.974 -0.4287 -0.4979  0.4074
  480TIP3    H125635   5.695   6.289  10.046 -0.8214  0.4012 -0.3114
  480TIP3    H225636   5.828   6.294   9.975 -0.4072 -0.5381  0.3626
  481TIP3   OH225637   5.092   6.656  10.675 -0.6271  0.6226 -0.3870
  481TIP3    H125638   5.159   6.686  10.613 -0.4300 -1.3385 -1.1855
  481TIP3    H225639   5.139   6.647  10.758 -0.4577  1.4536 -0.3818
  482TIP3   OH225640   3.501   5.505  11.864 -0.0351  0.3835  0.3744
  482TIP3    H125641   3.585   5.480  11.825 -0.1948 -0.9072  0.8014
  482TIP3    H225642   3.467   5.424  11.902 -1.2726  0.9774  0.5996
  483TIP3   OH225643   6.492   0.951   9.139  0.7298 -0.5440 -0.3415
  483TIP3    H125644   6.550   0.951   9.215  0.7818 -0.2067 -0.3819
  483TIP3    H225645   6.423   0.888   9.162 -1.0147  1.7779  1.3548
  484TIP3   OH225646   1.073   3.839  11.405 -0.1451 -0.5343 -0.3759
  484TIP3    H125647   0.983   3.805  11.403 -1.1715  1.9677 -1.7895
  484TIP3    H225648   1.112   3.808  11.323 -0.5328  0.2396 -0.8703
  485TIP3   OH225649   4.827   5.105  11.713 -0.8358  0.3149 -0.1480
  485TIP3    H125650   4.852   5.030  11.767  0.0009  0.1954 -0.6624
  485TIP3    H225651   4.895   5.108  11.645 -0.7154  1.6810 -0.0030
  486TIP3   OH225652   5.331   5.233  10.622  0.2921 -0.2550 -0.9259
  486TIP3    H125653   5.247   5.254  10.663  0.1280 -1.1458 -0.7803
  486TIP3    H225654   5.332   5.286  10.542 -0.6845 -0.6859 -1.2413
  487TIP3   OH225655   1.703   3.889   9.235  0.4371 -0.0346 -0.2779
  487TIP3    H125656   1.759   3.814   9.256  0.7132  0.8861  2.9123
  487TIP3    H225657   1.615   3.861   9.259  0.5329  0.5752  0.8795
  488TIP3   OH225658   0.952   1.285   7.862 -0.2590 -0.0176  0.2019
  488TIP3    H125659   0.868   1.270   7.905 -0.0338 -0.9774  0.3290
  488TIP3    H225660   0.930   1.316   7.774 -0.7739 -1.4797 -0.2076
  489TIP3   OH225661   6.320   1.579  11.090 -0.3585  0.2195  0.3896
  489TIP3    H125662   6.259   1.626  11.147  0.6492 -0.6488  2.3097
  489TIP3    H225663   6.404   1.588  11.135  0.5082 -0.4545 -1.0496
  490TIP3   OH225664   3.877   3.602   9.778 -0.4794 -0.1000 -0.4531
  490TIP3    H125665   3.917   3.665   9.838 -1.0737  0.8976 -1.0678
  490TIP3    H225666   3.864   3.523   9.830 -1.2576  0.8298  0.8260
  491TIP3   OH225667   3.642   1.954   9.176  0.4407 -0.2061 -0.2808
  491TIP3    H125668   3.680   2.011   9.109  0.4109  0.2661  0.1062
  491TIP3    H225669   3.632   1.870   9.131  0.6580  0.0352 -0.7976
  492TIP3   OH225670   6.164   0.545  11.360  0.0182 -0.0288  0.3753
  492TIP3    H125671   6.086   0.588  11.324  0.7314  1.6350  0.7270
  492TIP3    H225672   6.177   0.469  11.304 -1.4867  0.0229 -0.0905
  493TIP3   OH225673   2.842   2.965   9.418  0.3648 -0.1367  0.1952
  493TIP3    H125674   2.770   2.907   9.394  1.4999 -1.1223 -0.9714
  493TIP3    H225675   2.811   3.011   9.496 -0.7742 -1.9652  0.8740
  494TIP3   OH225676   3.701   6.378  11.803 -0.3374 -0.0372 -0.3529
  494TIP3    H125677   3.780   6.388  11.857 -0.9910  1.7445  0.3657
  494TIP3    H225678   3.692   6.284  11.791  1.5906 -0.3139  0.0089
  495TIP3   OH225679   0.938   5.227  11.228 -0.8116  0.6276  0.2448
  495TIP3    H125680   0.854   5.257  11.193 -0.9369 -0.1331 -0.1320
  495TIP3    H225681   0.993   5.305  11.227 -1.4227  1.0654  0.2053
  496TIP3   OH225682   2.187   0.259   8.513 -0.1625 -0.6042 -0.2542
  496TIP3    H125683   2.230   0.186   8.468  1.0643 -0.5690  0.8014
  496TIP3    H225684   2.098   0.229   8.529  0.4593 -2.0736  0.5948
  497TIP3   OH225685   4.988   4.753  10.963 -0.0035  0.0572  0.4392
  497TIP3    H125686   4.899   4.738  10.932  0.0363  0.5746  0.0706
  497TIP3    H225687   5.019   4.828  10.912 -0.5030  1.9966  2.8138
  498TIP3   OH225688   6.775   6.685   9.235 -0.6053 -0.1849 -0.1473
  498TIP3    H125689   6.715   6.741   9.185  0.5060  1.5546  0.3745
  498TIP3    H225690   6.797   6.737   9.313  2.9075  0.0433 -1.1313
  499TIP3   OH225691   2.551   2.354  11.519 -0.1495  0.1380  0.5270
  499TIP3    H125692   2.611   2.302  11.465  0.7240  2.2603 -0.6346
  499TIP3    H225693   2.586   2.344  11.608  1.0986  0.2032  0.0697
  500TIP3   OH225694   1.507   2.433   9.694 -0.2200  0.2595  0.2626
  500TIP3    H125695   1.597   2.436   9.661  0.0657  1.8331  1.1051
  500TIP3    H225696   1.454   2.412   9.617  0.8301 -0.3756 -0.3089
  501TIP3   OH225697   4.869   3.732   9.487  0.4106  0.1567 -0.1026
  501TIP3    H125698   4.955   3.737   9.445  0.8937 -0.2929  0.7843
  501TIP3    H225699   4.815   3.796   9.440  0.6449 -0.9508 -1.9631
  502TIP3   OH225700   6.731   1.697   9.608  0.3957 -0.3807  0.0150
  502TIP3    H125701   6.812   1.652   9.631 -0.5111 -1.7907  0.6127
  502TIP3    H225702   6.697   1.648   9.533 -1.2400 -1.5600  1.4507
  503TIP3   OH225703   4.062   4.682   9.039 -0.1882  0.0921  0.0611
  503TIP3    H125704   3.997   4.720   9.099  0.9596  0.9483  0.8100
  503TIP3    H225705   4.114   4.757   9.010 -0.7392 -0.3039 -2.0898
  504TIP3   OH225706   3.824   6.330   9.350  0.2413 -0.2424  0.1999
  504TIP3    H125707   3.839   6.339   9.444  0.5736  0.7782  0.0599
  504TIP3    H225708   3.872   6.252   9.325 -0.4263 -0.9285  1.0008
  505TIP3   OH225709   3.431   1.013  11.294  0.1600 -0.4691  0.3974
  505TIP3    H125710   3.346   1.055  11.302  0.0400 -0.9991  2.8886
  505TIP3    H225711   3.425   0.934  11.349  1.8380 -1.2479 -0.4330
  506TIP3   OH225712   0.809   5.950  11.008 -0.5922 -0.0568 -0.0622
  506TIP3    H125713   0.841   5.981  11.092 -0.1973  0.6281 -0.4526
  506TIP3    H225714   0.749   6.019  10.979 -0.4714 -0.1257 -0.4883
  507TIP3   OH225715   3.722   3.993  11.345 -0.0401  0.2936 -0.1057
  507TIP3    H125716   3.742   3.938  11.420 -1.0720  0.5722  0.3842
  507TIP3    H225717   3.634   4.026  11.361 -0.4045  0.1316 -1.5745
  508TIP3   OH225718   2.745   3.861   9.996  0.3538  0.3401  0.5148
  508TIP3    H125719   2.841   3.865   9.988  0.4577  1.8612  1.9518
  508TIP3    H225720   2.730   3.854  10.090 -0.9669  0.9706  0.3656
  509TIP3   OH225721   2.289   1.905   9.375 -0.2133 -0.7024 -1.0200
  509TIP3    H125722   2.260   1.864   9.457 -1.2600  0.8336 -0.5733
  509TIP3    H225723   2.376   1.867   9.359 -0.0888 -1.2391  0.6673
  510TIP3   OH225724   1.680   4.241  10.915  0.4827 -0.0288  0.2925
  510TIP3    H125725   1.695   4.281  11.001  1.3397  1.1654 -0.3937
  510TIP3    H225726   1.752   4.178  10.905  0.5495  0.0423  0.3229
  511TIP3   OH225727   6.116   1.190  10.226 -0.4771  0.1614 -0.2682
  511TIP3    H125728   6.025   1.160  10.234 -0.7794  1.2608  0.6411
  511TIP3    H225729   6.147   1.195  10.316 -0.1497  1.6469 -0.4480
  512TIP3   OH225730   3.828   2.443   9.657  0.1982  0.1839  0.0445
  512TIP3    H125731   3.779   2.486   9.728 -1.5191 -2.7130  0.7889
  512TIP3    H225732   3.918   2.440   9.689 -0.3293 -0.0305  1.6385
  513TIP3   OH225733   4.569   0.247   9.162 -0.0952  0.0423  0.0049
  513TIP3    H125734   4.509   0.321   9.162  1.2056  1.1353  0.6034
  513TIP3    H225735   4.606   0.245   9.250  1.5433  0.0772 -0.6458
  514TIP3   OH225736   4.420   3.287   8.477  0.1117  0.5802 -0.4532
  514TIP3    H125737   4.448   3.289   8.568 -0.0093  0.5410 -0.4147
  514TIP3    H225738   4.356   3.216   8.473  1.0365 -0.2577 -0.8401
  515TIP3   OH225739   6.123   6.100  11.264 -0.0217  0.3877 -0.3264
  515TIP3    H125740   6.028   6.109  11.273  0.0903  2.0014 -0.4663
  515TIP3    H225741   6.147   6.033  11.328 -1.3446 -0.7002 -0.9067
  516TIP3   OH225742   3.328   3.963  11.921  0.1843 -0.5314  0.0764
  516TIP3    H125743   3.387   4.037  11.936  0.7535 -0.4961 -1.9867
  516TIP3    H225744   3.289   3.945  12.007 -0.4428  2.5132  0.5396
  517TIP3   OH225745   3.883   0.666  10.668  0.1749 -0.3071 -0.1056
  517TIP3    H125746   3.914   0.666  10.759  0.7652 -1.2323 -0.2877
  517TIP3    H225747   3.855   0.756  10.652 -1.0008 -0.3866  1.3443
  518TIP3   OH225748   1.790   2.006   8.763 -0.4299  0.4056 -0.3735
  518TIP3    H125749   1.839   1.958   8.696  0.2329  0.0325  0.3637
  518TIP3    H225750   1.699   1.977   8.751 -0.5414  1.2462 -1.8803
  519TIP3   OH225751   2.338   2.084  11.755 -0.5747 -0.0376 -0.1142
  519TIP3    H125752   2.297   2.170  11.759 -1.4049 -0.3899 -0.6922
  519TIP3    H225753   2.397   2.081  11.830 -1.8591  0.3746  0.9410
  520TIP3   OH225754   2.176   2.186   9.368  0.8593 -0.2973  0.4524
  520TIP3    H125755   2.182   2.092   9.387 -0.5152 -0.2002  1.5717
  520TIP3    H225756   2.265   2.219   9.380  1.2280 -1.3462  0.7134
  521TIP3   OH225757   2.480   2.963   9.126 -0.2698 -0.2838 -0.7332
  521TIP3    H125758   2.432   2.910   9.062  0.9013  0.0490 -1.9303
  521TIP3    H225759   2.552   3.001   9.076 -0.6569  1.9034  0.2468
  522TIP3   OH225760   1.011   0.444  11.401  0.1907  0.1219  0.7434
  522TIP3    H125761   1.008   0.480  11.489  2.6572 -0.6373  1.2050
  522TIP3    H225762   1.086   0.485  11.359  0.0660 -0.7702 -0.4380
  523TIP3   OH225763   6.070   3.982   8.651 -0.6327  0.2579 -0.5293
  523TIP3    H125764   6.105   3.921   8.586 -0.1037  0.8215 -0.7894
  523TIP3    H225765   5.980   3.997   8.623 -0.8012 -0.4831 -0.3967
  524TIP3   OH225766   6.363   4.822   9.856  0.1098 -0.4759 -0.7512
  524TIP3    H125767   6.350   4.902   9.806  0.6460  0.1932  0.1361
  524TIP3    H225768   6.276   4.783   9.864 -0.1558  0.0293 -1.1808
  525TIP3   OH225769   4.901   2.608  11.616  0.3400  0.2795 -0.2771
  525TIP3    H125770   4.984   2.570  11.588  1.6073  2.1809  0.6272
  525TIP3    H225771   4.889   2.575  11.705 -0.3157 -0.6197 -0.6844
  526TIP3   OH225772   4.339   2.510  10.312  0.0822  0.1478  0.0604
  526TIP3    H125773   4.277   2.575  10.346  3.2964  5.0163 -2.2407
  526TIP3    H225774   4.293   2.469  10.239 -1.3744  1.5926  0.0987
  527TIP3   OH225775   6.149   4.133   8.365 -0.1021  0.3485  0.3682
  527TIP3    H125776   6.124   4.040   8.370 -1.7688  0.6723 -0.8343
  527TIP3    H225777   6.211   4.137   8.293  0.3877  0.0970  0.7719
  528TIP3   OH225778   5.987   5.795  10.396 -0.1134  0.4578 -0.0886
  528TIP3    H125779   5.917   5.733  10.420 -0.7235  1.5763  1.2065
  528TIP3    H225780   6.021   5.826  10.480  1.6929  0.2536 -0.7012
  529TIP3   OH225781   5.120   3.949   9.737 -0.1306  0.4625  0.6225
  529TIP3    H125782   5.211   3.930   9.713  0.6340  0.1222  3.4513
  529TIP3    H225783   5.078   3.862   9.743 -1.7052  0.6726 -3.8506
  530TIP3   OH225784   2.750   2.108  12.134  0.2372 -0.1092  0.4912
  530TIP3    H125785   2.716   2.197  12.145 -0.2335 -0.0874 -0.9316
  530TIP3    H225786   2.833   2.108  12.182  0.2789  1.1263  0.4494
  531TIP3   OH225787   3.077   4.456  10.878  0.2550 -0.4027 -0.7590
  531TIP3    H125788   3.107   4.482  10.791  2.0724  0.4243  0.0568
  531TIP3    H225789   3.157   4.450  10.930 -0.8324 -0.3525  1.0075
  532TIP3   OH225790   3.760   4.318   9.942  0.0725 -0.1576  0.1569
  532TIP3    H125791   3.689   4.355   9.995  0.2030 -0.7930  0.7948
  532TIP3    H225792   3.716   4.284   9.864 -0.2849 -0.2793  0.4100
  533TIP3   OH225793   2.500   2.951   9.868 -0.7273 -0.0173 -0.0944
  533TIP3    H125794   2.535   2.992   9.947  0.1619 -0.1734 -0.3960
  533TIP3    H225795   2.442   2.882   9.900 -0.5964  0.1065  0.4195
  534TIP3   OH225796   5.270   6.345  11.491  0.1250 -0.1656 -0.0587
  534TIP3    H125797   5.180   6.315  11.489 -0.0936  0.4899 -0.3696
  534TIP3    H225798   5.278   6.395  11.573  0.2866 -0.4452  0.1008
  535TIP3   OH225799   2.107   1.184  10.508 -0.1374 -0.2701  0.3379
  535TIP3    H125800   2.034   1.148  10.457 -0.3964 -0.2112  0.6694
  535TIP3    H225801   2.121   1.121  10.579 -0.1765 -0.0401  0.5505
  536TIP3   OH225802   0.190   3.926  11.307  0.1236  0.2030  0.0619
  536TIP3    H125803   0.244   3.995  11.270 -0.0084  0.3357  0.1169
  536TIP3    H225804   0.145   3.967  11.381  0.4214 -0.0755  0.3994
  537TIP3   OH225805   4.845   0.447  10.402 -0.2563  0.4458  0.5913
  537TIP3    H125806   4.880   0.366  10.365  1.6776  1.1696  0.7151
  537TIP3    H225807   4.891   0.456  10.486 -1.3291  1.0647  1.1261
  538TIP3   OH225808   1.405   6.348   9.264  0.1439  0.2447 -0.2518
  538TIP3    H125809   1.325   6.310   9.299  1.1156 -0.4873  1.2694
  538TIP3    H225810   1.395   6.342   9.169 -1.0908 -0.9041 -0.0725
  539TIP3   OH225811   2.922   6.314   9.825 -0.4841  0.0490  0.0935
  539TIP3    H125812   2.858   6.286   9.759  0.2740 -0.5991 -0.3849
  539TIP3    H225813   3.004   6.323   9.776  0.0502 -0.2801  0.9153
  540TIP3   OH225814   4.400   0.029  11.885 -0.1745  0.2450  0.0010
  540TIP3    H125815   4.450  -0.014  11.816 -0.9660  0.2969 -0.6111
  540TIP3    H225816   4.432  -0.011  11.966  0.8928  0.3165 -0.3710
  541TIP3   OH225817   2.682   3.966  11.884  0.5461 -0.4307  0.7857
  541TIP3    H125818   2.677   4.048  11.835  1.8158  0.6385  2.3030
  541TIP3    H225819   2.596   3.926  11.874 -0.0453  0.9948 -0.1650
  542TIP3   OH225820   1.603   3.418   9.539 -0.4260  0.2115 -0.3491
  542TIP3    H125821   1.667   3.425   9.609 -1.7450  0.1162  0.9063
  542TIP3    H225822   1.525   3.462   9.572 -1.6577 -1.3417 -1.0335
  543TIP3   OH225823   6.202   0.992   9.166 -0.7496  0.3916  0.2123
  543TIP3    H125824   6.124   0.939   9.152 -0.0102 -0.4016 -1.1161
  543TIP3    H225825   6.190   1.067   9.107 -0.6309  0.3941  0.1914
  544TIP3   OH225826   2.739   3.074   8.713 -0.2518 -0.2631 -0.1927
  544TIP3    H125827   2.654   3.112   8.688 -0.4859  0.3738  1.4993
  544TIP3    H225828   2.801   3.146   8.705 -0.2905 -0.1117  0.8216
  545TIP3   OH225829   2.993   4.766  10.658  0.1953  0.0386 -0.7805
  545TIP3    H125830   3.063   4.714  10.619 -0.6760 -1.5865 -0.2663
  545TIP3    H225831   3.038   4.833  10.710  1.3764 -1.3900  0.0898
  546TIP3   OH225832   3.994   5.780  10.404 -0.3741  0.1915  0.1845
  546TIP3    H125833   4.059   5.718  10.437 -0.9603  0.0351  1.0953
  546TIP3    H225834   4.024   5.865  10.435 -1.7014 -0.1062  2.5402
  547TIP3   OH225835   3.591   3.647  11.241 -0.1706  0.4689 -0.0557
  547TIP3    H125836   3.686   3.642  11.247 -0.0300 -0.1101 -1.8981
  547TIP3    H225837   3.562   3.679  11.326  1.6674  0.6518  0.5327
  548TIP3   OH225838   0.405   4.868  11.695  0.2727  0.1038 -0.2183
  548TIP3    H125839   0.479   4.826  11.738  1.4595  0.4937 -1.8066
  548TIP3    H225840   0.332   4.807  11.708  0.4519  0.3594  2.5753
  549TIP3   OH225841   6.383   5.815  10.783 -0.6040  0.6563 -0.2921
  549TIP3    H125842   6.451   5.750  10.802 -1.6323  0.1432  1.9080
  549TIP3    H225843   6.330   5.818  10.863 -1.2283  3.4417 -0.7236
  550TIP3   OH225844   3.059   3.916   8.542 -0.6110  0.2072 -0.3770
  550TIP3    H125845   3.041   4.005   8.573  0.4519  0.2300  0.2295
  550TIP3    H225846   3.154   3.907   8.551 -0.6437 -0.7872 -0.9867
  551TIP3   OH225847   5.743   4.995   8.342 -0.1144 -0.3929  0.3247
  551TIP3    H125848   5.724   4.957   8.256 -0.8971  0.6393  0.0299
  551TIP3    H225849   5.822   4.948   8.371 -1.2227 -2.4872  0.1465
  552TIP3   OH225850   6.620   0.013   9.027  0.1584 -0.2568 -0.0439
  552TIP3    H125851   6.544  -0.027   8.984  0.0567  0.5856 -0.6653
  552TIP3    H225852   6.688   0.012   8.960  0.7530 -1.1119  0.5463
  553TIP3   OH225853   0.833   3.668  11.048 -0.2089  0.2468 -0.8364
  553TIP3    H125854   0.917   3.695  11.084  0.5231 -1.6578 -0.9680
  553TIP3    H225855   0.798   3.746  11.007 -0.2477  2.0841  2.3633
  554TIP3   OH225856   3.594   0.274   9.716 -0.3642 -0.0242 -0.5863
  554TIP3    H125857   3.538   0.213   9.765  0.2905  1.5168  2.3608
  554TIP3    H225858   3.535   0.314   9.652 -1.6888 -1.1027 -0.0984
  555TIP3   OH225859   3.108   4.610   9.907  0.0467 -0.5990  0.1487
  555TIP3    H125860   3.199   4.623   9.881  0.2586 -0.9102  0.7163
  555TIP3    H225861   3.061   4.599   9.825  0.6623 -1.3058 -0.1204
  556TIP3   OH225862   5.154   6.117  10.035 -0.1061 -0.5309  0.1895
  556TIP3    H125863   5.089   6.101  10.103 -0.2071 -1.2412 -0.0668
  556TIP3    H225864   5.107   6.106   9.953 -0.0503  0.6142 -0.0045
  557TIP3   OH225865   0.170   3.500   8.691  0.3929 -0.0470  0.3270
  557TIP3    H125866   0.175   3.531   8.601  1.5450 -0.8606  0.1011
  557TIP3    H225867   0.244   3.441   8.701 -0.9723 -1.7142  1.1427
  558TIP3   OH225868   5.299   1.849   9.225 -0.4385  0.6188 -0.1745
  558TIP3    H125869   5.257   1.900   9.294 -0.0383  0.7091  0.0019
  558TIP3    H225870   5.388   1.835   9.255 -0.2489  0.6833 -0.6857
  559TIP3   OH225871   1.929   6.430  10.132 -0.2907 -0.2378 -0.4448
  559TIP3    H125872   1.971   6.455  10.214  1.0509  1.0609 -1.4789
  559TIP3    H225873   1.941   6.335  10.127  1.1357 -0.1082  0.0627
  560TIP3   OH225874   0.188   3.295  10.169  0.5981  0.4603  0.3407
  560TIP3    H125875   0.127   3.354  10.125  1.9544  0.3974 -1.7529
  560TIP3    H225876   0.186   3.215  10.116  0.6041 -0.4868  1.7315
  561TIP3   OH225877   3.770   6.594  10.104 -0.8588  0.1202 -0.5007
  561TIP3    H125878   3.763   6.665  10.168 -0.0933  2.1529 -2.5208
  561TIP3    H225879   3.682   6.584  10.069 -1.3259 -1.1419  0.9318
  562TIP3   OH225880   5.553   2.126  11.195 -0.2330  0.0910  1.1317
  562TIP3    H125881   5.460   2.113  11.214 -0.3157  0.1156  0.7505
  562TIP3    H225882   5.589   2.160  11.277 -0.3924 -0.6993  1.5409
  563TIP3   OH225883   4.864   6.790   8.582 -0.1161 -0.1266 -0.1520
  563TIP3    H125884   4.934   6.731   8.553 -0.2520 -0.7087  0.6915
  563TIP3    H225885   4.831   6.751   8.663  0.6646  1.7637  1.1401
  564TIP3   OH225886   0.481   2.334  10.270  0.2032 -0.0121  0.2652
  564TIP3    H125887   0.409   2.386  10.234 -0.4881 -1.0281  0.1370
  564TIP3    H225888   0.468   2.336  10.364  0.4489  0.4284  0.2909
  565TIP3   OH225889   6.302   3.804   8.278 -0.1497 -0.2238  0.1719
  565TIP3    H125890   6.234   3.753   8.322 -0.2497 -0.0527  0.2177
  565TIP3    H225891   6.366   3.821   8.346 -0.1007 -0.3138  0.1496
  566TIP3   OH225892   2.687   5.778   9.957 -0.3836 -0.2486 -0.5528
  566TIP3    H125893   2.641   5.745   9.880 -1.8257  1.5806 -0.5348
  566TIP3    H225894   2.626   5.840   9.997  1.7588  1.7099 -0.0937
  567TIP3   OH225895   1.608   3.670  11.825 -0.8185 -0.4214  0.1297
  567TIP3    H125896   1.543   3.633  11.765  0.9038 -0.3508 -1.8901
  567TIP3    H225897   1.638   3.595  11.877 -1.9110 -0.5965  0.5362
  568TIP3   OH225898   1.154   4.478  10.041  0.6251  0.4479 -0.5235
  568TIP3    H125899   1.178   4.567  10.066  0.0343  0.9030 -1.5051
  568TIP3    H225900   1.162   4.427  10.121  0.5431  1.4818  0.1573
  569TIP3   OH225901   0.960   2.611  11.016 -0.0816 -0.1896 -0.4180
  569TIP3    H125902   0.936   2.544  11.080 -0.3084  0.1567 -0.1329
  569TIP3    H225903   0.948   2.694  11.063  0.3461  0.0426 -0.7179
  570TIP3   OH225904   1.660   1.274   8.507 -0.2111 -0.0714  0.2084
  570TIP3    H125905   1.639   1.244   8.596 -0.0156 -0.1422  0.2319
  570TIP3    H225906   1.629   1.203   8.450  2.9092 -1.7721  0.4206
  571TIP3   OH225907   2.067   2.971   9.538  0.0099 -0.1756 -0.2436
  571TIP3    H125908   1.973   2.990   9.528 -0.0194 -0.5243 -0.6737
  571TIP3    H225909   2.070   2.892   9.591  0.1011  0.4278  0.6794
  572TIP3   OH225910   4.199   5.998  11.824  0.1803 -0.3430  0.1742
  572TIP3    H125911   4.109   6.019  11.799  0.4715  1.2342  0.3504
  572TIP3    H225912   4.250   6.073  11.794  1.6629 -1.7548 -1.0565
  573TIP3   OH225913   5.113   0.382  10.567  0.4896 -0.2353  0.1420
  573TIP3    H125914   5.146   0.344  10.485  0.1533 -1.0212  0.3660
  573TIP3    H225915   5.187   0.430  10.602 -0.0739  2.4092 -1.9465
  574TIP3   OH225916   0.004   0.427   9.654  0.1532 -0.5977  0.2012
  574TIP3    H125917  -0.025   0.363   9.589  0.0593 -0.9763  0.6132
  574TIP3    H225918   0.100   0.429   9.643  0.0397  0.2431 -0.7749
  575TIP3   OH225919   1.328   2.182   8.988  0.1655 -0.6731  0.4819
  575TIP3    H125920   1.250   2.214   9.034 -0.1063 -1.0645  0.2926
  575TIP3    H225921   1.402   2.215   9.040 -0.0988  0.4127  0.2075
  576TIP3   OH225922   6.385   2.368  11.231  0.0842  0.1135  0.1464
  576TIP3    H125923   6.391   2.380  11.137  0.1357  0.3400  0.1773
  576TIP3    H225924   6.421   2.449  11.268  0.0743  0.0222  0.3592
  577TIP3   OH225925   1.505   4.089  10.241  0.1293  0.0666  0.1737
  577TIP3    H125926   1.556   4.167  10.265  2.5310 -1.2748 -0.1807
  577TIP3    H225927   1.476   4.054  10.325 -0.2080  0.8492  0.3973
  578TIP3   OH225928   4.384   1.000  10.420 -0.3115  0.1192  0.0331
  578TIP3    H125929   4.453   0.944  10.456  0.7140  1.2723 -0.0544
  578TIP3    H225930   4.431   1.065  10.368 -1.6957 -1.1503 -3.0253
  579TIP3   OH225931   5.156   0.768   9.309  0.1200  0.1595 -0.4126
  579TIP3    H125932   5.095   0.696   9.325  0.7710 -0.0950  1.1830
  579TIP3    H225933   5.101   0.846   9.306 -0.4662 -0.2602 -0.9091
  580TIP3   OH225934   3.910   1.126  10.604  0.0958 -0.7443  0.0891
  580TIP3    H125935   3.984   1.074  10.573 -0.0775 -0.7349 -0.3451
  580TIP3    H225936   3.920   1.211  10.560 -0.5533 -0.9709 -0.5274
  581TIP3   OH225937   3.744   3.956  10.804  0.2889 -0.2537  0.1140
  581TIP3    H125938   3.723   3.953  10.898  1.2502  1.2253  0.4188
  581TIP3    H225939   3.784   3.872  10.786  0.0765 -0.5656  1.0388
  582TIP3   OH225940   3.718   0.681  10.075 -0.2022 -0.2172  0.6245
  582TIP3    H125941   3.738   0.630   9.997  0.9205  0.1009  0.6862
  582TIP3    H225942   3.711   0.615  10.145 -2.6811 -0.6681  0.0548
  583TIP3   OH225943   2.190   1.242  10.936  0.2046 -0.4377  0.2530
  583TIP3    H125944   2.138   1.318  10.911  1.8515  0.2510 -1.2680
  583TIP3    H225945   2.280   1.275  10.943  0.9477 -2.1998 -0.3747
  584TIP3   OH225946   4.017   1.795  11.160 -0.1672  0.1059  0.4105
  584TIP3    H125947   4.101   1.838  11.176  0.3786 -0.3660 -0.9979
  584TIP3    H225948   3.958   1.866  11.136  0.0557  0.3378  0.5412
  585TIP3   OH225949   2.884   3.822  10.818 -0.1391  0.2394  0.4708
  585TIP3    H125950   2.808   3.789  10.771  0.3128 -1.6359  0.9925
  585TIP3    H225951   2.952   3.831  10.752 -0.1996 -0.1036  0.3620
  586TIP3   OH225952   3.884   4.777   9.211  0.1032  0.0520 -0.4564
  586TIP3    H125953   3.801   4.807   9.173 -0.3126  0.6790  0.9141
  586TIP3    H225954   3.920   4.854   9.254 -0.0181 -0.8740  1.4186
  587TIP3   OH225955   1.622   2.240  10.125 -0.0782  0.1399 -0.7585
  587TIP3    H125956   1.566   2.174  10.084 -1.8221  0.9521  0.2058
  587TIP3    H225957   1.677   2.191  10.186 -2.4361 -0.3712  1.1166
  588TIP3   OH225958   6.234   5.997   8.081 -0.1739 -0.1785  0.1043
  588TIP3    H125959   6.152   6.040   8.106  0.4262  2.6224 -2.2266
  588TIP3    H225960   6.300   6.034   8.139  0.0879  1.0226 -0.9049
  589TIP3   OH225961   5.738   5.717  11.567  0.5004  0.5322  0.1639
  589TIP3    H125962   5.807   5.652  11.551 -0.3689 -0.3835  0.0291
  589TIP3    H225963   5.738   5.772  11.489  0.1638 -0.3179 -0.4429
  590TIP3   OH225964   0.850   0.756  11.765 -0.1819 -0.7307 -0.4229
  590TIP3    H125965   0.795   0.727  11.692 -1.5858 -0.3572  0.4284
  590TIP3    H225966   0.797   0.823  11.808  1.8673  1.2306 -0.8011
  591TIP3   OH225967   5.224   2.666  10.862 -0.3569  0.3513  0.1010
  591TIP3    H125968   5.186   2.634  10.780 -0.3107  0.1598  0.1543
  591TIP3    H225969   5.153   2.657  10.926  0.0193 -0.7590  0.3813
  592TIP3   OH225970   0.518   0.673  11.017 -0.7675 -0.2225 -0.0822
  592TIP3    H125971   0.491   0.751  10.969 -0.5867  0.3704  0.7588
  592TIP3    H225972   0.604   0.696  11.054 -0.5098 -0.9784 -0.1950
  593TIP3   OH225973   6.373   1.201   8.666  0.2386 -0.2828 -0.6044
  593TIP3    H125974   6.278   1.207   8.653  0.3641  0.1398 -1.4109
  593TIP3    H225975   6.387   1.238   8.753 -0.1957  1.1151 -1.0997
  594TIP3   OH225976   6.332   6.461   9.697 -0.0801  0.4134 -0.2460
  594TIP3    H125977   6.333   6.436   9.605 -0.4189  2.7124 -0.9449
  594TIP3    H225978   6.239   6.466   9.720  0.0016 -0.0943  0.2233
  595TIP3   OH225979   5.783   1.078  10.834 -0.0046  0.1424 -0.0102
  595TIP3    H125980   5.816   0.995  10.800  1.2838  0.5364  0.2276
  595TIP3    H225981   5.762   1.059  10.926  0.1029  0.0293 -0.0084
  596TIP3   OH225982   6.039   2.336   8.348 -0.0232 -0.4844 -0.1794
  596TIP3    H125983   5.947   2.328   8.373  0.0481  1.5853  0.9304
  596TIP3    H225984   6.052   2.429   8.332  1.9387 -0.7021 -0.1087
  597TIP3   OH225985   6.497   5.892  11.631  0.8104  0.3487  0.6895
  597TIP3    H125986   6.525   5.984  11.633  0.7308  0.3666  1.7217
  597TIP3    H225987   6.472   5.876  11.541 -0.8684  1.8588  0.8364
  598TIP3   OH225988   0.103   1.981   8.429 -0.0655  0.0853 -0.1514
  598TIP3    H125989   0.033   1.923   8.459 -0.8399  1.4425  0.7492
  598TIP3    H225990   0.064   2.029   8.356 -0.1582  0.9703  0.4673
  599TIP3   OH225991   6.016   5.939  10.027 -0.5404  0.4776  0.3292
  599TIP3    H125992   6.013   6.012  10.089 -1.4779  0.0154  0.8421
  599TIP3    H225993   6.004   5.861  10.081  1.3521 -0.1531 -0.0874
  600TIP3   OH225994   4.335   6.301   9.610  0.4547 -0.2111 -0.1105
  600TIP3    H125995   4.371   6.219   9.577  0.6399 -0.7306  1.3237
  600TIP3    H225996   4.405   6.340   9.662  0.0630  0.4171 -0.0351
  601TIP3   OH225997   2.901   0.842  11.180  0.8209 -0.3421 -0.1889
  601TIP3    H125998   2.952   0.838  11.099  0.4951 -3.7519 -0.3764
  601TIP3    H225999   2.820   0.888  11.156  1.9905  1.4209 -0.9349
  602TIP3   OH226000   2.800   5.729  10.780 -0.1836  0.4257 -0.3143
  602TIP3    H126001   2.841   5.814  10.763 -0.6599  0.6136 -0.5333
  602TIP3    H226002   2.858   5.665  10.738  1.0765  0.4799  1.2613
  603TIP3   OH226003   4.802   2.085   9.156  0.1602  0.0077  0.3753
  603TIP3    H126004   4.771   2.168   9.120  0.4343  0.1701  0.5070
  603TIP3    H226005   4.847   2.109   9.237  0.5271 -0.2283  0.2475
  604TIP3   OH226006   3.956   2.108   9.634  0.0655 -0.4701  1.0466
  604TIP3    H126007   3.892   2.062   9.579  0.3505  0.6569 -0.2698
  604TIP3    H226008   4.034   2.053   9.631  0.8510  0.6704 -1.6105
  605TIP3   OH226009   3.075   6.452  11.745  0.5351  0.1864  0.5399
  605TIP3    H126010   3.101   6.528  11.797  1.3613  0.4075 -0.1671
  605TIP3    H226011   2.979   6.454  11.746  0.5390  0.3726  1.7571
  606TIP3   OH226012   0.225   2.793   9.290  0.3941  0.0516  0.3353
  606TIP3    H126013   0.159   2.827   9.351  1.2559  1.2157  0.6622
  606TIP3    H226014   0.191   2.708   9.263  0.2328 -0.7801  2.8608
  607TIP3   OH226015   2.294   5.583  10.603  0.1934 -0.1307 -0.3739
  607TIP3    H126016   2.387   5.594  10.620  0.4545 -0.0544 -1.7578
  607TIP3    H226017   2.253   5.663  10.636  0.8584  0.6756 -1.4519
  608TIP3   OH226018   4.249   6.432   9.333 -0.0748 -0.7846  0.3302
  608TIP3    H126019   4.292   6.411   9.416 -0.5222 -0.4512  0.6546
  608TIP3    H226020   4.243   6.349   9.287  1.8973 -0.6796 -0.2073
  609TIP3   OH226021   0.388   4.654  11.394 -0.4545 -0.0076  0.4091
  609TIP3    H126022   0.402   4.579  11.452 -0.9410 -0.8264 -0.4945
  609TIP3    H226023   0.460   4.649  11.331 -0.5035  0.2582  0.3327
  610TIP3   OH226024   5.437   3.460  10.007 -0.6663 -0.5026  0.0638
  610TIP3    H126025   5.513   3.508   9.976  0.2902 -0.9853  1.5317
  610TIP3    H226026   5.437   3.474  10.102 -3.5078  1.0163 -0.0427
  611TIP3   OH226027   0.640   6.073   9.915 -0.0630 -0.0244 -0.3281
  611TIP3    H126028   0.579   6.138   9.880 -1.9956 -1.4625  0.2278
  611TIP3    H226029   0.611   6.057  10.004  1.4275 -0.4473  0.1181
  612TIP3   OH226030   0.249   6.594  11.879  0.4782  0.3445  0.1300
  612TIP3    H126031   0.337   6.627  11.861  1.5311 -0.6690  2.9913
  612TIP3    H226032   0.254   6.500  11.862 -0.6055  0.4942 -1.3173
  613TIP3   OH226033   1.018   2.333   9.991  0.0689  0.0526  0.8631
  613TIP3    H126034   0.935   2.363   9.954  1.3737  0.1551 -2.2651
  613TIP3    H226035   1.045   2.404  10.050  0.3023  2.5266 -1.9674
  614TIP3   OH226036   2.280   4.759  11.313  0.1146  0.0899  0.2542
  614TIP3    H126037   2.289   4.742  11.219 -0.4584 -1.2561  0.4150
  614TIP3    H226038   2.369   4.754  11.347  0.1994 -0.5964 -0.0492
  615TIP3   OH226039   3.891   4.801   9.583  0.2217  0.1612  0.4989
  615TIP3    H126040   3.868   4.835   9.497  1.7314  0.1997  0.0737
  615TIP3    H226041   3.890   4.878   9.640  3.1005  0.9498 -0.3513
  616TIP3   OH226042   2.084   6.157  11.658  0.1908 -0.4190  0.5388
  616TIP3    H126043   2.047   6.196  11.737 -1.7712 -0.9979 -0.0356
  616TIP3    H226044   2.136   6.226  11.618 -2.3610  1.3410  0.0667
  617TIP3   OH226045   1.622   1.933   8.105 -1.0969  0.1700 -0.0064
  617TIP3    H126046   1.538   1.976   8.086 -0.3271  0.5787 -3.0733
  617TIP3    H226047   1.642   1.883   8.025  1.4414 -0.1720  0.7474
  618TIP3   OH226048   2.307   3.581  12.046 -0.4231 -0.2810  0.2672
  618TIP3    H126049   2.355   3.660  12.070 -2.2526  0.8156  0.5706
  618TIP3    H226050   2.352   3.510  12.091  2.3764  0.2603 -1.4569
  619TIP3   OH226051   1.249   4.650  11.710 -0.2046 -0.3595 -0.2343
  619TIP3    H126052   1.154   4.645  11.710 -0.3085  1.0853 -0.6617
  619TIP3    H226053   1.270   4.700  11.631  0.9790 -1.5668 -0.7258
  620TIP3   OH226054   6.225   3.930  11.372  0.0584  0.2679  0.5273
  620TIP3    H126055   6.253   3.886  11.452 -0.8704  1.4628  1.5448
  620TIP3    H226056   6.234   4.023  11.392  0.4924  0.5921 -1.0246
  621TIP3   OH226057   0.728   0.634  10.774 -0.3045 -0.6821 -0.4975
  621TIP3    H126058   0.741   0.543  10.748  0.2080 -0.2366 -1.8895
  621TIP3    H226059   0.726   0.683  10.692  2.1092  0.8918  0.2650
  622TIP3   OH226060   2.612   2.365   9.792  0.2533 -0.0365  0.1488
  622TIP3    H126061   2.569   2.284   9.817 -1.3365  0.2863 -1.3017
  622TIP3    H226062   2.623   2.358   9.697  1.7991  0.6730  0.2428
  623TIP3   OH226063   6.642   2.209  11.520 -0.7533 -0.0554  0.2651
  623TIP3    H126064   6.593   2.257  11.587 -1.0705 -0.0882  0.0535
  623TIP3    H226065   6.723   2.260  11.509  0.0334 -0.8971  1.8203
  624TIP3   OH226066   0.995   2.042  10.783 -0.4157 -0.0299 -0.0585
  624TIP3    H126067   1.080   2.008  10.809 -0.1669  1.4344  1.1481
  624TIP3    H226068   1.014   2.124  10.737 -1.1472  0.1486 -0.0601
  625TIP3   OH226069   0.895   6.255  11.098  0.3004  0.2631  0.4412
  625TIP3    H126070   0.970   6.288  11.147  0.7763  0.5464 -0.4402
  625TIP3    H226071   0.820   6.302  11.132  0.4742 -0.2406  1.5454
  626TIP3   OH226072   0.349   3.181  11.419 -0.5141 -0.0369  0.4164
  626TIP3    H126073   0.264   3.205  11.457 -0.0433 -0.6293  1.9229
  626TIP3    H226074   0.413   3.210  11.484  0.3205 -1.2996  0.1893
  627TIP3   OH226075   3.189   3.359  10.045 -0.2527  0.1850 -0.4783
  627TIP3    H126076   3.122   3.379   9.979 -0.8809  0.5186  0.2452
  627TIP3    H226077   3.261   3.418  10.023 -0.5524  0.4665 -0.7273
  628TIP3   OH226078   5.054   0.801  11.825  0.0099 -0.7069  0.0270
  628TIP3    H126079   5.022   0.752  11.750  0.7025 -1.3637  0.1500
  628TIP3    H226080   4.986   0.790  11.892 -0.3189 -0.6366 -0.2970
  629TIP3   OH226081   3.697   0.515   9.344 -0.1639  0.2512  0.3235
  629TIP3    H126082   3.637   0.526   9.419  1.0720 -1.9872  1.7648
  629TIP3    H226083   3.771   0.466   9.380  0.7615 -0.3973 -2.2740
  630TIP3   OH226084   1.514   0.804   9.005  0.1126 -0.2599 -0.0205
  630TIP3    H126085   1.429   0.834   9.038  0.0252 -1.0792  0.5287
  630TIP3    H226086   1.535   0.865   8.935 -2.1758 -1.5328 -1.9687
  631TIP3   OH226087   0.835   2.821  10.021  0.4314 -0.1975 -0.2430
  631TIP3    H126088   0.761   2.849   9.968 -0.5172 -0.3597  0.9487
  631TIP3    H226089   0.861   2.899  10.070  0.6639 -0.2940 -0.2092
  632TIP3   OH226090   1.530   4.877   9.964 -0.2238 -0.1071 -0.7510
  632TIP3    H126091   1.553   4.905   9.875  1.4941 -2.5134 -1.1493
  632TIP3    H226092   1.557   4.786   9.968 -0.0703 -0.0143  2.3418
  633TIP3   OH226093   3.975   3.148   8.958 -0.6786  0.4341 -0.2751
  633TIP3    H126094   3.990   3.076   8.897 -1.5450 -0.7552  0.8501
  633TIP3    H226095   4.046   3.210   8.941  0.1114 -0.6980 -1.2496
  634TIP3   OH226096   2.915   4.468   9.493 -0.4064 -0.2571  0.2805
  634TIP3    H126097   2.894   4.377   9.469 -0.0327 -0.4872  0.8027
  634TIP3    H226098   2.861   4.521   9.435 -0.6017 -0.8154 -0.0592
  635TIP3   OH226099   0.206   6.187  10.741  0.1159  0.3377  0.0104
  635TIP3    H126100   0.258   6.258  10.778 -1.5402  1.2459  0.7212
  635TIP3    H226101   0.182   6.133  10.816 -0.0153 -0.0370 -0.2957
  636TIP3   OH226102   3.137   2.047  10.626 -0.2500 -0.3079 -0.2241
  636TIP3    H126103   3.195   1.981  10.663  0.1718  0.9638  1.5243
  636TIP3    H226104   3.078   1.998  10.569  1.4370 -1.8610 -0.7132
  637TIP3   OH226105   2.166   2.984   9.078 -0.0666 -0.0397 -0.0860
  637TIP3    H126106   2.178   3.070   9.038  1.0305 -0.3572 -0.4672
  637TIP3    H226107   2.143   2.926   9.005 -2.9196  0.2823  0.4331
  638TIP3   OH226108   4.547   1.147   9.831 -0.2854  0.2052  0.1401
  638TIP3    H126109   4.534   1.103   9.748  1.3042 -1.1992  0.5901
  638TIP3    H226110   4.472   1.121   9.884 -0.8514  0.4098 -0.5461
  639TIP3   OH226111   2.715   2.774   9.745  0.0801 -0.2805  0.1833
  639TIP3    H126112   2.633   2.817   9.770  0.0773 -1.3585  2.1283
  639TIP3    H226113   2.756   2.750   9.827  2.0591 -0.3776 -0.7748
  640TIP3   OH226114   6.010   4.726   8.855 -0.6923 -0.4196 -0.4741
  640TIP3    H126115   6.059   4.767   8.926  0.8070 -2.0210 -0.5177
  640TIP3    H226116   5.978   4.799   8.802 -1.2924  0.7791  1.4463
  641TIP3   OH226117   2.453   5.977  10.223 -0.4687 -0.1171 -0.3671
  641TIP3    H126118   2.452   6.033  10.145 -0.6275 -0.8074 -0.8736
  641TIP3    H226119   2.475   6.037  10.295 -2.7005  1.0321 -0.5440
  642TIP3   OH226120   4.112   1.845  10.065  0.0603 -0.4404  0.5729
  642TIP3    H126121   4.102   1.897  10.144  0.9405  0.9199 -0.1741
  642TIP3    H226122   4.089   1.904   9.993  2.8585 -0.3839 -0.4387
  643TIP3   OH226123   1.032   6.766  10.700  0.0631  1.2832  0.1517
  643TIP3    H126124   1.048   6.836  10.764  0.3049  0.8140  0.6143
  643TIP3    H226125   1.119   6.742  10.668  0.3748 -0.8954  2.2711
  644TIP3   OH226126   6.323   0.256   8.448  0.3008  0.2477  0.7163
  644TIP3    H126127   6.376   0.252   8.368  1.5459 -6.1754  1.3100
  644TIP3    H226128   6.233   0.262   8.417  0.8750  0.4317 -1.0124
  645TIP3   OH226129   4.702   5.845  11.620 -0.5308  0.5221 -0.2001
  645TIP3    H126130   4.716   5.779  11.687 -2.3391 -0.2336 -0.5333
  645TIP3    H226131   4.778   5.903  11.627  0.3381 -0.7324  1.0818
  646TIP3   OH226132   0.639   1.344   8.734  0.4994 -0.5194 -0.1465
  646TIP3    H126133   0.630   1.332   8.828 -1.4250 -0.5815 -0.3039
  646TIP3    H226134   0.733   1.359   8.721  0.8220 -0.6177  1.7491
  647TIP3   OH226135   4.544   1.986   9.272  0.1852 -0.1234 -0.5691
  647TIP3    H126136   4.580   2.039   9.201  0.9711 -0.4320 -0.4143
  647TIP3    H226137   4.618   1.934   9.303 -0.2442 -0.2857  0.2123
  648TIP3   OH226138   6.547   1.389  11.634 -0.7285 -0.1531 -0.1850
  648TIP3    H126139   6.628   1.343  11.611 -0.0357 -0.2728  2.2375
  648TIP3    H226140   6.502   1.400  11.550  1.7578 -0.0846 -1.6208
  649TIP3   OH226141   4.485   5.127  10.340 -0.5762 -0.1015 -0.4630
  649TIP3    H126142   4.478   5.215  10.304  0.2139  0.8500  1.5344
  649TIP3    H226143   4.525   5.075  10.270 -0.0211  1.3979 -1.2914
  650TIP3   OH226144   0.507   0.494  11.445 -0.4334 -0.0053  0.2595
  650TIP3    H126145   0.588   0.443  11.445 -0.1831  0.3490  1.5296
  650TIP3    H226146   0.447   0.446  11.388  0.4539 -0.6250 -0.1643
  651TIP3   OH226147   4.041   3.823   8.493  0.1640  0.3139  0.1886
  651TIP3    H126148   4.133   3.824   8.468  0.2419 -0.3196  0.4097
  651TIP3    H226149   4.035   3.751   8.557 -0.8196 -0.8487 -1.1574
  652TIP3   OH226150   6.680   5.691   9.159  0.6296  0.0242 -0.2901
  652TIP3    H126151   6.656   5.695   9.251  0.9952  3.5065 -0.2101
  652TIP3    H226152   6.602   5.721   9.112  2.0317  3.8188 -0.5646
  653TIP3   OH226153   2.155   1.839   9.615  0.5351  0.0311 -0.5724
  653TIP3    H126154   2.097   1.914   9.600 -0.1756  0.0908  1.9384
  653TIP3    H226155   2.096   1.764   9.621  1.0348 -0.4047 -1.0075
  654TIP3   OH226156   5.022   1.560  11.719  0.4978 -0.0070 -0.1326
  654TIP3    H126157   5.002   1.630  11.657 -0.8748  0.7357  1.0768
  654TIP3    H226158   5.115   1.543  11.708  0.6627  1.3690 -1.0935
  655TIP3   OH226159   4.264   6.648   9.670 -0.9783  0.4698  0.4923
  655TIP3    H126160   4.169   6.645   9.680 -1.0470 -1.9792 -0.1225
  655TIP3    H226161   4.298   6.646   9.760 -1.5001  0.4360  0.6921
  656TIP3   OH226162   1.717   4.898   9.736  0.6671  0.5001 -0.0310
  656TIP3    H126163   1.808   4.926   9.724 -0.0157  1.8642 -3.0738
  656TIP3    H226164   1.715   4.808   9.703  0.7654  0.7766 -0.8132
  657TIP3   OH226165   0.704   6.266   8.832  0.5333 -0.6991 -0.0772
  657TIP3    H126166   0.759   6.332   8.790 -0.5090 -0.9862 -2.0151
  657TIP3    H226167   0.615   6.288   8.804  0.1209 -2.6676 -0.4202
  658TIP3   OH226168   0.640   4.241  11.126 -0.3112  1.0114  0.5611
  658TIP3    H126169   0.592   4.324  11.128 -0.3068  1.0881 -1.1514
  658TIP3    H226170   0.697   4.244  11.203  0.4615  3.0622 -0.0488
  659TIP3   OH226171   0.813   1.913   8.947  0.1791 -0.1730  0.0078
  659TIP3    H126172   0.764   1.960   9.015 -0.7516  2.2187 -2.1626
  659TIP3    H226173   0.883   1.973   8.923  0.2467 -0.7985 -1.4123
  660TIP3   OH226174   6.722   6.122  12.142  0.5770  0.1960 -0.3401
  660TIP3    H126175   6.748   6.096  12.230 -0.9109  2.7368  0.9452
  660TIP3    H226176   6.627   6.110  12.140  0.4605  1.1060 -1.2409
  661TIP3   OH226177   0.455   4.380  10.787 -0.9983  0.2994  0.4805
  661TIP3    H126178   0.453   4.316  10.858  2.0919  0.3902  0.8268
  661TIP3    H226179   0.490   4.332  10.713 -0.6783  1.0556  0.1266
  662TIP3   OH226180   6.321   0.355   8.960 -0.4802 -0.1925 -0.2583
  662TIP3    H126181   6.252   0.300   8.922  0.3481 -0.0680 -2.0315
  662TIP3    H226182   6.351   0.410   8.888  1.9798 -0.7513  0.2414
  663TIP3   OH226183   2.832   2.032  10.599 -0.4652  0.5944 -0.2993
  663TIP3    H126184   2.889   1.988  10.662  0.5783  1.2267 -0.7879
  663TIP3    H226185   2.744   2.022  10.636  0.1004  0.8405  1.1917
  664TIP3   OH226186   3.852   5.528  10.735  0.2653  0.0196  0.6608
  664TIP3    H126187   3.777   5.528  10.676  0.5244  0.0614  0.3238
  664TIP3    H226188   3.858   5.619  10.766  0.6353  0.2044  0.0817
  665TIP3   OH226189   1.703   3.317  10.972  0.2178 -0.4193 -0.0041
  665TIP3    H126190   1.629   3.333  10.914 -0.2477 -0.6171  0.5382
  665TIP3    H226191   1.778   3.306  10.912 -0.1037  0.1991 -0.5322
  666TIP3   OH226192   6.297   5.453  11.438 -0.0223  0.0856 -0.3669
  666TIP3    H126193   6.225   5.465  11.376  0.1639 -1.3228 -0.8861
  666TIP3    H226194   6.353   5.386  11.398  0.2286 -0.6988  1.2091
  667TIP3   OH226195   6.284   3.502  11.730 -0.7058 -0.4238 -0.0955
  667TIP3    H126196   6.286   3.407  11.715  0.1673 -0.2869 -0.9374
  667TIP3    H226197   6.364   3.520  11.779 -0.7855 -0.0897 -0.0868
  668TIP3   OH226198   0.133   4.664   8.541  0.1050 -0.0154  0.3873
  668TIP3    H126199   0.055   4.686   8.490  0.4491 -0.3568 -0.3013
  668TIP3    H226200   0.175   4.594   8.492  0.1939 -0.6940  1.4079
  669TIP3   OH226201   0.399   3.751  10.267 -0.4908 -0.3877  0.2293
  669TIP3    H126202   0.364   3.756  10.356  1.1395 -0.0802  0.8825
  669TIP3    H226203   0.406   3.657  10.249 -1.0476 -0.4516  0.3110
  670TIP3   OH226204   0.683   3.673  10.277  0.3083  0.2236 -0.0729
  670TIP3    H126205   0.608   3.656  10.334 -0.0597 -0.4010 -0.7303
  670TIP3    H226206   0.655   3.645  10.191  0.7248  1.5113 -0.6618
  671TIP3   OH226207   1.571   1.336  11.271  0.3289  0.5210  0.5384
  671TIP3    H126208   1.547   1.369  11.184 -0.1390 -0.1601  0.4028
  671TIP3    H226209   1.562   1.241  11.264  1.3241  0.3815  1.0310
  672TIP3   OH226210   5.993   4.157  10.501 -0.3691 -0.0755 -0.0768
  672TIP3    H126211   5.982   4.117  10.587 -2.3448 -0.3933 -0.4278
  672TIP3    H226212   5.915   4.213  10.491  0.4016  0.8432 -1.1995
  673TIP3   OH226213   6.179   2.717   9.284 -0.2640 -0.3953  0.0937
  673TIP3    H126214   6.124   2.793   9.267 -0.8539 -0.8650 -0.1527
  673TIP3    H226215   6.117   2.645   9.296  0.2450 -0.6717  1.2249
  674TIP3   OH226216   5.900   3.612  10.284  0.1845  0.2543  0.3357
  674TIP3    H126217   5.871   3.628  10.374 -0.7873  2.6471 -0.3244
  674TIP3    H226218   5.991   3.641  10.282  0.7456 -1.3633  0.8993
  675TIP3   OH226219   0.037   2.721  11.177 -0.4561  0.3369  0.2163
  675TIP3    H126220  -0.020   2.794  11.200 -0.8144  0.5775 -1.3320
  675TIP3    H226221  -0.013   2.670  11.113 -0.1301 -1.1637  1.1115
  676TIP3   OH226222   5.870   2.961   9.596 -0.4218  0.0727  0.3179
  676TIP3    H126223   5.863   2.870   9.623  0.2761 -0.0161  0.2069
  676TIP3    H226224   5.961   2.986   9.616 -1.0919  1.3213  2.1610
  677TIP3   OH226225   5.610   0.868   9.541 -0.3307 -0.0900 -0.4045
  677TIP3    H126226   5.523   0.829   9.531 -0.1187 -0.9850  1.0695
  677TIP3    H226227   5.593   0.962   9.548 -1.0765 -0.1475 -1.1380
  678TIP3   OH226228   4.997   5.399   9.454  0.1158  0.2528 -0.1292
  678TIP3    H126229   4.941   5.372   9.528 -0.7398 -0.7229 -1.0935
  678TIP3    H226230   4.943   5.461   9.406  0.1507 -0.1126 -0.6475
  679TIP3   OH226231   0.288   2.306  11.019  0.1699 -0.3847  0.2275
  679TIP3    H126232   0.304   2.263  10.935 -1.1767  2.1451 -1.4382
  679TIP3    H226233   0.295   2.399  11.000  0.9508  0.2835  3.2233
  680TIP3   OH226234   5.732   1.934  11.850  0.5737  0.2648  0.2446
  680TIP3    H126235   5.741   1.842  11.824 -0.4123 -0.0891  1.0690
  680TIP3    H226236   5.739   1.983  11.768 -0.1516 -0.6504 -0.3819
  681TIP3   OH226237   6.706   2.828  10.789  0.4482 -0.4498  0.5476
  681TIP3    H126238   6.693   2.748  10.840 -1.2784  0.3201  1.4048
  681TIP3    H226239   6.617   2.858  10.769  1.0718  0.8337 -0.4387
  682TIP3   OH226240   3.207   2.895  11.787  0.0548  0.5339 -0.3529
  682TIP3    H126241   3.201   2.823  11.724 -1.8426  0.7168 -0.4441
  682TIP3    H226242   3.297   2.890  11.821  0.8273 -0.1699 -2.3293
  683TIP3   OH226243   5.766   6.086   9.616  0.7092  0.1204 -0.4496
  683TIP3    H126244   5.723   6.101   9.700 -0.1698 -0.5699 -0.7651
  683TIP3    H226245   5.846   6.039   9.638  0.8749  0.6352  0.0696
  684TIP3   OH226246   0.691   5.250  11.135  0.3702  0.5904 -0.2245
  684TIP3    H126247   0.621   5.200  11.093 -0.3897  0.4337  1.1958
  684TIP3    H226248   0.654   5.337  11.149 -0.6042 -0.2129  2.9792
  685TIP3   OH226249   1.245   6.756   9.222 -0.0634  0.6476  0.3116
  685TIP3    H126250   1.194   6.749   9.141  0.6202  0.6124 -0.1227
  685TIP3    H226251   1.297   6.836   9.211  2.1224 -0.7809 -0.5218
  686TIP3   OH226252   4.673   3.526  11.613 -0.3295 -0.0629 -0.2927
  686TIP3    H126253   4.743   3.545  11.550  1.2015 -0.7129  1.1337
  686TIP3    H226254   4.596   3.508  11.560  1.1684 -1.6967 -2.0398
  687TIP3   OH226255   3.262   1.798  10.011  0.1456  0.7206 -0.1510
  687TIP3    H126256   3.239   1.706  10.025  0.8643  0.7940  1.8885
  687TIP3    H226257   3.303   1.800   9.925  0.9627 -1.0527  0.1488
  688TIP3   OH226258   1.577   5.091   9.038 -0.1961  0.1059 -0.3087
  688TIP3    H126259   1.672   5.105   9.037  0.1560 -1.9706 -0.7907
  688TIP3    H226260   1.543   5.160   8.981  0.8613  1.6738  0.8799
  689TIP3   OH226261   6.383   3.324   8.404  0.0973  0.5863  0.2315
  689TIP3    H126262   6.397   3.262   8.333  0.5724  1.7368 -0.7111
  689TIP3    H226263   6.288   3.330   8.413  0.0394  0.4113 -0.2871
  690TIP3   OH226264   0.941   5.547  10.577 -0.4779  0.0639 -0.2654
  690TIP3    H126265   0.992   5.531  10.656 -0.4792  1.1170 -0.0314
  690TIP3    H226266   0.993   5.611  10.528 -0.5579 -0.4507 -1.0436
  691TIP3   OH226267   0.846   0.343  11.645  0.1734  0.1462 -0.9134
  691TIP3    H126268   0.854   0.293  11.726 -1.0182  0.9585 -0.2556
  691TIP3    H226269   0.912   0.412  11.652 -0.7621  0.9866 -0.0102
  692TIP3   OH226270   5.762   4.313   8.335  0.6229  0.2804 -0.5821
  692TIP3    H126271   5.685   4.359   8.300 -0.3851 -0.4689  0.5723
  692TIP3    H226272   5.787   4.253   8.265 -2.2170 -2.2250  0.3226
  693TIP3   OH226273   5.141   0.747   8.550  0.1177  0.3705  0.5486
  693TIP3    H126274   5.130   0.751   8.645 -1.7824 -0.2776  0.4142
  693TIP3    H226275   5.056   0.716   8.518  1.1240 -0.6844 -1.2652
  694TIP3   OH226276   1.889   3.910  11.539  0.0716 -0.1494 -0.7098
  694TIP3    H126277   1.798   3.909  11.569 -0.8993  0.7174 -3.3350
  694TIP3    H226278   1.918   4.000  11.554  1.1937 -0.8405  1.7771
  695TIP3   OH226279   1.801   1.612  10.360  0.0816 -0.1298  0.0678
  695TIP3    H126280   1.757   1.538  10.402 -0.8905  0.5010  0.1955
  695TIP3    H226281   1.880   1.626  10.412  2.0060 -3.0306 -1.7624
  696TIP3   OH226282   5.207   0.930  10.590  0.3475  0.0394  0.4672
  696TIP3    H126283   5.159   0.888  10.519  1.2843  0.6686 -0.5574
  696TIP3    H226284   5.167   1.016  10.600  0.8706  0.3404  0.0070
  697TIP3   OH226285   1.060   0.021  11.662 -0.0756  0.3692  0.2528
  697TIP3    H126286   1.058   0.084  11.734 -1.6924 -0.9442  1.4444
  697TIP3    H226287   1.152   0.011  11.640  0.2933  2.2369  0.8249
  698TIP3   OH226288   3.873   0.868  11.630  0.3823 -0.2723  0.3348
  698TIP3    H126289   3.850   0.786  11.674  0.7702 -1.0111 -0.7891
  698TIP3    H226290   3.791   0.897  11.590  0.6321 -1.0867 -0.7926
  699TIP3   OH226291   1.893   5.839  10.128 -0.0989 -0.6530 -0.0876
  699TIP3    H126292   1.833   5.912  10.116  0.2887 -0.0858  1.2106
  699TIP3    H226293   1.972   5.878  10.166 -0.1647 -1.8171  1.3567
  700TIP3   OH226294   4.773   0.242   8.989  0.1756  0.3368  0.4487
  700TIP3    H126295   4.817   0.158   8.999  1.3168  1.1544  3.3972
  700TIP3    H226296   4.708   0.243   9.060 -1.4072  1.0988 -0.9186
  701TIP3   OH226297   5.155   0.497   8.909 -0.0919  0.0543  0.1216
  701TIP3    H126298   5.178   0.572   8.855 -0.9413 -0.2301 -0.6611
  701TIP3    H226299   5.127   0.430   8.847 -1.0343 -0.2980  0.8948
  702TIP3   OH226300   2.537   4.551  11.741 -0.1876  1.0841  0.1026
  702TIP3    H126301   2.622   4.547  11.785  0.5508  0.8933 -1.2718
  702TIP3    H226302   2.544   4.624  11.680 -0.0341 -0.4715 -1.8644
  703TIP3   OH226303   0.500   4.134  10.167  0.1474 -0.4260 -0.3562
  703TIP3    H126304   0.425   4.132  10.226 -0.1466 -1.3512 -0.7429
  703TIP3    H226305   0.566   4.080  10.211  1.1382  1.4883  0.6535
  704TIP3   OH226306   6.691   2.861  10.243  0.3533  0.4059  0.6427
  704TIP3    H126307   6.649   2.793  10.295 -0.0350  0.2521  0.1267
  704TIP3    H226308   6.685   2.831  10.153 -0.0095  1.2228  0.3808
  705TIP3   OH226309   2.428   2.323  10.262  0.2493 -0.1747 -0.4512
  705TIP3    H126310   2.507   2.372  10.240  1.4341 -1.6366  0.3281
  705TIP3    H226311   2.398   2.363  10.344  1.4151 -0.9299  0.3783
  706TIP3   OH226312   0.864   2.629   9.197 -0.0672 -0.1432  0.3975
  706TIP3    H126313   0.792   2.683   9.163 -1.7629 -2.0659  0.7615
  706TIP3    H226314   0.880   2.565   9.128  0.3927 -0.5582  0.8846
  707TIP3   OH226315   4.133   4.812   9.334 -0.0126 -0.1620  0.2391
  707TIP3    H126316   4.066   4.880   9.345 -1.1377 -1.3335  0.9335
  707TIP3    H226317   4.083   4.732   9.321  1.2770 -0.7540 -1.5126
  708TIP3   OH226318   6.335   2.366  10.663 -0.3649 -0.6260 -0.1473
  708TIP3    H126319   6.330   2.294  10.726 -1.3041 -1.5781 -1.2462
  708TIP3    H226320   6.333   2.445  10.717  2.7097 -1.3433  1.2395
  709TIP3   OH226321   1.706   0.093  10.075  0.8163  0.2452 -0.1435
  709TIP3    H126322   1.748   0.036  10.139  0.5643 -0.2690 -0.4287
  709TIP3    H226323   1.777   0.146  10.039  1.3014 -0.8557 -0.8725
  710TIP3   OH226324   4.132   3.501  12.053  1.3885 -0.6019 -0.3994
  710TIP3    H126325   4.151   3.419  12.098 -0.4240 -0.3916  0.8661
  710TIP3    H226326   4.169   3.569  12.109  0.6259 -0.4385 -0.0732
  711TIP3   OH226327   5.881   5.409  10.248  0.6822 -0.1832  0.5780
  711TIP3    H126328   5.954   5.431  10.191 -0.1064 -0.7077 -0.6618
  711TIP3    H226329   5.922   5.391  10.333  1.9613 -0.2639 -0.0336
  712TIP3   OH226330   6.332   6.670  11.762  0.2946 -0.1207 -0.2455
  712TIP3    H126331   6.282   6.749  11.778 -0.1492 -0.2418 -0.9756
  712TIP3    H226332   6.423   6.700  11.754  0.0339  0.4509 -1.3662
  713TIP3   OH226333   0.224   3.620   9.465 -0.4128 -0.6511 -1.0589
  713TIP3    H126334   0.253   3.674   9.539 -0.6179 -1.0617 -0.6684
  713TIP3    H226335   0.210   3.682   9.394  1.2049 -0.4107 -1.2077
  714TIP3   OH226336   0.459   0.853  10.107  0.6067 -0.6047 -0.2528
  714TIP3    H126337   0.404   0.918  10.151 -2.0209 -1.9960 -1.2824
  714TIP3    H226338   0.466   0.885  10.017  1.6207 -0.4037 -0.1168
  715TIP3   OH226339   3.420   3.945  11.672  0.0284  0.0573  0.1222
  715TIP3    H126340   3.465   4.028  11.660  2.4844 -1.0894  0.7233
  715TIP3    H226341   3.400   3.942  11.766  0.4403 -0.2340  0.2058
  716TIP3   OH226342   2.857   5.439  10.845 -0.5878  0.2168 -0.2941
  716TIP3    H126343   2.910   5.468  10.771 -2.1135  0.4914 -1.3188
  716TIP3    H226344   2.869   5.344  10.847  0.9342  0.3920  0.3112
  717TIP3   OH226345   6.369   1.013   8.401  0.6227 -0.4096 -0.0670
  717TIP3    H126346   6.414   1.084   8.357  1.3683 -0.2491  0.9248
  717TIP3    H226347   6.420   0.935   8.381 -0.4691 -0.8025 -1.5688
  718TIP3   OH226348   6.728   1.949  11.983  0.3567  0.0435 -0.0390
  718TIP3    H126349   6.750   1.917  12.071 -0.0719  2.5076  1.0593
  718TIP3    H226350   6.726   2.044  11.993  1.8258  0.4920 -3.1181
  719TIP3   OH226351   3.046   4.162  11.980 -0.5316 -0.2305 -0.1724
  719TIP3    H126352   3.034   4.149  11.886  0.4153  0.4475 -0.4043
  719TIP3    H226353   3.118   4.103  12.003 -1.5414 -1.2767  0.3760
  720TIP3   OH226354   6.468   1.231   9.150 -0.0759 -0.0470 -0.0056
  720TIP3    H126355   6.418   1.243   9.231  0.3559  0.6617  0.1599
  720TIP3    H226356   6.471   1.136   9.138 -3.1552 -0.1115 -1.0880
  721TIP3   OH226357   1.225   3.028  11.373 -0.5703  0.3064 -0.2041
  721TIP3    H126358   1.138   3.068  11.370 -0.0175  1.5200 -0.6744
  721TIP3    H226359   1.243   3.019  11.467 -1.2226 -0.0200 -0.1020
  722TIP3   OH226360   2.025   3.886   9.831  0.0574  0.3657  0.2241
  722TIP3    H126361   2.042   3.886   9.737  1.6452  1.3427  0.4685
  722TIP3    H226362   2.041   3.976   9.859 -1.8662  0.4460  1.2168
  723TIP3   OH226363   4.673   5.729   9.822 -0.4033  0.3447  0.8553
  723TIP3    H126364   4.661   5.734   9.728 -0.7770  1.5278  0.9455
  723TIP3    H226365   4.629   5.649   9.849 -1.0753  0.4726  0.1407
  724TIP3   OH226366   1.614   6.287   8.942 -0.2990  0.0893  0.3130
  724TIP3    H126367   1.535   6.274   8.995 -0.4830  0.3427  0.1065
  724TIP3    H226368   1.587   6.265   8.853 -0.5413  1.5252  0.0005
  725TIP3   OH226369   5.381   0.719  10.987 -0.2151 -0.4871 -0.1076
  725TIP3    H126370   5.292   0.728  11.021  0.3220 -0.0350  1.2262
  725TIP3    H226371   5.374   0.743  10.894 -1.2837  0.6438  0.2466
  726TIP3   OH226372   5.148   4.750  10.125 -0.2583 -0.1824 -0.4536
  726TIP3    H126373   5.220   4.804  10.159 -0.0772 -0.6728 -0.0457
  726TIP3    H226374   5.157   4.756  10.030  0.2278 -0.1042 -0.4067
  727TIP3   OH226375   6.135   2.858  10.683 -0.0818 -0.0541  0.0367
  727TIP3    H126376   6.072   2.888  10.617  1.2164  1.1960 -0.6818
  727TIP3    H226377   6.157   2.769  10.655 -1.2700 -0.3898  0.1188
  728TIP3   OH226378   4.070   4.288   9.733 -0.0342  0.2127 -0.0628
  728TIP3    H126379   4.135   4.222   9.708 -1.2871 -0.9430 -0.3960
  728TIP3    H226380   4.000   4.278   9.668 -0.9848  0.7456  0.8551
  729TIP3   OH226381   6.209   0.657   9.954  0.1433 -0.2197  0.4654
  729TIP3    H126382   6.241   0.659   9.864 -0.8089  0.2750  0.1326
  729TIP3    H226383   6.140   0.723   9.957 -1.7535 -2.1217  0.8246
  730TIP3   OH226384   4.469   1.872  11.354  0.1098 -0.0547 -0.0723
  730TIP3    H126385   4.472   1.808  11.283  1.7262  1.9305 -1.9547
  730TIP3    H226386   4.541   1.932  11.335  1.0885  0.2020  3.7058
  731TIP3   OH226387   3.525   1.547  11.183 -0.4426  0.3489  0.0114
  731TIP3    H126388   3.614   1.525  11.209 -0.4769 -0.2299 -0.3575
  731TIP3    H226389   3.472   1.473  11.212 -0.7694  0.5744 -0.0006
  732TIP3   OH226390   4.701   2.260  12.194 -0.3316  0.6934 -0.5339
  732TIP3    H126391   4.735   2.241  12.282  1.8289 -0.5298 -1.5467
  732TIP3    H226392   4.611   2.228  12.195 -0.1533  0.1480  1.0466
  733TIP3   OH226393   3.404   3.529  10.551  0.9816 -0.0977  0.0206
  733TIP3    H126394   3.471   3.597  10.542  2.1486 -1.1467  0.3745
  733TIP3    H226395   3.400   3.488  10.465  0.6604  0.0875 -0.0513
  734TIP3   OH226396   6.694   4.409  10.192 -0.5903 -0.2417 -0.2794
  734TIP3    H126397   6.623   4.398  10.129 -1.2094  0.8846  0.1973
  734TIP3    H226398   6.772   4.377  10.146 -0.9615  0.8644 -1.7433
  735TIP3   OH226399   6.237   4.404   9.974  0.1799  0.4607  0.0663
  735TIP3    H126400   6.164   4.467   9.974  0.3433  0.6597 -0.7672
  735TIP3    H226401   6.239   4.370   9.885 -0.5782 -1.5335  0.7676
  736TIP3   OH226402   5.716   0.291   8.345  0.2696 -0.2148  0.3811
  736TIP3    H126403   5.731   0.262   8.255  0.1899 -0.8009  0.5549
  736TIP3    H226404   5.744   0.217   8.399 -1.8660 -0.7858  0.7812
  737TIP3   OH226405   0.904   1.871  10.330 -0.2107  0.1701 -0.6524
  737TIP3    H126406   0.855   1.793  10.305 -0.2512  0.3778 -1.2367
  737TIP3    H226407   0.903   1.926  10.252  1.6077 -0.1446 -0.9509
  738TIP3   OH226408   4.245   6.334  10.550  0.1181 -0.3669  0.3478
  738TIP3    H126409   4.311   6.269  10.574  0.3813 -0.5340 -0.7793
  738TIP3    H226410   4.237   6.390  10.627  1.4236 -0.4657  0.5726
  739TIP3   OH226411   6.261   2.526   9.929 -0.0026  0.0073 -0.2103
  739TIP3    H126412   6.286   2.617   9.918  0.5238 -0.1555 -0.4095
  739TIP3    H226413   6.337   2.485   9.970 -0.6132 -0.1356  0.8061
  740TIP3   OH226414   0.395   0.142  11.569 -0.0891 -0.1848  0.1362
  740TIP3    H126415   0.326   0.169  11.508 -0.4672  1.0327  1.0671
  740TIP3    H226416   0.463   0.104  11.513  0.3622  2.4917 -1.3048
  741TIP3   OH226417   5.602   0.629   9.270 -0.2187 -0.2140  0.3750
  741TIP3    H126418   5.549   0.608   9.194  0.0605 -0.0923  0.1442
  741TIP3    H226419   5.566   0.576   9.341 -1.0884  0.3807  0.3895
  742TIP3   OH226420   1.155   0.049  10.187 -0.0629 -0.0455 -0.6139
  742TIP3    H126421   1.133   0.111  10.257  2.5998 -0.6849  0.9653
  742TIP3    H226422   1.129   0.094  10.107  0.4031  2.5310  0.5495
  743TIP3   OH226423   3.510   2.334  10.684  0.0884  0.0152 -0.8389
  743TIP3    H126424   3.598   2.308  10.708  0.4061 -0.5218 -2.4646
  743TIP3    H226425   3.483   2.271  10.617 -0.5491  1.6371 -2.1855
  744TIP3   OH226426   5.223   3.102  11.818 -0.0765  0.1304 -0.6636
  744TIP3    H126427   5.306   3.061  11.797  0.2802 -0.0827  1.0058
  744TIP3    H226428   5.181   3.118  11.734  1.3688 -0.3449 -1.4915
  745TIP3   OH226429   2.272   1.045   9.316 -0.4676 -0.0255 -0.3004
  745TIP3    H126430   2.186   1.051   9.358 -0.2623  1.4067 -0.0174
  745TIP3    H226431   2.256   1.002   9.232 -1.3301 -0.4569  0.0800
  746TIP3   OH226432   0.020   1.788  10.224  0.4421 -0.2703  0.0517
  746TIP3    H126433   0.040   1.718  10.162  1.5286  1.3216 -1.4626
  746TIP3    H226434  -0.076   1.789  10.228  0.3037 -0.0411 -2.0873
  747TIP3   OH226435   3.104   2.967   9.326  0.2936 -0.5584  0.0944
  747TIP3    H126436   3.089   3.007   9.241  0.2032 -0.4800  0.1456
  747TIP3    H226437   3.017   2.966   9.367  0.2287 -1.1296 -0.0441
  748TIP3   OH226438   5.380   0.602   9.677 -0.2450 -0.6952  0.0595
  748TIP3    H126439   5.439   0.556   9.619  0.5866  0.1558  0.2070
  748TIP3    H226440   5.345   0.674   9.624 -1.1436 -1.1804 -0.0216
  749TIP3   OH226441   2.570   4.489   9.188 -0.3370  0.0135  0.3336
  749TIP3    H126442   2.511   4.558   9.159 -1.5887 -1.6785 -1.4481
  749TIP3    H226443   2.612   4.458   9.108 -0.1852 -1.6091  1.0028
  750TIP3   OH226444   2.256   0.436  10.367  0.3041  0.1788  0.1539
  750TIP3    H126445   2.313   0.369  10.404  0.1716 -0.2802 -0.4558
  750TIP3    H226446   2.265   0.510  10.427  2.1782  0.4191 -0.3482
  751TIP3   OH226447   6.030   4.357  10.869 -0.0859 -0.3319  0.0334
  751TIP3    H126448   5.994   4.282  10.821 -0.2985 -1.1959  1.4975
  751TIP3    H226449   6.087   4.401  10.805 -0.4682 -1.3494 -1.0452
  752TIP3   OH226450   5.129   5.063   9.562 -0.1369 -0.2311  0.0533
  752TIP3    H126451   5.206   5.116   9.582 -0.9628  0.7686  0.7164
  752TIP3    H226452   5.059   5.103   9.614 -1.5236  0.0425 -1.9060
  753TIP3   OH226453   3.954   2.248   9.001  0.0939 -0.0119 -0.8339
  753TIP3    H126454   3.940   2.154   9.004  1.4414 -0.2252 -0.8565
  753TIP3    H226455   3.918   2.280   9.084  0.8739 -0.7331 -0.2017
  754TIP3   OH226456   4.089   2.297  10.844 -0.4912 -0.2649 -0.1932
  754TIP3    H126457   4.081   2.202  10.842  0.1040 -0.3490  0.6568
  754TIP3    H226458   3.999   2.329  10.854 -0.5215 -0.8756  2.1884
  755TIP3   OH226459   0.392   6.226  10.347  0.0788 -0.1193 -0.0116
  755TIP3    H126460   0.368   6.286  10.417  0.4992  1.4768 -1.1674
  755TIP3    H226461   0.411   6.283  10.272  0.6701 -1.6934 -1.1192
  756TIP3   OH226462   3.316   3.217   9.751 -0.1880  0.9095 -0.3101
  756TIP3    H126463   3.234   3.191   9.793  0.0277  1.3244  0.3795
  756TIP3    H226464   3.356   3.135   9.723 -1.4286  0.7542 -1.8227
  757TIP3   OH226465   4.090   3.212  10.507 -0.1230  0.5539  0.1691
  757TIP3    H126466   4.060   3.192  10.596 -0.2754 -1.3329 -0.2560
  757TIP3    H226467   4.029   3.278  10.475 -1.2084 -0.0833  0.8501
  758TIP3   OH226468   3.406   4.554  10.080  0.1443 -0.3506 -0.0131
  758TIP3    H126469   3.351   4.561  10.002 -1.5653  0.2189  1.1762
  758TIP3    H226470   3.344   4.554  10.153  1.6918 -0.7551  1.3657
  759TIP3   OH226471   3.859   4.418   9.301  0.4877 -0.0387 -0.3254
  759TIP3    H126472   3.843   4.324   9.302 -0.7535  0.1303 -1.2082
  759TIP3    H226473   3.907   4.434   9.219 -1.6216  0.3667 -1.5756
  760TIP3   OH226474   1.618   3.280  10.102 -0.1298 -0.1129  0.6836
  760TIP3    H126475   1.694   3.255  10.051  0.0511 -0.4558  1.1202
  760TIP3    H226476   1.585   3.359  10.059 -0.0179 -0.4331  0.0044
  761TIP3   OH226477   4.147   5.521  11.095 -0.4662 -0.5888  0.3086
  761TIP3    H126478   4.191   5.448  11.140 -2.1577 -0.8406  1.6667
  761TIP3    H226479   4.142   5.590  11.161 -0.2662  0.2028 -0.4883
  762TIP3   OH226480   0.901   1.535  12.163 -0.0135 -0.2186  0.4127
  762TIP3    H126481   0.922   1.572  12.248  0.1303  1.0676 -0.1543
  762TIP3    H226482   0.830   1.590  12.129 -0.4119 -1.0136 -0.0961
  763TIP3   OH226483   6.624   1.610   8.749  0.2122  0.4230  0.3336
  763TIP3    H126484   6.646   1.543   8.813  0.5960  0.4577  0.2425
  763TIP3    H226485   6.566   1.566   8.686  0.1926  0.2702  0.4589
  764TIP3   OH226486   2.510   2.012   9.210 -0.2299 -0.4254 -0.0536
  764TIP3    H126487   2.495   2.045   9.122 -0.2616 -2.5566 -0.9221
  764TIP3    H226488   2.452   2.064   9.266  1.1698  2.2556 -0.9334
  765TIP3   OH226489   2.222   4.693  10.687 -0.5487 -0.1487  0.2562
  765TIP3    H126490   2.243   4.600  10.686 -1.0457 -0.2846  1.0263
  765TIP3    H226491   2.133   4.698  10.651 -0.4749  0.0425  0.0968
  766TIP3   OH226492   4.677   1.782  10.663  0.5112  0.2150  0.3961
  766TIP3    H126493   4.625   1.743  10.592 -0.1415  0.0935  0.9253
  766TIP3    H226494   4.731   1.848  10.620 -0.0735  0.3331 -0.1804
  767TIP3   OH226495   5.312   5.612  10.552 -0.1493 -0.9358 -0.1640
  767TIP3    H126496   5.219   5.601  10.534 -0.2072 -0.3478 -0.2507
  767TIP3    H226497   5.317   5.690  10.607  0.1387 -1.9652  1.3555
  768TIP3   OH226498   2.393   0.310  10.958 -0.1109  0.4522  0.5616
  768TIP3    H126499   2.398   0.372  10.885 -1.1706  0.7479  0.7283
  768TIP3    H226500   2.333   0.242  10.927  1.4842 -0.8317  0.1531
  769TIP3   OH226501   0.035   1.005  11.364  1.0825  0.0025 -0.7524
  769TIP3    H126502   0.097   1.073  11.392  0.8057 -0.0585  0.0187
  769TIP3    H226503  -0.045   1.053  11.342  1.6750  0.1957 -2.7112
  770TIP3   OH226504   2.788   5.457  10.429  0.3925  0.4317 -0.1680
  770TIP3    H126505   2.791   5.446  10.334 -0.2674  0.5747 -0.2102
  770TIP3    H226506   2.744   5.541  10.443 -0.2756  0.0233  0.2704
  771TIP3   OH226507   0.312   6.008   9.061 -0.7817 -0.3790 -0.0675
  771TIP3    H126508   0.286   5.936   9.119  0.7813 -0.3336  0.7676
  771TIP3    H226509   0.363   5.967   8.992  2.1209  0.0434  1.6596
  772TIP3   OH226510   1.145   0.290  10.740  0.3238  0.2618  0.4458
  772TIP3    H126511   1.050   0.282  10.733  0.3359  0.5777 -0.1144
  772TIP3    H226512   1.175   0.310  10.651  1.0274 -0.8574  0.4108
  773TIP3   OH226513   3.414   0.198  10.290 -0.5529 -0.3801  0.0246
  773TIP3    H126514   3.390   0.154  10.372  0.8899 -1.6386 -0.1795
  773TIP3    H226515   3.335   0.194  10.236 -1.2019 -0.4766  0.9585
  774TIP3   OH226516   4.925   0.035   9.007 -0.5678  1.1319  0.1630
  774TIP3    H126517   4.984  -0.004   8.943 -1.0082  0.2722  0.2551
  774TIP3    H226518   4.929  -0.025   9.082 -2.2885  0.5096 -0.2066
  775TIP3   OH226519   0.438   3.776  11.328 -0.0563 -0.0990  0.0718
  775TIP3    H126520   0.356   3.814  11.298 -1.4160 -0.7124  2.6453
  775TIP3    H226521   0.421   3.681  11.330  0.8750 -0.2737  0.1627
  776TIP3   OH226522   1.349   0.592   8.394  0.0750 -0.3319 -0.2589
  776TIP3    H126523   1.343   0.663   8.457 -0.7800  0.3468 -1.0835
  776TIP3    H226524   1.402   0.626   8.322  0.4608 -0.8579 -0.2350
  777TIP3   OH226525   3.770   5.256  11.230 -0.4940 -0.3684  0.3981
  777TIP3    H126526   3.677   5.263  11.206 -0.5548 -1.2944  0.3240
  777TIP3    H226527   3.815   5.315  11.169 -0.9002 -0.9061 -0.4449
  778TIP3   OH226528   2.032   1.949  11.852  0.2637 -0.1243 -0.5082
  778TIP3    H126529   2.122   1.976  11.833  0.6469  0.5945  1.9796
  778TIP3    H226530   1.980   2.028  11.839  0.7166  0.7523  2.2928
  779TIP3   OH226531   6.669   2.144  10.695 -0.3786  0.3927  0.1805
  779TIP3    H126532   6.691   2.101  10.612 -0.4101 -0.0843  0.4191
  779TIP3    H226533   6.736   2.113  10.756 -1.2935 -0.5171  0.7368
  780TIP3   OH226534   5.768   4.326  11.333  0.4860 -0.3676 -0.3075
  780TIP3    H126535   5.788   4.350  11.242  0.6525  0.6808 -0.0074
  780TIP3    H226536   5.757   4.231  11.330 -0.5934 -0.2474 -1.6360
  781TIP3   OH226537   0.557   5.086   8.202  0.2734 -0.1979  0.5243
  781TIP3    H126538   0.465   5.109   8.186  0.5387  0.9091  0.5467
  781TIP3    H226539   0.563   4.993   8.176 -1.0202 -0.5097  1.2636
  782TIP3   OH226540   6.727   5.962  11.067 -0.3159  0.1966  0.1225
  782TIP3    H126541   6.669   5.911  11.124 -0.2751 -0.4308 -0.3789
  782TIP3    H226542   6.807   5.973  11.118  0.1088 -1.2481 -0.1694
  783TIP3   OH226543   2.633   3.674   9.360  0.3380 -0.5070 -0.0290
  783TIP3    H126544   2.629   3.619   9.282  0.4126 -0.8868  0.2296
  783TIP3    H226545   2.572   3.632   9.422  0.5306 -0.4004  0.2358
  784TIP3   OH226546   4.297   6.449  11.843  0.0249 -0.1476  0.2135
  784TIP3    H126547   4.261   6.363  11.819  0.3599 -0.1059 -0.4877
  784TIP3    H226548   4.252   6.511  11.786  1.1222 -0.0860 -0.6337
  785TIP3   OH226549   1.641   6.464  11.524 -0.5658  0.3184  0.1540
  785TIP3    H126550   1.663   6.493  11.435  1.4894  1.0456  0.8397
  785TIP3    H226551   1.602   6.541  11.565 -1.0928  0.1213  0.0268
  786TIP3   OH226552   3.978   2.668  10.959  0.2718 -0.2098  0.1290
  786TIP3    H126553   3.939   2.733  10.901  0.0035 -0.2708  0.2428
  786TIP3    H226554   4.015   2.719  11.031 -0.9793 -0.2628  0.8282
  787TIP3   OH226555   0.275   6.685  10.672  0.0399 -0.0130 -0.7492
  787TIP3    H126556   0.286   6.613  10.733  1.2749  0.5820 -0.2250
  787TIP3    H226557   0.250   6.759  10.727  2.0394  0.7538 -0.7813
  788TIP3   OH226558   3.894   6.048  10.204 -0.2658  0.0080  0.6550
  788TIP3    H126559   3.980   6.044  10.246  0.6501  1.3575 -0.9665
  788TIP3    H226560   3.835   6.076  10.274  1.2874  2.7909  1.0088
  789TIP3   OH226561   4.357   6.160  10.716  0.4300 -0.3154  0.5729
  789TIP3    H126562   4.394   6.121  10.637 -0.8620 -0.3983 -0.0184
  789TIP3    H226563   4.432   6.197  10.762  1.1019  0.7571 -1.2691
  790TIP3   OH226564   3.201   3.924  10.335 -0.4192  0.0608  0.5323
  790TIP3    H126565   3.191   3.976  10.256  0.3921 -1.2649 -0.4844
  790TIP3    H226566   3.133   3.858  10.330 -0.9773  0.5403  1.4470
  791TIP3   OH226567   5.418   5.969  10.488 -0.1482  0.0194  0.4795
  791TIP3    H126568   5.364   6.026  10.433  1.1298  1.1044  0.2869
  791TIP3    H226569   5.450   5.902  10.427  1.3399  1.2707 -0.2172
  792TIP3   OH226570   0.652   0.837  10.588 -0.5237 -0.2262  0.3930
  792TIP3    H126571   0.575   0.857  10.535 -0.2376 -0.5757 -0.1645
  792TIP3    H226572   0.673   0.919  10.632 -1.7666 -0.3586  1.2862
  793TIP3   OH226573   5.658   5.008  11.813  0.1100  0.1181 -0.5301
  793TIP3    H126574   5.603   4.929  11.810  0.8581 -0.6054  1.9863
  793TIP3    H226575   5.748   4.976  11.812  0.4336  0.7953  1.3590
  794TIP3   OH226576   4.478   2.064   9.535 -0.3341  0.0255 -0.1566
  794TIP3    H126577   4.480   2.038   9.443 -1.0604 -0.4080 -0.0601
  794TIP3    H226578   4.441   2.152   9.534 -0.1865  0.0865 -0.2908
  795TIP3   OH226579   6.103   5.459  11.249  0.8439  0.2226 -0.3109
  795TIP3    H126580   6.068   5.544  11.223 -0.2413  0.2845  1.2073
  795TIP3    H226581   6.075   5.399  11.180  2.0358  1.1498 -1.6450
  796TIP3   OH226582   4.025   1.754   8.895  0.2831 -0.6490  0.4224
  796TIP3    H126583   4.059   1.674   8.936  0.8512 -0.7844 -0.3006
  796TIP3    H226584   4.058   1.751   8.806  1.7302  1.2226  0.8338
  797TIP3   OH226585   1.818   6.455   9.889 -0.1239 -0.7385 -0.4417
  797TIP3    H126586   1.862   6.540   9.887  1.2963 -1.4323 -2.3628
  797TIP3    H226587   1.887   6.392   9.869 -1.6968 -2.0375 -2.1521
  798TIP3   OH226588   1.731   0.675  11.804  0.0280  0.7050 -0.2683
  798TIP3    H126589   1.651   0.673  11.857  0.0428  1.7738 -0.1887
  798TIP3    H226590   1.786   0.742  11.845  0.9406  0.0461 -0.3716
  799TIP3   OH226591   2.235   3.049  10.126 -0.5145 -0.1752 -0.3792
  799TIP3    H126592   2.200   3.040  10.215 -0.2960  1.6265 -0.0796
  799TIP3    H226593   2.315   3.100  10.137 -1.4293  1.6420 -1.7791
  800TIP3   OH226594   4.128   1.753   9.196 -0.6198  0.2594  0.0347
  800TIP3    H126595   4.033   1.742   9.182 -0.8314  1.6681  0.2807
  800TIP3    H226596   4.145   1.707   9.278 -0.8646 -0.9851 -0.5797
  801TIP3   OH226597   3.997   2.036  10.834 -0.3728 -0.0641 -0.3983
  801TIP3    H126598   4.063   1.967  10.842 -1.1658 -0.8185 -0.2192
  801TIP3    H226599   3.950   2.015  10.753 -1.4710 -0.5121  0.3237
  802TIP3   OH226600   3.200   1.310  10.277  0.3465  0.7075  0.1794
  802TIP3    H126601   3.155   1.338  10.356  1.0049  1.6635  0.2335
  802TIP3    H226602   3.131   1.295  10.213 -0.0814  1.6336  0.4136
  803TIP3   OH226603   0.406   1.468   8.634 -0.0070 -0.0373  0.0157
  803TIP3    H126604   0.482   1.438   8.684 -1.7247 -2.3360  1.4506
  803TIP3    H226605   0.438   1.476   8.544  2.1046 -0.0731  0.7101
  804TIP3   OH226606   4.544   4.786   9.167  0.5834 -0.5722 -0.2426
  804TIP3    H126607   4.546   4.868   9.118  0.2494 -0.7431 -0.5404
  804TIP3    H226608   4.519   4.719   9.103  1.8493 -1.0784 -0.2449
  805TIP3   OH226609   4.151   2.961  10.879 -0.5855  0.0243 -0.4362
  805TIP3    H126610   4.241   2.937  10.854  0.1817  2.5225 -0.3895
  805TIP3    H226611   4.137   2.916  10.962  1.1768  0.5658  0.2256
  806TIP3   OH226612   5.658   3.464  11.540 -0.0803 -0.1003  0.0420
  806TIP3    H126613   5.707   3.392  11.580 -1.9527 -1.5806 -0.2019
  806TIP3    H226614   5.701   3.478  11.456  0.7879 -0.3666  0.4224
  807TIP3   OH226615   1.017   4.840  11.704  0.3317 -0.6701  0.2111
  807TIP3    H126616   1.069   4.896  11.762  0.1825 -0.5350  0.2152
  807TIP3    H226617   1.047   4.862  11.616  0.4762 -0.7913  0.2292
  808TIP3   OH226618   2.615   5.426  11.381 -0.3663  0.1196 -0.6918
  808TIP3    H126619   2.619   5.459  11.291  1.6117  1.1572 -0.2835
  808TIP3    H226620   2.705   5.400  11.401 -0.8134 -0.2729  0.9371
  809TIP3   OH226621   6.620   1.946   9.546 -0.3925  0.2420 -0.4482
  809TIP3    H126622   6.659   1.861   9.567 -0.5486  0.3691  0.3683
  809TIP3    H226623   6.546   1.954   9.606 -1.1828  0.3753 -1.4229
  810TIP3   OH226624   5.277   5.773  10.173  0.0945  0.0740 -0.8726
  810TIP3    H126625   5.214   5.706  10.201  0.8252  0.2323  1.2812
  810TIP3    H226626   5.241   5.855  10.206  0.2765  0.4755 -1.6646
  811TIP3   OH226627   0.698   3.474   8.953 -0.2854 -0.3396 -0.3689
  811TIP3    H126628   0.653   3.406   8.903 -0.9735  0.3936 -0.7768
  811TIP3    H226629   0.751   3.520   8.888  0.5713 -0.7879 -0.0068
  812TIP3   OH226630   1.959   6.202  10.272 -0.0951  0.6354 -0.2350
  812TIP3    H126631   1.908   6.134  10.317  0.2767  0.3838 -0.1810
  812TIP3    H226632   2.034   6.155  10.237  0.2193  1.0392 -0.1109
  813TIP3   OH226633   6.023   4.203  11.141  0.8260  0.2078  0.1733
  813TIP3    H126634   5.964   4.271  11.109 -0.7666 -0.8227  0.8315
  813TIP3    H226635   6.056   4.161  11.061 -0.4861 -0.1413 -0.2076
  814TIP3   OH226636   4.109   1.374   9.370 -0.0416  0.1945 -0.2011
  814TIP3    H126637   4.103   1.306   9.437  2.1718  0.5985  0.5098
  814TIP3    H226638   4.144   1.328   9.293  1.4915  0.4820  0.2912
  815TIP3   OH226639   4.150   2.913  11.491 -0.2608 -0.1989  0.9638
  815TIP3    H126640   4.173   3.004  11.472 -3.1779  0.5174  0.3146
  815TIP3    H226641   4.231   2.873  11.520  1.2109  2.5092  0.8866
  816TIP3   OH226642   3.093   3.151  12.144 -0.7072 -0.3571 -0.0778
  816TIP3    H126643   3.060   3.072  12.101 -0.6898 -1.6452  2.1213
  816TIP3    H226644   3.017   3.185  12.192 -0.1650 -0.3492  0.7935
  817TIP3   OH226645   2.679   1.255  10.718 -0.9464 -0.3204  0.4142
  817TIP3    H126646   2.698   1.218  10.804  0.1700  0.2908  0.4534
  817TIP3    H226647   2.661   1.179  10.663  1.1901 -0.9773  0.5166
  818TIP3   OH226648   1.852   6.760   8.747 -0.4469  0.2595 -0.4745
  818TIP3    H126649   1.897   6.789   8.826  0.1893  1.6212 -1.3031
  818TIP3    H226650   1.799   6.685   8.776 -0.1024  0.6157  1.1882
  819TIP3   OH226651   3.925   3.030   8.351  0.0715  0.1891 -0.5119
  819TIP3    H126652   3.871   2.967   8.303  0.0602 -0.3252  0.1684
  819TIP3    H226653   3.979   2.977   8.409  1.9911  0.6445 -1.8206
  820TIP3   OH226654   2.446   2.787   8.621  0.3596 -0.2045 -0.0938
  820TIP3    H126655   2.387   2.724   8.580  0.0704 -0.1648  0.2545
  820TIP3    H226656   2.496   2.736   8.685 -2.1785  0.4316  2.6200
  821TIP3   OH226657   1.648   2.913  11.096  0.1629  0.1284 -0.1268
  821TIP3    H126658   1.657   2.977  11.167  1.1910  0.3388 -0.4331
  821TIP3    H226659   1.737   2.881  11.082 -0.0948 -0.1993 -1.0538
  822TIP3   OH226660   2.598   0.332  11.529 -0.5784 -0.3971  0.2668
  822TIP3    H126661   2.521   0.340  11.474 -0.1068 -1.0596 -0.5135
  822TIP3    H226662   2.565   0.302  11.614 -1.2097 -0.3300  0.0439
  823TIP3   OH226663   5.822   4.850  10.028 -0.2688  0.1008 -0.1038
  823TIP3    H126664   5.826   4.892  10.114  1.2031 -0.9528  0.3803
  823TIP3    H226665   5.784   4.764  10.045 -0.1073 -0.0594 -0.5323
  824TIP3   OH226666   3.068   0.170  11.319  0.2461  0.2591 -0.7293
  824TIP3    H126667   3.079   0.235  11.250 -1.5030 -1.1661 -2.4567
  824TIP3    H226668   2.995   0.202  11.372 -0.2152  0.0244 -1.2158
  825TIP3   OH226669   1.172   4.049   9.189 -0.4425  0.2548  0.7911
  825TIP3    H126670   1.093   4.014   9.148 -1.8747  0.9997  2.7768
  825TIP3    H226671   1.157   4.143   9.194  1.1284  0.5685  0.1267
  826TIP3   OH226672   6.524   0.853  10.833 -0.4421 -0.0262  0.0791
  826TIP3    H126673   6.479   0.848  10.918 -0.1921 -1.1456  0.1512
  826TIP3    H226674   6.458   0.823  10.770 -0.4655  0.3434 -0.0791
  827TIP3   OH226675   4.974   6.524  11.043  0.1275  0.0010 -0.3506
  827TIP3    H126676   4.947   6.433  11.056 -0.2556  0.0377 -0.8592
  827TIP3    H226677   5.018   6.548  11.125  1.7583 -1.1564 -0.8404
  828TIP3   OH226678   6.085   3.018  11.645  0.1629 -0.0153  0.5174
  828TIP3    H126679   6.021   2.987  11.709  0.2797  0.3151  0.8019
  828TIP3    H226680   6.059   3.109  11.628  0.1632 -0.0855  0.1347
  829TIP3   OH226681   2.580   0.965  10.266 -0.4891 -0.2658 -0.7834
  829TIP3    H126682   2.614   0.895  10.211 -0.4657  1.1311 -2.6302
  829TIP3    H226683   2.489   0.940  10.283 -0.2533 -1.1231 -0.7301
  830TIP3   OH226684   3.471   4.464  11.929 -0.1729 -0.2659  0.2963
  830TIP3    H126685   3.380   4.488  11.947 -0.1415  0.8240 -0.8389
  830TIP3    H226686   3.507   4.541  11.886  0.9428 -1.1482 -0.3874
  831TIP3   OH226687   4.312   1.474   9.860 -0.1674 -0.0337  0.1881
  831TIP3    H126688   4.305   1.432   9.946 -0.0828  0.3518  0.3877
  831TIP3    H226689   4.291   1.405   9.797  0.1653 -0.4205  0.5001
  832TIP3   OH226690   4.045   1.599   9.878 -0.2954  0.0231  0.6371
  832TIP3    H126691   4.122   1.595   9.822 -0.4155  0.4498  0.4371
  832TIP3    H226692   4.066   1.664   9.944 -0.3634 -0.0895  0.7722
  833TIP3   OH226693   1.719   0.162  11.644 -0.4633  0.2092  0.0617
  833TIP3    H126694   1.803   0.182  11.603 -0.0776 -0.8332  0.2994
  833TIP3    H226695   1.658   0.155  11.570  0.2314 -1.6846 -0.3982
  834TIP3   OH226696   0.952   1.160   9.840  0.3078  0.1702 -0.8024
  834TIP3    H126697   0.887   1.168   9.770  1.4584 -1.2718 -2.0918
  834TIP3    H226698   1.005   1.085   9.815  1.0481 -0.1073  1.4162
  835TIP3   OH226699   2.531   4.845  11.292  0.5920  0.3323  0.1149
  835TIP3    H126700   2.493   4.927  11.260  0.2727 -0.1020 -0.6626
  835TIP3    H226701   2.585   4.814  11.219  2.1057  0.7080  1.0361
  836TIP3   OH226702   4.363   2.804  10.095  0.0621  0.6566 -0.2651
  836TIP3    H126703   4.298   2.783  10.028 -0.3599 -1.6670  0.7619
  836TIP3    H226704   4.312   2.842  10.167  0.1758  0.8952 -0.3085
  837TIP3   OH226705   1.539   1.405  10.212 -0.1228  0.2618  0.7393
  837TIP3    H126706   1.618   1.418  10.264  0.4580  0.4736 -0.1651
  837TIP3    H226707   1.506   1.319  10.239  0.5339  0.0789  0.9730
  838TIP3   OH226708   0.147   1.844   9.465  0.0111  0.2535 -0.5213
  838TIP3    H126709   0.066   1.803   9.494 -0.2019  1.4440  0.6733
  838TIP3    H226710   0.174   1.793   9.388 -0.4693 -1.7759  0.5965
  839TIP3   OH226711   6.200   6.298   9.173 -0.1811  0.1476 -0.2738
  839TIP3    H126712   6.141   6.245   9.227  0.0983 -1.0576 -1.1148
  839TIP3    H226713   6.287   6.263   9.192  0.2050  1.4338  0.4114
  840TIP3   OH226714   1.616   2.710   8.137  0.7296 -0.6326 -0.2377
  840TIP3    H126715   1.684   2.771   8.167  1.9771 -1.5793 -1.0388
  840TIP3    H226716   1.597   2.657   8.214  0.1992  0.2316  0.2505
  841TIP3   OH226717   4.314   2.374  10.577 -0.3480  0.2626  0.1711
  841TIP3    H126718   4.257   2.329  10.515 -1.6841 -0.0606  1.5819
  841TIP3    H226719   4.388   2.404  10.524  0.7718 -3.7255 -0.8266
  842TIP3   OH226720   3.480   0.548   8.512 -0.0526  0.4376  0.1054
  842TIP3    H126721   3.570   0.579   8.502  0.3595 -0.8417 -0.4179
  842TIP3    H226722   3.479   0.502   8.596 -0.1911  0.3683  0.0656
  843TIP3   OH226723   6.129   6.511  10.697  0.2050 -0.5166  0.1327
  843TIP3    H126724   6.152   6.482  10.785 -2.4469 -1.2920  0.6555
  843TIP3    H226725   6.096   6.600  10.709 -0.4371 -0.7302 -0.0030
  844TIP3   OH226726   2.363   3.772  10.361 -0.3683  0.7362 -0.1030
  844TIP3    H126727   2.425   3.788  10.290  0.9945 -1.8402  0.3789
  844TIP3    H226728   2.406   3.810  10.438 -0.4918  1.0023 -0.1650
  845TIP3   OH226729   1.783   5.121  11.747  0.5139 -0.0041  0.2456
  845TIP3    H126730   1.854   5.119  11.811  0.4300  0.3639  0.3552
  845TIP3    H226731   1.827   5.125  11.662  0.6296  0.4315  0.3225
  846TIP3   OH226732   5.879   1.887  11.364  0.2863 -0.1546 -0.9677
  846TIP3    H126733   5.883   1.792  11.362 -1.3787 -0.4030  1.7810
  846TIP3    H226734   5.846   1.912  11.277 -0.7326 -2.2170 -1.2294
  847TIP3   OH226735   5.672   1.858   9.004  0.1492 -0.1715  0.1576
  847TIP3    H126736   5.581   1.840   8.980  0.8311 -1.2514 -1.8609
  847TIP3    H226737   5.693   1.791   9.069 -0.0984 -0.8622 -0.4528
  848TIP3   OH226738   5.157   5.609  11.444 -0.4335 -0.2280  0.5616
  848TIP3    H126739   5.132   5.559  11.521 -1.0780 -0.1550  0.4109
  848TIP3    H226740   5.074   5.637  11.406 -0.0815  1.0260  0.6864
  849TIP3   OH226741   5.863   6.040  11.551 -0.1234  0.1848  0.2394
  849TIP3    H126742   5.911   6.115  11.515  1.0322  0.4778  2.1982
  849TIP3    H226743   5.819   6.075  11.628 -0.5603 -0.8888  0.4922
  850TIP3   OH226744   5.418   4.395   8.953  0.0993 -0.2678  0.1188
  850TIP3    H126745   5.456   4.354   8.875 -1.0866  0.6534 -0.9851
  850TIP3    H226746   5.456   4.483   8.955  0.8987 -0.6117  1.1894
  851TIP3   OH226747   5.857   2.158  10.918 -0.1353 -0.1759 -0.2496
  851TIP3    H126748   5.914   2.090  10.883  1.4058  0.9744 -0.1161
  851TIP3    H226749   5.819   2.200  10.841  2.3494  1.6035 -0.6179
  852TIP3   OH226750   2.932   3.517  10.704  0.2650 -0.1077  0.1116
  852TIP3    H126751   2.864   3.583  10.716 -0.4282 -0.7403 -0.2217
  852TIP3    H226752   3.010   3.566  10.677 -0.3206  0.5434 -0.4209
  853TIP3   OH226753   1.130   2.339   9.120  0.1439  0.6676 -0.4744
  853TIP3    H126754   1.146   2.410   9.057 -1.8616  2.5590  1.0052
  853TIP3    H226755   1.116   2.383   9.203 -0.7457 -1.5320  0.6243
  854TIP3   OH226756   1.700   6.427   9.319 -0.0684  0.0320 -0.1779
  854TIP3    H126757   1.726   6.516   9.295 -0.3429  0.7347  1.8756
  854TIP3    H226758   1.610   6.419   9.289 -0.3198  0.7821  0.3378
  855TIP3   OH226759   3.656   6.102   9.784 -1.1121  0.0727 -0.2182
  855TIP3    H126760   3.688   6.046   9.855 -2.2306 -0.1671  0.1142
  855TIP3    H226761   3.733   6.116   9.728  0.6750  2.7799  2.5616
  856TIP3   OH226762   6.471   6.461  11.657 -0.1645 -0.0728 -0.1241
  856TIP3    H126763   6.442   6.516  11.730  1.1490  0.6096 -0.0877
  856TIP3    H226764   6.522   6.520  11.602 -2.0556 -0.2803 -2.2336
  857TIP3   OH226765   0.152   5.150  11.458 -0.2326 -1.5316 -0.8454
  857TIP3    H126766   0.232   5.199  11.478 -0.8602 -0.6855 -0.3583
  857TIP3    H226767   0.183   5.064  11.429  0.8880 -0.9220 -1.5163
  858TIP3   OH226768   4.563   2.333  10.386  0.3333 -0.0118  0.4416
  858TIP3    H126769   4.504   2.404  10.361 -3.0689 -2.7585  0.0433
  858TIP3    H226770   4.603   2.306  10.303 -0.8739 -0.6091  0.0299
  859TIP3   OH226771   2.363   3.942  10.955  0.1244 -0.3780 -0.2269
  859TIP3    H126772   2.351   3.918  11.047 -0.3217 -1.2327 -0.5032
  859TIP3    H226773   2.431   3.881  10.923  0.3958  0.0220 -0.4227
  860TIP3   OH226774   2.172   4.538   8.647 -0.6036  0.6012  0.7079
  860TIP3    H126775   2.196   4.494   8.566 -2.1683  0.3056  0.3753
  860TIP3    H226776   2.185   4.631   8.629 -0.7015  0.5172  0.1955
  861TIP3   OH226777   0.801   2.074  12.028  0.4080 -0.2275  0.5557
  861TIP3    H126778   0.796   1.979  12.036  2.0692 -0.3159  1.0008
  861TIP3    H226779   0.797   2.106  12.118  2.2917 -0.0848  0.6425
  862TIP3   OH226780   6.034   3.689   9.944 -0.3078 -0.2487  0.4511
  862TIP3    H126781   6.031   3.662  10.036  1.7763  0.7633  0.8772
  862TIP3    H226782   6.094   3.764   9.943 -0.2456 -0.2726 -1.7430
  863TIP3   OH226783   1.852   5.607  10.464  0.0806 -0.2104  0.9502
  863TIP3    H126784   1.900   5.547  10.407 -0.0545  1.8862 -1.5045
  863TIP3    H226785   1.839   5.557  10.545  2.5218 -2.3923  0.1218
  864TIP3   OH226786   2.680   3.559  10.182  0.4211 -0.3735 -0.2949
  864TIP3    H126787   2.618   3.618  10.139 -1.4827 -3.5566 -2.4391
  864TIP3    H226788   2.753   3.552  10.122  0.8767  0.1498  0.1914
  865TIP3   OH226789   3.545   3.358  11.722  0.6223 -0.1737 -0.5027
  865TIP3    H126790   3.572   3.390  11.808  1.2983  0.5905 -0.9876
  865TIP3    H226791   3.453   3.384  11.715  0.6985  0.1779 -0.2015
  866TIP3   OH226792   0.605   1.923  10.180 -0.3040 -0.8072 -0.1945
  866TIP3    H126793   0.549   1.992  10.145 -2.1389 -1.5027  1.2305
  866TIP3    H226794   0.620   1.948  10.271 -0.1114 -1.7450  0.0406
  867TIP3   OH226795   4.330   0.775   9.642 -0.1303 -0.0843  0.0524
  867TIP3    H126796   4.384   0.697   9.627  0.6177  0.1972  1.1452
  867TIP3    H226797   4.296   0.763   9.731 -0.9276  0.3089 -0.1945
  868TIP3   OH226798   2.305   2.352  12.081  0.0654  0.1087 -0.1814
  868TIP3    H126799   2.241   2.281  12.091 -0.4914  0.6206 -0.0980
  868TIP3    H226800   2.274   2.421  12.139  2.2783 -0.7199  2.1647
  869TIP3   OH226801   1.302   2.671  11.700 -0.3055 -0.7662  0.0987
  869TIP3    H126802   1.287   2.765  11.694  0.9352 -0.6164 -1.0466
  869TIP3    H226803   1.215   2.632  11.693 -0.6354  0.2184 -1.5818
  870TIP3   OH226804   2.141   6.646   9.193 -0.4704  0.0123  0.1865
  870TIP3    H126805   2.167   6.563   9.153  1.8888  0.8286 -0.0972
  870TIP3    H226806   2.140   6.628   9.287  1.2521 -0.0719  0.2163
  871TIP3   OH226807   0.140   1.477   8.740 -0.4468  1.2211 -0.1711
  871TIP3    H126808   0.219   1.424   8.733  0.5049  2.4985  0.4493
  871TIP3    H226809   0.146   1.539   8.667  0.3294  2.7928  1.1421
  872TIP3   OH226810   4.947   2.286  11.812 -0.1546 -0.2260 -0.2001
  872TIP3    H126811   4.889   2.301  11.738 -1.0521  1.1771  0.7242
  872TIP3    H226812   4.917   2.204  11.850  0.5193 -1.1212 -1.5417
  873TIP3   OH226813   3.067   1.636  11.019 -0.2002 -0.2605  0.2126
  873TIP3    H126814   2.979   1.640  10.981  0.3182 -3.1112 -1.5608
  873TIP3    H226815   3.052   1.613  11.111 -1.3107  2.2577  0.7668
  874TIP3   OH226816   5.520   2.540   9.935 -0.2451  0.6019 -0.0281
  874TIP3    H126817   5.503   2.449   9.910 -0.8685  0.8499 -0.5348
  874TIP3    H226818   5.552   2.582   9.855  1.7377  0.4219  0.6356
  875TIP3   OH226819   3.702   4.590  10.465 -0.1296  0.2745 -0.0758
  875TIP3    H126820   3.747   4.643  10.399  0.2468 -0.0868 -0.1170
  875TIP3    H226821   3.611   4.621  10.463  0.3181  1.7009  0.7192
  876TIP3   OH226822   0.782   0.848   9.175  0.3198  0.0117 -0.5650
  876TIP3    H126823   0.754   0.866   9.085  0.6939  0.3819 -0.6141
  876TIP3    H226824   0.875   0.829   9.168  0.3261 -0.0772 -0.2681
  877TIP3   OH226825   5.127   2.094   9.102  0.3543  0.1257 -0.5973
  877TIP3    H126826   5.182   2.049   9.167  0.6517  0.0442 -0.9019
  877TIP3    H226827   5.066   2.146   9.154  0.1771 -0.4309 -0.2475
  878TIP3   OH226828   4.122   3.711   9.673  0.4885  0.2594  0.1860
  878TIP3    H126829   4.165   3.628   9.694 -0.1087 -0.1335 -0.1093
  878TIP3    H226830   4.030   3.688   9.661  0.1782  1.1009  0.8687
  879TIP3   OH226831   2.782   2.483  11.350 -0.3605 -0.7069  0.6097
  879TIP3    H126832   2.721   2.424  11.307 -1.1724 -1.3050  2.4744
  879TIP3    H226833   2.863   2.476  11.299 -1.3899 -1.0350 -1.0150
  880TIP3   OH226834   3.748   3.273   9.040 -0.0493  0.3624 -0.1155
  880TIP3    H126835   3.684   3.203   9.057  0.3382 -0.2293 -1.0250
  880TIP3    H226836   3.815   3.231   8.986  0.7416  1.1687  0.2216
  881TIP3   OH226837   3.044   6.586   9.611 -0.1680 -0.1752  0.1475
  881TIP3    H126838   3.040   6.491   9.597 -2.1921 -0.6980  3.2529
  881TIP3    H226839   3.132   6.602   9.645  0.3370 -0.8551 -0.8062
  882TIP3   OH226840   5.110   0.301   8.728 -0.0465  0.2804 -0.0788
  882TIP3    H126841   5.016   0.293   8.712  0.1044 -0.1599 -0.7574
  882TIP3    H226842   5.132   0.223   8.779  0.1548 -0.2022 -0.8868
  883TIP3   OH226843   6.168   1.598  10.846 -0.5181  0.5143 -0.3373
  883TIP3    H126844   6.232   1.648  10.898  0.0022  0.3047 -0.7640
  883TIP3    H226845   6.115   1.552  10.911 -1.3505  2.0161  0.1003
  884TIP3   OH226846   5.165   4.085  11.660 -0.4779 -0.1676 -0.1954
  884TIP3    H126847   5.097   4.018  11.669  1.0531 -1.7383  0.3519
  884TIP3    H226848   5.247   4.036  11.666  0.7265  1.4963 -2.0129
  885TIP3   OH226849   4.214   3.503   8.727  0.5560  0.3316  0.0117
  885TIP3    H126850   4.296   3.541   8.758  0.9259 -0.8861  0.5805
  885TIP3    H226851   4.219   3.509   8.632  1.0516  0.7573  0.0597
  886TIP3   OH226852   0.170   0.933  10.501  0.0813 -0.0857 -0.1580
  886TIP3    H126853   0.131   0.862  10.451  0.0347  1.0289 -1.7526
  886TIP3    H226854   0.131   0.925  10.588 -0.8156 -1.2737 -0.6460
  887TIP3   OH226855   4.870   0.555  11.780  0.2861  0.4027  0.2084
  887TIP3    H126856   4.962   0.538  11.763 -0.1382 -0.8243 -1.1047
  887TIP3    H226857   4.838   0.597  11.700 -0.7719 -1.3106 -0.3413
  888TIP3   OH226858   3.384   3.525   9.983 -0.0875  0.3450  0.0123
  888TIP3    H126859   3.458   3.580  10.007  1.0045 -2.2812  3.6801
  888TIP3    H226860   3.410   3.482   9.902  1.9286  0.3863  0.5845
  889TIP3   OH226861   0.738   5.548  11.462 -0.3675  0.0295 -0.2259
  889TIP3    H126862   0.676   5.500  11.516  0.0439 -0.3076 -0.0468
  889TIP3    H226863   0.686   5.618  11.422 -0.6575  0.3886  0.7313
  890TIP3   OH226864   3.465   2.786  11.932  0.0153  0.3443  0.6506
  890TIP3    H126865   3.451   2.765  12.025 -0.9877 -1.7635  0.0717
  890TIP3    H226866   3.504   2.707  11.895  0.8527  1.3373 -0.6450
  891TIP3   OH226867   5.734   4.047  11.404 -0.1379 -0.3895  0.5865
  891TIP3    H126868   5.796   3.981  11.435  0.1099 -0.5643 -0.2568
  891TIP3    H226869   5.703   4.090  11.484  2.0594  0.5939  0.9963
  892TIP3   OH226870   0.206   1.674  11.228 -0.7957 -0.4889  0.4854
  892TIP3    H126871   0.293   1.708  11.209 -0.7522 -0.6419  0.4059
  892TIP3    H226872   0.186   1.618  11.152 -1.9794  1.4735 -0.7295
  893TIP3   OH226873   1.215   1.196  10.003 -0.7307 -0.1863  0.1140
  893TIP3    H126874   1.123   1.192   9.977 -1.3849 -0.6027  2.2682
  893TIP3    H226875   1.219   1.268  10.066  0.5687  0.2445 -0.4326
  894TIP3   OH226876   4.932   2.451   9.958 -0.6919 -0.5605 -0.2988
  894TIP3    H126877   5.000   2.482   9.897 -1.4200 -1.2866 -1.5365
  894TIP3    H226878   4.978   2.441  10.041  0.1558  1.2857 -0.4769
  895TIP3   OH226879   4.600   5.729  11.074  0.1364  0.5905  0.0615
  895TIP3    H126880   4.544   5.652  11.067 -1.1306  1.6486 -2.6285
  895TIP3    H226881   4.677   5.708  11.021 -0.6317  1.4606 -1.4497
  896TIP3   OH226882   4.692   2.340  10.943 -0.2345  0.5282 -0.3945
  896TIP3    H126883   4.633   2.368  10.873 -0.4384  2.5217  0.5167
  896TIP3    H226884   4.661   2.253  10.967 -0.7030  0.1703 -2.1723
  897TIP3   OH226885   0.713   0.661  11.557  0.0950  0.0251 -0.1386
  897TIP3    H126886   0.755   0.699  11.479  1.0002  0.0180  0.3343
  897TIP3    H226887   0.649   0.599  11.522 -0.6796  1.2141 -0.9116
  898TIP3   OH226888   3.326   6.100  10.207 -0.1246  0.4924 -0.1636
  898TIP3    H126889   3.328   6.041  10.132 -1.5950  0.1978  0.0079
  898TIP3    H226890   3.262   6.167  10.184 -1.6488 -0.3500  1.3247
  899TIP3   OH226891   3.919   3.500  11.856 -0.4195  0.2338  0.0154
  899TIP3    H126892   4.005   3.492  11.898 -1.4179 -1.4178  1.9206
  899TIP3    H226893   3.885   3.583  11.887 -0.0695  0.2429  0.3841
  900TIP3   OH226894   5.414   2.888  12.121 -0.0166 -0.3959  0.6991
  900TIP3    H126895   5.405   2.970  12.170  0.2981  0.9178 -1.3293
  900TIP3    H226896   5.330   2.877  12.076  0.0134 -1.1045  0.8023
  901TIP3   OH226897   0.643   2.752  10.930  0.0888  0.1739 -0.4320
  901TIP3    H126898   0.666   2.761  11.023 -3.8875 -0.8403  0.8192
  901TIP3    H226899   0.614   2.840  10.905  0.5299  0.2919 -0.5404
  902TIP3   OH226900   6.397   3.208   9.134  0.3715  0.0206 -0.1103
  902TIP3    H126901   6.397   3.303   9.145  0.0163 -0.0006  0.1164
  902TIP3    H226902   6.480   3.188   9.092  1.3311  0.2372  1.6020
  903TIP3   OH226903   2.317   2.426  11.392  0.1598  0.1065 -0.4764
  903TIP3    H126904   2.291   2.336  11.415 -0.3118  0.3904  0.1231
  903TIP3    H226905   2.401   2.438  11.436 -1.0209  0.8599  1.7208
  904TIP3   OH226906   4.313   5.451  10.888 -0.6099  0.6490 -0.7182
  904TIP3    H126907   4.249   5.515  10.920 -1.0942  0.0082 -0.3912
  904TIP3    H226908   4.372   5.436  10.962 -1.9524 -1.1159  0.0502
  905TIP3   OH226909   0.861   1.857  10.657  0.1970 -0.4795  0.0368
  905TIP3    H126910   0.873   1.881  10.565 -0.6998  0.6511  0.1903
  905TIP3    H226911   0.906   1.926  10.706 -0.0065 -0.6464  0.4639
  906TIP3   OH226912   1.929   6.005   9.121 -0.1471 -0.3627 -0.3811
  906TIP3    H126913   1.929   5.999   9.217 -3.3492 -1.9581 -0.3403
  906TIP3    H226914   1.889   6.090   9.103  2.6599  1.0484 -0.4324
  907TIP3   OH226915   2.024   2.902  10.808 -0.1099  0.3018  0.3691
  907TIP3    H126916   2.081   2.942  10.874 -0.0563 -1.9933  1.8503
  907TIP3    H226917   2.083   2.857  10.749 -0.1815  2.0888 -1.1499
  908TIP3   OH226918   3.904   0.276  10.541 -0.5388  0.0085 -0.1946
  908TIP3    H126919   3.979   0.240  10.589  0.6464  1.5084 -0.8171
  908TIP3    H226920   3.860   0.332  10.604 -1.0467 -0.7344  0.1212
  909TIP3   OH226921   6.139   2.906  11.124 -0.2449  0.6626  0.9983
  909TIP3    H126922   6.071   2.850  11.084 -0.6852  0.4951  1.9489
  909TIP3    H226923   6.183   2.848  11.186  1.2051  0.5956 -0.0355
  910TIP3   OH226924   3.839   1.717  10.107 -0.1867 -0.4940  0.2554
  910TIP3    H126925   3.928   1.742  10.084  0.8678 -1.4205  2.9777
  910TIP3    H226926   3.786   1.794  10.086  1.1662 -0.0072 -1.6250
  911TIP3   OH226927   1.263   4.289   9.691  0.0223 -0.2751 -0.7732
  911TIP3    H126928   1.194   4.355   9.689 -0.9180 -1.1523  0.4090
  911TIP3    H226929   1.343   4.336   9.668 -0.6988  1.1453 -0.4951
  912TIP3   OH226930   3.386   5.630  11.641 -0.2875 -0.5742  0.4314
  912TIP3    H126931   3.422   5.606  11.556 -0.3195 -0.1634  0.3014
  912TIP3    H226932   3.428   5.570  11.703  2.7804  1.6679  0.7144
  913TIP3   OH226933   2.781   4.829  10.268 -0.3526 -0.1540 -0.7295
  913TIP3    H126934   2.847   4.811  10.200 -0.6002  0.6964 -1.2140
  913TIP3    H226935   2.777   4.925  10.272 -2.7482 -0.1273 -1.9088
  914TIP3   OH226936   5.497   2.318  10.949  0.1893 -0.3158  0.2036
  914TIP3    H126937   5.547   2.256  11.003  0.3437 -0.2853  0.0956
  914TIP3    H226938   5.560   2.349  10.884 -0.3568 -1.4409 -0.9027
  915TIP3   OH226939   1.791   3.504  10.378  0.0703 -0.3225  0.6612
  915TIP3    H126940   1.735   3.447  10.431 -0.7583  0.4305  0.6127
  915TIP3    H226941   1.797   3.459  10.293 -0.9243 -0.1528  0.4877
  916TIP3   OH226942   5.888   3.590   9.340  0.3842 -0.2503 -0.4879
  916TIP3    H126943   5.816   3.648   9.315 -0.0193 -1.3320 -2.0315
  916TIP3    H226944   5.908   3.614   9.430 -0.6140  1.3901 -0.6597
  917TIP3   OH226945   4.722   3.467   9.473  0.0787 -0.3470 -0.4848
  917TIP3    H126946   4.629   3.457   9.455  0.0177 -0.6349 -0.0229
  917TIP3    H226947   4.729   3.547   9.524 -0.1560 -1.3715  1.2091
  918TIP3   OH226948   0.893   1.078  11.932 -0.4783 -0.1951 -0.9545
  918TIP3    H126949   0.877   1.132  12.009 -1.3980 -0.5421 -0.8878
  918TIP3    H226950   0.806   1.054  11.901 -0.1097 -2.0122 -0.7162
  919TIP3   OH226951   0.644   0.639  10.031  0.0874  0.4240 -0.5747
  919TIP3    H126952   0.618   0.599   9.949  0.2577 -2.4668  0.6769
  919TIP3    H226953   0.567   0.692  10.057 -1.5664 -1.7842 -0.7036
  920TIP3   OH226954   3.420   0.425   8.787 -0.3288 -0.7278 -0.1374
  920TIP3    H126955   3.503   0.380   8.770  0.4795  1.0930 -1.4385
  920TIP3    H226956   3.354   0.368   8.748  0.7196 -0.5299 -2.3919
  921TIP3   OH226957   1.025   5.967  10.843  0.8212  0.1007 -0.2095
  921TIP3    H126958   0.961   5.963  10.914  0.9117  1.0847 -0.0563
  921TIP3    H226959   1.061   6.055  10.848  1.2373 -0.0023 -1.1300
  922TIP3   OH226960   3.303   1.945  10.240  0.1479  0.5084  0.2309
  922TIP3    H126961   3.280   1.922  10.150 -1.6616  0.6794  0.6028
  922TIP3    H226962   3.293   1.863  10.288 -0.7259  0.8018  0.5749
  923TIP3   OH226963   2.705   3.068   8.986  0.1744  0.3627 -0.3497
  923TIP3    H126964   2.732   3.159   8.982 -0.2759  0.4492 -2.1112
  923TIP3    H226965   2.679   3.046   8.897 -0.7701 -1.1734  0.2539
  924TIP3   OH226966   4.293   2.195  10.279 -0.0994 -0.2163 -0.0298
  924TIP3    H126967   4.263   2.261  10.216 -2.4533 -0.6441  0.5412
  924TIP3    H226968   4.384   2.178  10.255  0.5662  3.0843 -0.3300
  925TIP3   OH226969   5.615   1.562   9.525  0.6397 -0.0379 -0.5434
  925TIP3    H126970   5.610   1.495   9.593 -1.7356  1.2364  0.6404
  925TIP3    H226971   5.571   1.524   9.449  2.1148 -0.9576 -0.9754
  926TIP3   OH226972   6.237   4.644  10.974 -0.6489 -0.7962  0.2914
  926TIP3    H126973   6.306   4.675  11.032 -1.2242  0.8108  0.1673
  926TIP3    H226974   6.247   4.549  10.973  0.7620 -0.6843  1.2511
  927TIP3   OH226975   3.694   2.254   9.502  0.5038  0.2116  0.2500
  927TIP3    H126976   3.759   2.277   9.568  0.7588 -0.4688  0.2387
  927TIP3    H226977   3.616   2.231   9.552  1.0254 -1.3583  0.3725
  928TIP3   OH226978   6.468   1.025  10.567  0.4693 -0.0182 -0.3724
  928TIP3    H126979   6.564   1.022  10.570  0.6636  0.1101 -3.2582
  928TIP3    H226980   6.443   0.933  10.553 -0.2239 -0.7436  4.2656
  929TIP3   OH226981   2.686   0.954  11.435 -0.3665  0.2906 -0.1309
  929TIP3    H126982   2.695   0.896  11.359 -0.8829  0.6328 -0.4602
  929TIP3    H226983   2.651   1.036  11.399  1.1856  1.1441  0.1804
  930TIP3   OH226984   5.480   5.227  11.810 -0.4070  0.1866  0.1443
  930TIP3    H126985   5.539   5.301  11.801  0.4103 -0.4719 -0.0759
  930TIP3    H226986   5.530   5.152  11.776 -1.3853 -0.3780 -0.0926
  931TIP3   OH226987   5.391   1.003   9.938  0.3444  0.0350 -0.0379
  931TIP3    H126988   5.395   0.969  10.027 -0.5566  1.4054  0.5644
  931TIP3    H226989   5.419   1.094   9.946  0.8116  0.0166 -1.2566
  932TIP3   OH226990   6.323   5.567   9.859  0.6219  0.2026  0.4944
  932TIP3    H126991   6.414   5.549   9.834  0.9111  0.9493  0.9416
  932TIP3    H226992   6.318   5.663   9.858 -0.7000  0.1600 -1.3653
  933TIP3   OH226993   3.485   2.416  10.161  0.5928 -0.2596 -0.6025
  933TIP3    H126994   3.414   2.352  10.172  0.9790 -0.4777  0.7997
  933TIP3    H226995   3.560   2.377  10.206  0.8107  1.2049  0.3933
  934TIP3   OH226996   4.181   3.524   8.423  0.3128  0.1195 -0.1346
  934TIP3    H126997   4.272   3.533   8.396  0.4644 -0.7056  0.0614
  934TIP3    H226998   4.162   3.431   8.411  0.0140 -0.0556  1.4512
  935TIP3   OH226999   6.445   0.310   8.211  0.1025  0.2487 -0.0621
  935TIP3    H127000   6.415   0.400   8.212 -0.8895 -0.0719 -0.3822
  935TIP3    H227001   6.482   0.298   8.123  0.2846  0.3596 -0.0007
  936TIP3   OH227002   4.221   1.703  11.643  0.6588  0.2518 -0.0750
  936TIP3    H127003   4.256   1.791  11.635  0.0844  0.4222 -0.8501
  936TIP3    H227004   4.194   1.696  11.735  2.8397  0.0434  0.5925
  937TIP3   OH227005   0.463   6.709  11.764 -0.1180 -0.3639 -0.3527
  937TIP3    H127006   0.461   6.786  11.706 -1.0041 -0.2248 -0.1517
  937TIP3    H227007   0.550   6.712  11.804 -0.3331  0.8642  0.0713
  938TIP3   OH227008   2.930   0.934  10.347  0.6220  0.3779 -0.4510
  938TIP3    H127009   2.875   0.965  10.275  1.0795 -0.4166 -1.1577
  938TIP3    H227010   3.016   0.971  10.328  0.5919  0.7446  0.0843
  939TIP3   OH227011   5.025   2.710   9.577  0.2743  0.3718 -0.2314
  939TIP3    H127012   5.032   2.666   9.662  0.6762 -0.6529 -0.7694
  939TIP3    H227013   4.989   2.643   9.519 -1.4508  1.5187 -0.5409
  940TIP3   OH227014   2.700   2.418  10.233 -0.1102 -0.1565 -0.7988
  940TIP3    H127015   2.756   2.495  10.244 -0.2188 -0.2429  0.6767
  940TIP3    H227016   2.747   2.348  10.278 -1.1499 -0.3453  0.0482
  941TIP3   OH227017   4.676   5.900  10.772  0.3542 -0.2176 -0.6086
  941TIP3    H127018   4.749   5.879  10.714  0.3494 -1.0600 -0.3317
  941TIP3    H227019   4.609   5.835  10.751 -0.8364  1.3138 -1.7483
  942TIP3   OH227020   3.018   6.229  11.536  0.0964  0.2055 -0.0976
  942TIP3    H127021   2.943   6.202  11.590 -0.0972 -0.9217 -0.8777
  942TIP3    H227022   2.984   6.300  11.482 -0.2893  0.0129 -0.1134
  943TIP3   OH227023   5.757   4.085   9.190  0.1779 -0.0308 -0.4785
  943TIP3    H127024   5.739   4.142   9.115  2.0800 -1.4850 -2.1457
  943TIP3    H227025   5.670   4.060   9.223 -0.7083  0.6310 -2.2202
  944TIP3   OH227026   2.276   3.847   9.372  0.1976  0.4586 -0.3123
  944TIP3    H127027   2.345   3.910   9.389 -0.4333  0.9669  0.4166
  944TIP3    H227028   2.315   3.762   9.395  0.3769  0.8092  0.7260
  945TIP3   OH227029   1.779   2.385  11.959 -0.0091  0.1617  0.1116
  945TIP3    H127030   1.741   2.306  11.920  0.6927  0.2525 -0.7884
  945TIP3    H227031   1.707   2.448  11.958 -0.0427  0.1353 -1.0003
  946TIP3   OH227032   2.608   0.859  11.184 -0.1268  0.6479  0.1265
  946TIP3    H127033   2.597   0.948  11.150 -1.7962  0.9692  1.3753
  946TIP3    H227034   2.544   0.806  11.136 -0.6779  0.5842  0.9154
  947TIP3   OH227035   0.378   2.840   8.687  0.6271 -0.1946  0.2320
  947TIP3    H127036   0.419   2.798   8.611  0.0483 -1.0682  0.3816
  947TIP3    H227037   0.419   2.797   8.762 -1.0576 -1.6552  0.3879
  948TIP3   OH227038   6.163   5.123  10.452 -0.4193  0.2251  0.2091
  948TIP3    H127039   6.211   5.193  10.408 -0.1104 -0.4461 -0.5544
  948TIP3    H227040   6.080   5.118  10.404  0.1118 -0.8306 -0.6523
  949TIP3   OH227041   1.695   5.773   9.383  0.0547  0.5522 -0.3361
  949TIP3    H127042   1.607   5.811   9.376 -0.2277  0.0444  0.2990
  949TIP3    H227043   1.719   5.751   9.293 -1.4037 -1.3288 -0.3331
  950TIP3   OH227044   6.380   4.653  11.491 -0.3514  0.7088 -0.0411
  950TIP3    H127045   6.308   4.636  11.551  0.2902 -0.1973  0.5043
  950TIP3    H227046   6.345   4.633  11.404 -0.4009 -1.0526  0.3348
  951TIP3   OH227047   0.001   0.874  11.816 -0.1567  0.6531  0.9679
  951TIP3    H127048   0.095   0.894  11.814 -0.4244  1.9617  0.1694
  951TIP3    H227049  -0.004   0.782  11.791  0.8450  0.9112 -0.3116
  952TIP3   OH227050   2.945   1.217  11.244 -0.5306 -0.1346 -0.3578
  952TIP3    H127051   2.863   1.187  11.204  1.2030 -3.2827 -1.9258
  952TIP3    H227052   3.001   1.237  11.169  1.1372 -1.1141  0.5881
  953TIP3   OH227053   2.434   6.081  11.778 -0.1087  0.0835  0.0580
  953TIP3    H127054   2.447   6.169  11.814 -3.5100  0.1633  1.4271
  953TIP3    H227055   2.448   6.091  11.684  0.2050  1.9220  0.2607
  954TIP3   OH227056   5.289   0.954   8.924  0.0267  0.2388  0.3349
  954TIP3    H127057   5.256   1.033   8.966 -2.6855 -0.6136  0.0360
  954TIP3    H227058   5.336   0.907   8.993  1.8524  2.1127  0.4686
  955TIP3   OH227059   2.874   4.778  11.490  0.2119  1.1801  0.6115
  955TIP3    H127060   2.790   4.747  11.457 -0.4358  0.8990  2.4082
  955TIP3    H227061   2.876   4.871  11.467 -1.0921  1.4415  1.4428
  956TIP3   OH227062   3.694   0.969  11.185 -0.2514 -0.1878  0.2385
  956TIP3    H127063   3.615   0.940  11.229 -0.1464  1.1301  1.3892
  956TIP3    H227064   3.664   1.029  11.117 -0.3489 -1.3701 -0.7821
  957TIP3   OH227065   1.229   3.615  10.312 -0.1028  0.1433 -0.1750
  957TIP3    H127066   1.221   3.704  10.347  0.5323  1.1840 -2.4662
  957TIP3    H227067   1.144   3.575  10.330 -0.6812  1.4844  0.2251
  958TIP3   OH227068   4.274   4.249  11.654  0.5237  0.2147  0.5208
  958TIP3    H127069   4.266   4.341  11.630  0.4269  0.4689  1.4956
  958TIP3    H227070   4.184   4.216  11.650  0.6753 -0.1057 -0.7974
  959TIP3   OH227071   5.188   6.529   9.791 -0.1243 -0.1375  0.2661
  959TIP3    H127072   5.208   6.435   9.801 -1.1071 -0.3756  0.1024
  959TIP3    H227073   5.105   6.530   9.744 -0.8798  0.7991  1.5999
  960TIP3   OH227074   0.737   3.466   9.485  0.0458 -0.5308  0.1138
  960TIP3    H127075   0.794   3.459   9.409  1.5769  1.0317  1.0337
  960TIP3    H227076   0.779   3.413   9.552  0.4918  0.6849  0.8225
  961TIP3   OH227077   1.704   0.634   8.506 -0.4139  0.3887 -0.1771
  961TIP3    H127078   1.676   0.619   8.415 -2.6579 -0.1733  0.5504
  961TIP3    H227079   1.698   0.729   8.516 -0.1977  0.4526 -0.6081
  962TIP3   OH227080   2.431   1.743  10.187  0.1565  0.5154 -0.1963
  962TIP3    H127081   2.448   1.835  10.164 -1.1502  0.6463 -0.7587
  962TIP3    H227082   2.391   1.747  10.274  1.7891  0.3053  0.6004
  963TIP3   OH227083   0.216   5.398  10.747 -0.4326  0.0965 -0.4919
  963TIP3    H127084   0.228   5.491  10.726  0.2531 -0.3515 -2.2927
  963TIP3    H227085   0.145   5.369  10.689 -0.3342 -0.6075 -0.2693
  964TIP3   OH227086   5.242   3.924   9.429  0.5782  0.0933  0.9093
  964TIP3    H127087   5.149   3.903   9.420  0.7533 -0.5419  0.4813
  964TIP3    H227088   5.245   4.019   9.439 -0.1053  0.1346  0.7497
  965TIP3   OH227089   4.783   3.586  10.262 -0.3688 -0.2267  0.4576
  965TIP3    H127090   4.739   3.603  10.345 -0.9848 -0.6764  0.2335
  965TIP3    H227091   4.817   3.671  10.235 -3.2831  0.7470 -0.6087
  966TIP3   OH227092   5.630   0.975  11.146  0.0879 -0.6494 -0.0746
  966TIP3    H127093   5.585   0.914  11.204 -1.7798  0.7689  0.0223
  966TIP3    H227094   5.571   0.986  11.071  0.8100  0.3623 -0.5179
  967TIP3   OH227095   1.463   3.423   8.074 -0.2854  0.0058  0.5346
  967TIP3    H127096   1.549   3.382   8.064 -0.3455  0.2271 -1.0468
  967TIP3    H227097   1.472   3.478   8.153  1.5947  1.3950 -0.5504
  968TIP3   OH227098   2.502   1.748   9.562 -0.6090  0.2504  0.1338
  968TIP3    H127099   2.521   1.671   9.508 -1.8029  0.5500 -0.7426
  968TIP3    H227100   2.554   1.734   9.642 -0.0843 -0.9978 -0.3979
  969TIP3   OH227101   1.594   3.191   9.258 -0.7824  0.0430  0.0027
  969TIP3    H127102   1.605   3.285   9.243 -0.8452  0.0715  0.1328
  969TIP3    H227103   1.506   3.183   9.293 -0.9039 -0.1035 -0.3411
  970TIP3   OH227104   5.740   3.220  10.192 -0.1288 -0.0664  0.0507
  970TIP3    H127105   5.791   3.151  10.150  0.9578  0.9944 -0.4350
  970TIP3    H227106   5.792   3.300  10.179 -1.2749  0.8236  0.7196
  971TIP3   OH227107   3.469   3.829  11.045  0.6942 -0.3492  0.5638
  971TIP3    H127108   3.538   3.765  11.064  1.2783  0.6432  1.9859
  971TIP3    H227109   3.397   3.804  11.102 -0.1855 -1.4049 -0.9453
  972TIP3   OH227110   0.736   1.364  10.261 -0.0222  0.0245  0.0644
  972TIP3    H127111   0.783   1.297  10.312 -0.0626  0.1388  0.2525
  972TIP3    H227112   0.687   1.413  10.326  0.0527  0.2758 -0.0672
  973TIP3   OH227113   2.864   4.568  12.100 -0.1292  0.5444 -0.0902
  973TIP3    H127114   2.936   4.608  12.148  0.4763 -0.8888  0.2510
  973TIP3    H227115   2.793   4.633  12.105 -0.0221  0.5684  2.5883
  974TIP3   OH227116   6.413   6.258  10.289  0.2924  0.3273  0.0935
  974TIP3    H127117   6.383   6.338  10.331  0.2659  0.7639 -0.7416
  974TIP3    H227118   6.508   6.265  10.286  0.2995  0.2579  0.1651
  975TIP3   OH227119   1.534   1.886   7.628 -0.3910 -0.3621  0.5701
  975TIP3    H127120   1.550   1.928   7.712  1.8786 -1.4457  0.7552
  975TIP3    H227121   1.616   1.897   7.580 -1.4458 -0.2735 -1.2958
  976TIP3   OH227122   5.424   3.489   9.715  0.1347 -0.4008  0.1822
  976TIP3    H127123   5.515   3.478   9.686  0.3079  0.4300  0.3705
  976TIP3    H227124   5.418   3.441   9.797 -0.3919 -2.8919 -1.2217
  977TIP3   OH227125   2.670   4.450  11.032 -0.4222  0.2547  0.0509
  977TIP3    H127126   2.720   4.523  10.996 -1.9438  0.4320 -1.8853
  977TIP3    H227127   2.591   4.447  10.979 -1.6264 -1.1668  1.7982
  978TIP3   OH227128   4.090   6.636  11.401  0.0611 -0.5178  0.2081
  978TIP3    H127129   4.006   6.650  11.357 -0.3839  1.8090  1.5683
  978TIP3    H227130   4.147   6.704  11.365  0.0938  0.5325  2.0647
  979TIP3   OH227131   1.953   5.895  11.483 -0.2520  0.1074  0.3304
  979TIP3    H127132   1.927   5.832  11.550 -0.8524  0.2939  0.2720
  979TIP3    H227133   1.973   5.975  11.531  0.6798 -0.1666  0.4216
  980TIP3   OH227134   5.947   6.172   9.235  0.6083 -0.7323 -0.1674
  980TIP3    H127135   5.918   6.206   9.150  2.5612 -0.2744 -0.7100
  980TIP3    H227136   5.867   6.166   9.287 -0.3735  0.8956 -1.3709
  981TIP3   OH227137   0.220   6.764  10.407 -0.8063 -0.5571  0.1955
  981TIP3    H127138   0.222   6.736  10.499 -0.1274 -0.5259  0.1918
  981TIP3    H227139   0.163   6.841  10.407 -1.0242 -0.7162  0.5463
  982TIP3   OH227140   2.129   4.243   9.632 -0.0029 -0.3350 -0.2369
  982TIP3    H127141   2.199   4.268   9.572  0.1556  0.1427  0.1417
  982TIP3    H227142   2.049   4.273   9.589  0.0024 -1.0474 -0.7573
  983TIP3   OH227143   1.293   1.790  11.878  0.1402  0.6068  0.1806
  983TIP3    H127144   1.238   1.747  11.813  1.5074 -0.5883 -0.2185
  983TIP3    H227145   1.287   1.883  11.856 -0.3405  0.3327 -0.9290
  984TIP3   OH227146   1.441   6.033  10.341 -0.5968 -0.8274  0.3675
  984TIP3    H127147   1.442   6.001  10.431 -2.5678  1.5066  1.3463
  984TIP3    H227148   1.349   6.027  10.315 -0.3735  0.3411 -0.7955
  985TIP3   OH227149   1.202   0.174   9.905  0.0961 -0.1914  0.1306
  985TIP3    H127150   1.273   0.110   9.900  1.3163  0.9475  1.9721
  985TIP3    H227151   1.175   0.186   9.814  2.4673 -0.4187 -0.6677
  986TIP3   OH227152   5.018   6.151   9.410 -0.2996 -0.5594 -0.2023
  986TIP3    H127153   4.944   6.182   9.358  0.8489 -1.2001 -2.3350
  986TIP3    H227154   4.980   6.087   9.470 -1.8567  1.0660  0.6084
  987TIP3   OH227155   1.746   1.467   8.786  0.6212  0.7131  0.4772
  987TIP3    H127156   1.685   1.494   8.855  0.9527  0.4741  0.8648
  987TIP3    H227157   1.693   1.468   8.706 -0.2897 -0.8596  1.0068
  988TIP3   OH227158   6.653   3.000   8.137 -0.3462 -0.1274 -0.1404
  988TIP3    H127159   6.643   2.912   8.101 -1.7571  0.5649 -1.5356
  988TIP3    H227160   6.747   3.016   8.133 -0.0534 -1.5703  0.2071
  989TIP3   OH227161   1.325   6.040  11.153 -0.2813  0.1806 -0.0882
  989TIP3    H127162   1.229   6.041  11.156 -0.2800  0.5988 -0.1239
  989TIP3    H227163   1.350   5.967  11.209 -0.5676  1.2771  1.5660
  990TIP3   OH227164   4.133   6.008   9.985  0.4959  0.2095  0.9096
  990TIP3    H127165   4.084   6.016  10.067 -2.6188  0.1656 -0.8236
  990TIP3    H227166   4.096   5.931   9.942  0.9955  1.0918 -1.1989
  991TIP3   OH227167   2.356   5.769   9.311 -0.3374  0.0228  0.5948
  991TIP3    H127168   2.425   5.816   9.359 -0.3700 -1.1169  1.8241
  991TIP3    H227169   2.274   5.808   9.342 -0.2889  1.1471 -0.6145
  992TIP3   OH227170   2.063   5.629   9.531  0.3224  0.4340 -0.1534
  992TIP3    H127171   1.980   5.582   9.525 -0.5713  2.0945 -2.1131
  992TIP3    H227172   2.129   5.564   9.511 -0.6571 -0.5222 -0.3764
  993TIP3   OH227173   4.305   5.202  11.596  0.0727  0.5912 -0.2611
  993TIP3    H127174   4.387   5.156  11.580  0.2687  0.7162  0.3878
  993TIP3    H227175   4.328   5.294  11.593 -0.2549  0.6610 -1.1857
  994TIP3   OH227176   6.606   0.522  10.174  0.0612  0.2545  0.0364
  994TIP3    H127177   6.674   0.530  10.107  0.0668  2.6988  0.2405
  994TIP3    H227178   6.598   0.428  10.189  2.0167 -0.2042 -1.3915
  995TIP3   OH227179   4.999   1.840   9.763  0.2894 -0.0088  0.1832
  995TIP3    H127180   5.026   1.916   9.713 -0.5235  0.7301  0.8304
  995TIP3    H227181   5.078   1.786   9.770  1.2627  1.4595  0.9349
  996TIP3   OH227182   3.796   3.754  11.967  0.8305 -0.0161  0.3311
  996TIP3    H127183   3.779   3.836  11.921  1.1589  1.1197  2.1461
  996TIP3    H227184   3.725   3.746  12.030  0.1781 -1.7395 -0.5709
  997TIP3   OH227185   3.121   0.745   9.509 -0.0325  0.2605 -0.0987
  997TIP3    H127186   3.126   0.777   9.420 -0.1844  0.4231 -0.0492
  997TIP3    H227187   3.189   0.793   9.556 -1.7365  2.1994  0.4950
  998TIP3   OH227188   2.462   3.458  10.862  0.6684 -0.6099  0.2576
  998TIP3    H127189   2.500   3.434  10.946 -0.8975 -3.0945  0.3568
  998TIP3    H227190   2.373   3.485  10.883  0.7083  0.1641 -0.4890
  999TIP3   OH227191   4.005   6.794   9.487 -0.0891 -0.0018  0.0175
  999TIP3    H127192   3.914   6.819   9.507  0.2184  2.0610 -0.8632
  999TIP3    H227193   4.058   6.859   9.534  0.7754  1.2575 -2.5347
 1000TIP3   OH227194   3.630   4.267   9.693 -0.4033  0.3770 -0.4400
 1000TIP3    H127195   3.662   4.249   9.604 -1.6435 -1.4391 -0.5579
 1000TIP3    H227196   3.568   4.339   9.682 -0.9101 -0.1591 -1.1179
 1001TIP3   OH227197   0.122   1.653  11.676  0.0738  0.1977  0.0548
 1001TIP3    H127198   0.081   1.649  11.762 -2.0879 -0.2720 -0.9065
 1001TIP3    H227199   0.171   1.571  11.669  0.3140  0.2669  0.8653
 1002TIP3   OH227200   2.143   5.630   9.820  0.0673 -0.1033 -0.6484
 1002TIP3    H127201   2.102   5.616   9.735  0.1875 -0.3362 -0.6689
 1002TIP3    H227202   2.213   5.693   9.802 -0.5027  0.5742 -0.5465
 1003TIP3   OH227203   5.268   0.957  11.701  0.3357 -0.7151  0.1402
 1003TIP3    H127204   5.230   0.931  11.618  1.6293  1.3142 -1.1767
 1003TIP3    H227205   5.193   0.969  11.759 -0.8595  0.4954 -1.5620
 1004TIP3   OH227206   4.284   4.802  10.615 -0.3008  0.0283 -0.2389
 1004TIP3    H127207   4.305   4.878  10.670 -0.8548  0.4407 -0.5877
 1004TIP3    H227208   4.292   4.727  10.674  0.7186  0.3077 -0.0080
 1005TIP3   OH227209   3.741   3.968  11.082 -0.2994  0.9550  0.0008
 1005TIP3    H127210   3.741   4.060  11.055 -2.5989  1.4734  1.4132
 1005TIP3    H227211   3.721   3.971  11.176 -0.9246 -0.9882 -0.0192
 1006TIP3   OH227212   1.735   1.936  11.483 -0.5675  0.1470 -0.0166
 1006TIP3    H127213   1.709   1.846  11.500  0.1275 -0.3366 -1.3686
 1006TIP3    H227214   1.776   1.933  11.397  2.2746  1.1380  1.1557
 1007TIP3   OH227215   0.496   6.093  12.053  0.3499 -0.2561  0.3107
 1007TIP3    H127216   0.433   6.068  11.985 -0.8192  0.7342  0.9941
 1007TIP3    H227217   0.492   6.022  12.117  0.9034 -0.8313 -0.2861
 1008TIP3   OH227218   1.231   5.023   9.763 -0.2173 -0.4922 -0.1514
 1008TIP3    H127219   1.218   5.105   9.811  0.3523 -1.5038  1.8454
 1008TIP3    H227220   1.326   5.016   9.751 -0.2846 -0.7106 -0.5879
 1009TIP3   OH227221   5.878   1.524   9.802  0.4084  0.4330  0.3800
 1009TIP3    H127222   5.969   1.503   9.826  1.0982  1.0637 -1.5252
 1009TIP3    H227223   5.875   1.620   9.804  1.1152  0.7123 -3.7249
 1010TIP3   OH227224   4.385   2.154  11.149 -0.0625  0.3515  0.2800
 1010TIP3    H127225   4.410   2.184  11.236 -0.9033  0.2354  0.5663
 1010TIP3    H227226   4.330   2.224  11.114 -0.0331  0.2303 -0.0193
 1011TIP3   OH227227   6.324   6.585   9.187 -0.3254  0.3092 -0.2577
 1011TIP3    H127228   6.405   6.554   9.146 -0.1326 -1.2034  1.1916
 1011TIP3    H227229   6.334   6.681   9.188  0.8474  0.2240 -1.2904
 1012TIP3   OH227230   1.796   5.547  10.770  0.1798  0.5319 -0.4680
 1012TIP3    H127231   1.701   5.551  10.778  0.3180  0.7337  1.3433
 1012TIP3    H227232   1.828   5.625  10.816  1.3044 -0.7901  1.0874
 1013TIP3   OH227233   4.096   5.481  11.537  0.3109  0.2452 -0.2166
 1013TIP3    H127234   4.144   5.509  11.614  0.4233  0.8173 -0.4940
 1013TIP3    H227235   4.152   5.504  11.463 -0.0370  0.1954 -0.4998
 1014TIP3   OH227236   5.030   6.045  11.576 -0.3324  0.4134 -0.2949
 1014TIP3    H127237   4.970   6.045  11.501  0.9291  3.2056 -1.4620
 1014TIP3    H227238   5.110   6.004  11.543 -1.2372 -2.7401  1.0741
 1015TIP3   OH227239   3.636   0.892  10.369 -0.8737 -0.2652  0.1883
 1015TIP3    H127240   3.615   0.938  10.451 -0.9825  0.6259 -0.3212
 1015TIP3    H227241   3.597   0.806  10.379 -1.6032  0.1200  0.7524
 1016TIP3   OH227242   0.614   5.585  10.098  0.0736 -0.4584  0.2300
 1016TIP3    H127243   0.612   5.491  10.115 -0.3255 -0.4038  0.4818
 1016TIP3    H227244   0.665   5.593  10.017 -1.3806 -1.0516 -0.7871
 1017TIP3   OH227245   3.381   4.396  10.430 -0.1710 -0.2027 -0.5188
 1017TIP3    H127246   3.447   4.363  10.491 -1.3753  2.1591  2.3283
 1017TIP3    H227247   3.298   4.369  10.467 -1.0919  3.6666  0.7078
 1018TIP3   OH227248   0.243   0.148   9.567  0.3653 -0.2460 -0.0886
 1018TIP3    H127249   0.286   0.083   9.622 -0.9164 -0.3579  0.8409
 1018TIP3    H227250   0.172   0.100   9.523  0.0675  0.2946 -0.2169
 1019TIP3   OH227251   1.857   1.282  11.413  0.2277  0.4995 -0.1943
 1019TIP3    H127252   1.863   1.228  11.492  2.6755 -0.1540 -0.7665
 1019TIP3    H227253   1.799   1.232  11.355  0.1386 -0.0634  0.3674
 1020TIP3   OH227254   0.697   2.474   8.357 -0.3139 -0.0622 -0.7999
 1020TIP3    H127255   0.785   2.462   8.321  0.3504 -1.0606  1.0008
 1020TIP3    H227256   0.685   2.569   8.360  0.8793  0.0982 -0.6876
 1021TIP3   OH227257   3.371   5.381   9.995 -0.3430  0.0048  0.2559
 1021TIP3    H127258   3.339   5.314  10.055  1.0745  0.7057  1.9057
 1021TIP3    H227259   3.330   5.462  10.026  1.4674  0.6052  1.2581
 1022TIP3   OH227260   1.701   4.233  10.410 -0.6947  0.2014 -0.3149
 1022TIP3    H127261   1.698   4.296  10.338 -1.7121 -1.4657 -1.8451
 1022TIP3    H227262   1.613   4.235  10.448 -0.8858 -0.5770 -0.6828
 1023TIP3   OH227263   1.252   3.939  10.686  0.8252 -0.2599 -0.0235
 1023TIP3    H127264   1.189   3.994  10.640 -0.3167  0.8640  2.6314
 1023TIP3    H227265   1.206   3.857  10.701  1.1447 -0.5743 -0.7520
 1024TIP3   OH227266   0.663   1.076  10.706 -0.4118 -0.1569 -0.0076
 1024TIP3    H127267   0.614   1.147  10.663  0.8864  0.4819 -0.4836
 1024TIP3    H227268   0.673   1.106  10.796  1.0274  0.8094 -0.4441
 1025TIP3   OH227269   0.083   3.209  11.175  0.4668  0.2845  0.4631
 1025TIP3    H127270   0.050   3.129  11.135  1.3405  0.4416 -0.6018
 1025TIP3    H227271   0.161   3.181  11.224  1.4747  0.6441 -0.8860
 1026TIP3   OH227272   0.258   0.517  10.001 -0.0217 -0.0802  0.4840
 1026TIP3    H127273   0.301   0.588   9.953  0.8100 -1.7783 -1.4718
 1026TIP3    H227274   0.165   0.533   9.990  0.1588  0.4771 -0.3171
 1027TIP3   OH227275   3.562   2.235   8.971  0.5923 -0.4907 -0.0163
 1027TIP3    H127276   3.468   2.241   8.953  1.0038  1.2563 -1.9920
 1027TIP3    H227277   3.567   2.206   9.062 -1.8464 -1.0793 -0.0008
 1028TIP3   OH227278   2.059   6.329   9.416  0.2275 -0.2435  0.6192
 1028TIP3    H127279   1.978   6.278   9.423 -1.3935  2.1367  0.6051
 1028TIP3    H227280   2.082   6.351   9.506  0.3346 -0.1663  0.5740
 1029TIP3   OH227281   0.238   5.682  10.746 -0.4587 -0.2207 -0.0121
 1029TIP3    H127282   0.185   5.728  10.682  1.9666  0.9453 -1.3179
 1029TIP3    H227283   0.219   5.726  10.829 -1.1867  0.4574 -0.5252
 1030TIP3   OH227284   2.526   2.023   9.584  0.4928 -0.6852 -0.3587
 1030TIP3    H127285   2.513   1.928   9.581 -0.1363 -0.6442  0.7723
 1030TIP3    H227286   2.620   2.034   9.590  0.5023 -1.2822  0.7058
 1031TIP3   OH227287   5.453   6.658   8.182  0.4659  0.6077  0.2105
 1031TIP3    H127288   5.461   6.565   8.203  0.6870  0.2994 -1.1640
 1031TIP3    H227289   5.503   6.669   8.102  1.7697  2.2511  1.1869
 1032TIP3   OH227290   2.154   6.355   9.929 -0.5814 -0.6527 -0.3550
 1032TIP3    H127291   2.192   6.407   9.999 -0.0568 -1.1072 -0.2972
 1032TIP3    H227292   2.156   6.265   9.962 -1.3871 -0.7268 -0.4925
 1033TIP3   OH227293   1.980   1.524  11.915 -0.3385  0.1245 -0.3138
 1033TIP3    H127294   2.067   1.531  11.875 -0.1243  1.0821  0.2870
 1033TIP3    H227295   1.975   1.598  11.975 -1.0655 -0.6781  0.6572
 1034TIP3   OH227296   5.803   2.574  10.441  0.2818 -0.1478  0.1889
 1034TIP3    H127297   5.782   2.499  10.385  1.4686 -0.4988  0.1851
 1034TIP3    H227298   5.875   2.618  10.395  0.1920  0.4834  0.6460
 1035TIP3   OH227299   5.559   2.971  10.189  0.0059  0.3531  0.4937
 1035TIP3    H127300   5.615   3.049  10.198  0.5793 -0.0777  0.7606
 1035TIP3    H227301   5.543   2.943  10.278  1.7599 -1.1791  0.3948
 1036TIP3   OH227302   2.703   3.135  10.268  0.2118  0.1817  0.1052
 1036TIP3    H127303   2.770   3.162  10.332  1.3322  0.4514 -1.1386
 1036TIP3    H227304   2.742   3.061  10.222 -2.0096 -2.4246  2.0676
 1037TIP3   OH227305   4.911   5.067  10.178 -0.2942 -0.4743  0.1479
 1037TIP3    H127306   4.819   5.041  10.169 -0.1385 -0.8636 -0.4162
 1037TIP3    H227307   4.950   5.047  10.093  0.1718  0.2862  0.1653
 1038TIP3   OH227308   3.770   4.021   8.966  0.1008 -0.1956 -0.3997
 1038TIP3    H127309   3.714   3.944   8.962  0.6167 -0.5748 -0.3589
 1038TIP3    H227310   3.726   4.086   8.910 -0.8942 -0.1420  0.4150
 1039TIP3   OH227311   3.836   3.440  11.165  0.1430  0.0310  0.1813
 1039TIP3    H127312   3.751   3.410  11.199  1.3162 -1.4321  2.0573
 1039TIP3    H227313   3.830   3.535  11.164 -1.3164 -0.0337  0.8703
 1040TIP3   OH227314   1.029   3.131   9.798  0.2030 -0.0868  0.2041
 1040TIP3    H127315   1.033   3.077   9.877  0.6363 -1.0033 -0.4246
 1040TIP3    H227316   1.118   3.165   9.787  0.3132 -0.5167 -0.2597
 1041TIP3   OH227317   6.321   3.173   9.436  0.3033 -0.4489  0.0107
 1041TIP3    H127318   6.271   3.207   9.362 -0.0231  1.2853  0.9809
 1041TIP3    H227319   6.375   3.103   9.399  0.8444  0.9777 -2.0501
 1042TIP3   OH227320   6.331   2.781  11.297  0.4279 -1.4871 -1.0499
 1042TIP3    H127321   6.384   2.831  11.359 -1.4282 -0.2631 -0.3611
 1042TIP3    H227322   6.306   2.702  11.344  1.3608 -1.9211 -1.2689
 1043TIP3   OH227323   1.515   4.047  11.411  0.2168 -0.5482  0.2568
 1043TIP3    H127324   1.422   4.051  11.389  0.6606 -3.0306 -2.6897
 1043TIP3    H227325   1.519   3.987  11.486 -0.4709 -2.5329 -1.2082
 1044TIP3   OH227326   4.682   1.100  10.811  0.6540  0.0646 -0.2102
 1044TIP3    H127327   4.747   1.073  10.876 -0.4678  2.1274  1.9225
 1044TIP3    H227328   4.607   1.043  10.827  1.0562 -0.7465 -1.0955
 1045TIP3   OH227329   5.036   6.016   9.802 -0.0328  0.3198  0.3225
 1045TIP3    H127330   5.111   6.050   9.752 -2.0213  2.0187 -1.6988
 1045TIP3    H227331   5.048   5.921   9.801  0.3606  0.2798 -3.0139
 1046TIP3   OH227332   4.371   0.438   9.188 -0.0365  0.1702 -0.2389
 1046TIP3    H127333   4.288   0.485   9.179  0.4980  1.3342  0.7525
 1046TIP3    H227334   4.438   0.505   9.182  0.9138 -0.8721 -1.8846
 1047TIP3   OH227335   1.198   3.142  11.866 -0.2442  0.3450 -0.4699
 1047TIP3    H127336   1.219   3.148  11.959 -2.3188  0.1096  0.0621
 1047TIP3    H227337   1.225   3.227  11.830  1.4641  0.0854  0.1149
 1048TIP3   OH227338   3.034   3.479  11.928 -0.3850 -0.1277 -0.2511
 1048TIP3    H127339   3.068   3.481  11.839  1.7372 -1.0737  0.4641
 1048TIP3    H227340   3.090   3.416  11.974  0.7589  2.6979  2.5769
 1049TIP3   OH227341   0.979   1.665   9.079  0.0640  0.0872 -0.8116
 1049TIP3    H127342   0.947   1.600   9.140 -1.3573 -1.1466 -2.7501
 1049TIP3    H227343   0.904   1.723   9.063  0.6089  0.7868 -0.9110
 1050TIP3   OH227344   6.402   5.790  11.952  0.0748 -0.0609 -0.0635
 1050TIP3    H127345   6.473   5.733  11.924  0.2530 -0.1425  0.5429
 1050TIP3    H227346   6.440   5.877  11.954  0.5856 -0.2983  1.6849
 1051TIP3   OH227347   2.452   1.309  10.971 -0.1318  0.4417 -0.1603
 1051TIP3    H127348   2.489   1.397  10.962 -0.8705  0.7901  0.1570
 1051TIP3    H227349   2.527   1.254  10.995 -0.0087  1.3531  1.7344
 1052TIP3   OH227350   6.712   4.031   9.007 -0.5595  0.4584 -0.8946
 1052TIP3    H127351   6.621   4.057   8.992 -0.5384  0.5844 -0.8067
 1052TIP3    H227352   6.758   4.113   9.026 -0.3014  0.4720 -1.5637
 1053TIP3   OH227353   1.020   1.703  10.881 -0.2078 -0.2975  1.4144
 1053TIP3    H127354   1.083   1.726  10.813 -0.5444 -1.2169  0.7613
 1053TIP3    H227355   0.935   1.702  10.836 -0.2723 -2.3131  1.4650
 1054TIP3   OH227356   6.294   2.133  10.819 -0.7700  0.4855  0.1478
 1054TIP3    H127357   6.314   2.040  10.811  0.3321  0.7934 -0.9279
 1054TIP3    H227358   6.362   2.168  10.877  0.6128  1.1237 -1.7569
 1055TIP3   OH227359   3.239   6.405   9.796 -0.4951 -0.6254 -0.3395
 1055TIP3    H127360   3.265   6.441   9.711 -0.8052  1.5038  0.4074
 1055TIP3    H227361   3.322   6.389   9.841 -0.3497  0.6523 -0.1200
 1056TIP3   OH227362   4.962   2.603   8.962 -0.4641 -0.2288  0.4955
 1056TIP3    H127363   5.049   2.596   8.923 -0.1895  1.5134  0.7105
 1056TIP3    H227364   4.906   2.631   8.890 -0.7960 -0.9889  0.4452
 1057TIP3   OH227365   0.272   0.579   9.467  0.3935  0.0193 -0.2173
 1057TIP3    H127366   0.312   0.529   9.538  1.1707 -0.1615 -0.7594
 1057TIP3    H227367   0.199   0.524   9.438 -0.1049  0.2255  0.6063
 1058TIP3   OH227368   2.164   3.254  11.178 -0.8094 -0.4859 -0.0591
 1058TIP3    H127369   2.214   3.322  11.132  0.2828 -1.3528 -0.1876
 1058TIP3    H227370   2.194   3.258  11.268 -1.0612 -0.5246  0.0288
 1059TIP3   OH227371   2.799   5.783  11.191 -0.7092  0.3493  0.3467
 1059TIP3    H127372   2.741   5.795  11.115  1.9177  0.0534 -1.8913
 1059TIP3    H227373   2.748   5.815  11.265 -2.7658  2.5506 -1.7993
 1060TIP3   OH227374   3.541   2.714   8.974 -0.7949  0.5921 -0.3167
 1060TIP3    H127375   3.462   2.673   8.941  1.2048 -1.6658 -2.7283
 1060TIP3    H227376   3.548   2.685   9.065 -0.4045 -3.1936 -1.4054
 1061TIP3   OH227377   4.321   5.490  11.743  0.6279 -0.7228 -0.1844
 1061TIP3    H127378   4.363   5.575  11.729 -1.5895  0.5421  0.2929
 1061TIP3    H227379   4.324   5.477  11.838  0.2491 -0.8000 -0.1832
 1062TIP3   OH227380   6.131   2.165  10.456 -0.1097  0.0752 -0.0490
 1062TIP3    H127381   6.218   2.206  10.457 -0.2805  0.5397 -1.6336
 1062TIP3    H227382   6.094   2.190  10.371 -2.4382  1.2127  1.2027
 1063TIP3   OH227383   5.489   6.515  10.911  0.1725  0.6135  0.4641
 1063TIP3    H127384   5.554   6.486  10.975 -0.5743 -1.5591  0.3377
 1063TIP3    H227385   5.439   6.436  10.891 -1.9684  2.0096 -0.0689
 1064TIP3   OH227386   4.404   2.911  11.888 -0.4652 -0.2718  0.3176
 1064TIP3    H127387   4.429   2.999  11.861 -1.7404 -0.0086 -0.0763
 1064TIP3    H227388   4.354   2.923  11.969 -0.0609 -0.7047  0.6419
 1065TIP3   OH227389   4.287   4.922  10.356 -0.4358 -0.6158 -0.5786
 1065TIP3    H127390   4.281   4.891  10.446 -1.2657  0.4378 -0.2464
 1065TIP3    H227391   4.346   4.997  10.360  1.9328 -2.3198 -1.4541
 1066TIP3   OH227392   0.932   2.048   8.188  0.0722  0.5196 -0.0972
 1066TIP3    H127393   0.900   1.960   8.206 -2.1969  1.3945  0.4878
 1066TIP3    H227394   0.984   2.039   8.108 -0.6841 -1.2299 -0.4268
 1067TIP3   OH227395   5.483   3.624  11.147  0.4133 -0.3932 -0.2372
 1067TIP3    H127396   5.398   3.651  11.182  1.4100  1.0510  1.2300
 1067TIP3    H227397   5.480   3.648  11.054  0.1072  2.1150  0.3366
 1068TIP3   OH227398   6.690   3.226   9.055 -0.5222 -0.4849  0.0428
 1068TIP3    H127399   6.776   3.221   9.014 -0.7020  0.6735 -0.5078
 1068TIP3    H227400   6.707   3.203   9.147  0.3648 -0.3137 -0.0653
 1069TIP3   OH227401   1.953   6.710   9.855  0.1502  0.2375 -0.0057
 1069TIP3    H127402   1.993   6.791   9.888 -1.0024  1.2369 -0.9442
 1069TIP3    H227403   2.019   6.673   9.796  1.0499 -0.0207  1.1205
 1070TIP3   OH227404   0.715   6.603  11.857  0.6055 -0.5162 -0.6310
 1070TIP3    H127405   0.807   6.575  11.858  0.4307 -1.1249 -1.2640
 1070TIP3    H227406   0.666   6.524  11.879  0.2579 -0.0219  0.4754
 1071TIP3   OH227407   0.905   2.025   9.332  0.1632 -0.0522  1.1286
 1071TIP3    H127408   0.817   2.054   9.357 -0.7080 -0.8183 -0.8354
 1071TIP3    H227409   0.904   1.931   9.346  0.8201 -0.0153  1.4568
 1072TIP3   OH227410   6.163   5.714  10.177 -0.0976 -0.3302  0.1988
 1072TIP3    H127411   6.087   5.727  10.233 -0.2309  0.8170 -0.2189
 1072TIP3    H227412   6.155   5.624  10.146 -0.8901 -0.4582  0.7470
 1073TIP3   OH227413   6.296   0.636   9.649  0.1115 -0.0136  0.4969
 1073TIP3    H127414   6.248   0.694   9.590  0.8195 -0.1273 -0.2037
 1073TIP3    H227415   6.383   0.674   9.654  0.2006 -0.2806  1.0997
 1074TIP3   OH227416   6.214   2.337   9.162  0.3006 -0.2550  0.4194
 1074TIP3    H127417   6.177   2.379   9.239  1.2757  0.1191  0.7046
 1074TIP3    H227418   6.140   2.294   9.120 -0.3565  0.0692  1.2159
 1075TIP3   OH227419   3.932   1.060  11.329  0.3382 -0.2737 -0.0744
 1075TIP3    H127420   3.857   1.024  11.281 -0.4230  2.1983 -0.9035
 1075TIP3    H227421   4.008   1.019  11.290 -0.4591 -0.8023 -1.1138
 1076TIP3   OH227422   6.497   0.343  10.723 -0.1708  0.1669 -0.6529
 1076TIP3    H127423   6.572   0.401  10.716 -0.7217  1.0098  0.2479
 1076TIP3    H227424   6.424   0.400  10.746 -0.2861 -1.1005  2.6291
 1077TIP3   OH227425   3.606   4.382  10.151 -0.1231  0.0742  0.0057
 1077TIP3    H127426   3.617   4.361  10.244 -0.3419 -0.1360 -0.0151
 1077TIP3    H227427   3.521   4.426  10.146 -0.5617 -0.7667 -0.2245
 1078TIP3   OH227428   2.559   2.092  11.916  0.4462 -0.0378  0.7832
 1078TIP3    H127429   2.618   2.083  11.990  1.6208  1.4637  0.0907
 1078TIP3    H227430   2.613   2.073  11.839 -0.6417 -1.1594  0.2627
 1079TIP3   OH227431   1.345   3.239  10.049 -0.3043 -0.1721  0.0933
 1079TIP3    H127432   1.329   3.221   9.956 -1.0489 -1.8969  0.5331
 1079TIP3    H227433   1.439   3.225  10.059 -0.0377  0.9606 -0.5682
 1080TIP3   OH227434   5.676   4.261   8.952  0.1300 -0.0152  0.2914
 1080TIP3    H127435   5.700   4.354   8.960 -0.2110  0.2461 -1.3360
 1080TIP3    H227436   5.596   4.252   9.004 -0.0396  0.7032  0.1649
 1081TIP3   OH227437   3.671   3.367  10.064 -0.2726 -0.2260 -0.2506
 1081TIP3    H127438   3.656   3.412  10.148  1.4213 -0.2281  0.0847
 1081TIP3    H227439   3.678   3.437  10.000  0.2961 -0.1171 -0.0725
 1082TIP3   OH227440   5.222   6.593  10.189 -0.1834  0.0176  0.1465
 1082TIP3    H127441   5.134   6.631  10.184  0.0308  0.4241 -0.7054
 1082TIP3    H227442   5.215   6.511  10.140 -0.2773 -0.3499  0.7568
 1083TIP3   OH227443   2.480   4.665  10.132 -0.1325  0.4277 -0.1004
 1083TIP3    H127444   2.543   4.643  10.065 -1.9663 -0.3032 -1.6675
 1083TIP3    H227445   2.474   4.761  10.129  1.1247  0.5317  0.3228
 1084TIP3   OH227446   5.000   0.031  10.482  0.0094  0.9448 -0.0363
 1084TIP3    H127447   4.972  -0.001  10.568  0.2430 -0.5504 -0.4841
 1084TIP3    H227448   5.093   0.008  10.477 -0.1432  0.4980 -0.9148
 1085TIP3   OH227449   0.410   1.027   9.023  0.0565  0.4985 -0.0963
 1085TIP3    H127450   0.405   1.080   8.943  1.1194  1.0170  0.1501
 1085TIP3    H227451   0.427   0.938   8.992  1.7633  0.8978 -0.4603
 1086TIP3   OH227452   5.226   1.373   9.931  0.1528 -0.1028  0.2054
 1086TIP3    H127453   5.290   1.345   9.997  0.7141  0.0970 -0.2370
 1086TIP3    H227454   5.253   1.327   9.851  0.4658  0.8734 -0.2742
 1087TIP3   OH227455   2.805   2.275  10.820  0.9086 -0.2661 -0.0152
 1087TIP3    H127456   2.751   2.272  10.742 -2.1959 -0.6006  1.9555
 1087TIP3    H227457   2.797   2.365  10.852 -1.7046 -1.1615  2.2267
 1088TIP3   OH227458   5.307   0.240   9.127  0.7873 -0.3112 -0.7369
 1088TIP3    H127459   5.269   0.206   9.046 -0.4038  0.9154 -0.7329
 1088TIP3    H227460   5.305   0.166   9.188 -0.9995 -0.4845 -0.9657
 1089TIP3   OH227461   1.408   6.523   9.021 -0.2175  0.3544 -0.3495
 1089TIP3    H127462   1.399   6.429   9.005  0.5488  0.0070  1.1402
 1089TIP3    H227463   1.320   6.558   9.005 -0.4871 -0.5840 -1.0200
 1090TIP3   OH227464   0.871   4.606   9.418 -0.1610 -0.5813  0.3363
 1090TIP3    H127465   0.809   4.589   9.347  0.0330 -0.1674  0.0685
 1090TIP3    H227466   0.842   4.548   9.488 -0.1610 -1.2430 -0.1893
 1091TIP3   OH227467   1.051   1.515  10.029  0.6758  0.3722  0.4613
 1091TIP3    H127468   0.988   1.557  10.089 -0.1931  0.3045 -0.3821
 1091TIP3    H227469   1.102   1.456  10.085 -0.8760 -0.5451  0.9764
 1092TIP3   OH227470   1.311   6.734  10.649  0.1292  0.0892 -0.4099
 1092TIP3    H127471   1.367   6.733  10.727 -0.3234 -2.2645 -0.0240
 1092TIP3    H227472   1.357   6.789  10.586  1.7650  0.0067  0.6668
 1093TIP3   OH227473   3.250   2.615  11.166 -0.4365  0.6141 -0.4596
 1093TIP3    H127474   3.339   2.648  11.162 -0.5166  1.0002  0.5728
 1093TIP3    H227475   3.239   2.563  11.086  0.8623  0.1772 -0.3710
 1094TIP3   OH227476   4.806   4.972   9.194  0.4378  0.1700 -0.1781
 1094TIP3    H127477   4.854   4.894   9.167  1.7922  1.1060 -0.5701
 1094TIP3    H227478   4.758   4.999   9.116  0.7139  0.2588 -0.3181
 1095TIP3   OH227479   2.724   2.787  11.768 -0.3620  0.1055  0.2635
 1095TIP3    H127480   2.692   2.725  11.702 -1.0800 -0.5128  1.1613
 1095TIP3    H227481   2.703   2.873  11.732  0.4705 -0.1574 -0.9122
 1096TIP3   OH227482   3.231   2.377  11.030  0.2892 -0.4527  0.0809
 1096TIP3    H127483   3.243   2.330  10.947  0.8286  1.6473 -1.1099
 1096TIP3    H227484   3.263   2.317  11.097 -0.8159 -2.4962 -1.1275
 1097TIP3   OH227485   6.430   1.687   8.504  0.5278  0.3444  0.1906
 1097TIP3    H127486   6.502   1.669   8.444  0.0954 -1.7424  0.2435
 1097TIP3    H227487   6.357   1.713   8.447  1.2262  2.3725  0.1336
 1098TIP3   OH227488   3.572   2.468  11.005 -0.1103 -0.3734 -0.2203
 1098TIP3    H127489   3.499   2.498  10.950  0.0305 -0.6817 -0.5821
 1098TIP3    H227490   3.650   2.484  10.951  0.3888  2.5016  1.1963
 1099TIP3   OH227491   1.043   2.509  10.231  0.1502  0.6816  0.4896
 1099TIP3    H127492   1.060   2.485  10.322  0.0167 -2.0160 -0.1055
 1099TIP3    H227493   0.950   2.535  10.230  0.1294  0.6388  1.1046
 1100TIP3   OH227494   0.880   3.098  10.967 -0.2825 -0.1926 -0.7452
 1100TIP3    H127495   0.939   3.172  10.983 -1.1110  1.0145 -2.8450
 1100TIP3    H227496   0.793   3.132  10.987 -0.4634 -1.5150  0.9324
 1101TIP3   OH227497   4.508   5.386  11.414  0.0548  0.4187  0.6256
 1101TIP3    H127498   4.545   5.299  11.429  0.8934  0.4070 -1.2138
 1101TIP3    H227499   4.574   5.447  11.445  0.4984  0.3785 -0.1940
 1102TIP3   OH227500   0.958   1.471   8.200  0.6777  0.4798  0.0139
 1102TIP3    H127501   0.887   1.467   8.137 -0.9621  0.6294  1.7750
 1102TIP3    H227502   1.037   1.482   8.146 -0.8722  3.8128 -1.8970
 1103TIP3   OH227503   1.665   2.081   9.547  0.7737 -0.2914 -0.1012
 1103TIP3    H127504   1.585   2.038   9.574  2.8462 -4.1190  0.6240
 1103TIP3    H227505   1.696   2.127   9.625  0.9545 -1.6941  0.6841
 1104TIP3   OH227506   2.757   3.157  12.143  0.4283  0.1875  0.4336
 1104TIP3    H127507   2.773   3.251  12.145  2.2026 -0.0890  1.7019
 1104TIP3    H227508   2.680   3.147  12.086  0.0150  2.4002  0.4992
 1105TIP3   OH227509   2.660   0.545   9.928 -0.2003  0.1654  0.7188
 1105TIP3    H127510   2.627   0.457   9.911  1.2698 -0.5758  1.5193
 1105TIP3    H227511   2.627   0.597   9.855 -1.9036 -0.8119  0.7300
 1106TIP3   OH227512   6.771   3.707   8.517 -0.0736  0.3319  0.2423
 1106TIP3    H127513   6.782   3.760   8.596  0.4276  1.1664 -0.3681
 1106TIP3    H227514   6.857   3.667   8.503 -0.6983 -1.4288  1.2240
 1107TIP3   OH227515   4.453   1.012  11.415  0.1263 -0.0001  0.8737
 1107TIP3    H127516   4.396   1.006  11.339  1.6515  1.5846 -0.4801
 1107TIP3    H227517   4.400   1.057  11.481 -0.7061  0.0098  0.2149
 1108TIP3   OH227518   2.544   3.240   8.603  0.1397  0.3002 -0.0734
 1108TIP3    H127519   2.453   3.211   8.609  0.4156 -0.3307  1.3837
 1108TIP3    H227520   2.540   3.335   8.608 -0.4189  0.2567  0.3004
 1109TIP3   OH227521   1.600   6.550   9.756 -0.2661 -0.4079  0.0604
 1109TIP3    H127522   1.546   6.571   9.832  0.1320  1.0380 -0.0245
 1109TIP3    H227523   1.676   6.505   9.793  0.1612  0.7149  0.6119
 1110TIP3   OH227524   0.541   3.401  10.637 -0.0541  0.4483 -0.0200
 1110TIP3    H127525   0.472   3.461  10.607 -1.4229 -0.2200  1.5799
 1110TIP3    H227526   0.498   3.316  10.642  1.6889 -0.6104 -1.6501
 1111TIP3   OH227527   3.982   0.331  10.240  0.1398 -0.4632  0.5053
 1111TIP3    H127528   4.066   0.376  10.244  0.6699 -1.2540 -1.1548
 1111TIP3    H227529   3.965   0.303  10.331  1.2217  0.4608  1.0045
 1112TIP3   OH227530   2.839   6.667  11.970  0.3466  0.1456 -0.1226
 1112TIP3    H127531   2.834   6.647  12.064  1.2416 -0.0595 -0.1108
 1112TIP3    H227532   2.932   6.665  11.950  0.4184  2.8387 -0.4371
 1113TIP3   OH227533   6.655   1.470   8.471  0.1526  0.2448  0.5579
 1113TIP3    H127534   6.638   1.377   8.457  0.6827 -0.0453  1.6845
 1113TIP3    H227535   6.615   1.514   8.396  0.1472 -0.9091 -0.1374
 1114TIP3   OH227536   2.343   4.353   9.255  0.1639 -0.1416 -0.2655
 1114TIP3    H127537   2.429   4.394   9.250  1.0596 -1.9822 -1.1351
 1114TIP3    H227538   2.336   4.323   9.346  0.7996 -0.6318 -0.3647
 1115TIP3   OH227539   2.482   5.050   9.531 -0.5967 -0.2802 -0.1790
 1115TIP3    H127540   2.407   4.992   9.517 -0.2639 -0.6623 -0.3903
 1115TIP3    H227541   2.553   5.011   9.480 -0.3031  0.1856 -0.1384
 1116TIP3   OH227542   2.893   1.551  10.639 -0.1771  0.1094  0.1247
 1116TIP3    H127543   2.903   1.643  10.664 -1.3123  0.2273  0.2158
 1116TIP3    H227544   2.807   1.527  10.673  0.7542 -1.4540  1.5139
 1117TIP3   OH227545   1.914   2.270   9.415 -0.5668 -0.6622 -0.4082
 1117TIP3    H127546   1.879   2.298   9.331 -1.7203  1.6053  0.7561
 1117TIP3    H227547   2.009   2.262   9.400 -1.0264 -4.2062 -2.8687
 1118TIP3   OH227548   3.670   2.026   9.842  0.4610 -0.1260 -0.5648
 1118TIP3    H127549   3.607   2.076   9.789  0.0616  0.3356  0.3225
 1118TIP3    H227550   3.679   1.942   9.797  1.1217  0.7164 -2.0855
 1119TIP3   OH227551   5.957   0.832   9.096 -0.2738  0.2538  0.2313
 1119TIP3    H127552   5.875   0.829   9.146 -1.1622  1.7773 -1.0601
 1119TIP3    H227553   5.950   0.759   9.035 -0.3097 -0.0750  0.6165
 1120TIP3   OH227554   6.020   6.511   9.095  0.2181  0.6380  0.6747
 1120TIP3    H127555   6.049   6.558   9.173  0.5386 -0.6123  1.3484
 1120TIP3    H227556   6.073   6.430   9.096 -0.1614  0.3633 -0.5401
 1121TIP3   OH227557   5.772   1.094   8.452  0.1000  0.0443  0.7229
 1121TIP3    H127558   5.742   1.030   8.387 -1.2052  0.4053  0.9529
 1121TIP3    H227559   5.694   1.144   8.474  0.9710  1.2925  1.0458
 1122TIP3   OH227560   2.306   3.123   9.741  0.0687 -0.4146 -0.4580
 1122TIP3    H127561   2.371   3.067   9.784  0.2399 -0.4689 -0.7919
 1122TIP3    H227562   2.222   3.086   9.769  0.1796 -0.5236 -0.2645
 1123TIP3   OH227563   1.673   1.401  10.480 -0.1831  0.6514  0.6427
 1123TIP3    H127564   1.737   1.375  10.545 -1.6929  0.8115  2.2510
 1123TIP3    H227565   1.591   1.360  10.507 -1.2783  2.2315 -0.0796
 1124TIP3   OH227566   4.548   4.040   9.552  0.1593  0.3057  0.8142
 1124TIP3    H127567   4.509   4.121   9.585  1.4658  0.5049  2.0161
 1124TIP3    H227568   4.474   3.987   9.523 -0.6656  2.4405 -1.3178
 1125TIP3   OH227569   4.111   4.207   9.352 -0.3382  0.1795  0.0971
 1125TIP3    H127570   4.092   4.253   9.271 -0.5972 -1.2156 -0.6589
 1125TIP3    H227571   4.192   4.158   9.334  1.4203  2.2445  1.7054
 1126TIP3   OH227572   1.459   6.633   9.363 -0.3735 -0.0748 -0.1834
 1126TIP3    H127573   1.403   6.699   9.321 -0.7099 -0.5715 -0.5223
 1126TIP3    H227574   1.463   6.562   9.300  1.3982  0.3242 -0.5714
 1127TIP3   OH227575   0.369   2.586   8.792  0.8869 -0.3007  0.3592
 1127TIP3    H127576   0.410   2.534   8.724  0.4861  0.0442 -0.1556
 1127TIP3    H227577   0.433   2.589   8.863  1.5660 -0.1371 -0.2560
 1128TIP3   OH227578   6.786   6.793   8.790 -0.2635 -0.2455  0.1189
 1128TIP3    H127579   6.851   6.819   8.725 -2.9184  2.3523 -1.7110
 1128TIP3    H227580   6.760   6.705   8.765  0.6471 -0.2907 -0.7088
 1129TIP3   OH227581   6.140   5.305  12.072 -0.2264  0.1027 -0.3869
 1129TIP3    H127582   6.220   5.267  12.107 -0.6186 -0.8484 -0.4994
 1129TIP3    H227583   6.070   5.253  12.111 -0.7418  0.1993 -1.1711
 1130TIP3   OH227584   1.381   3.686   8.481 -0.1278 -0.6009  0.1737
 1130TIP3    H127585   1.345   3.679   8.569 -0.2865 -1.8199  0.0379
 1130TIP3    H227586   1.387   3.780   8.464 -1.3566 -0.3559  0.9636
 1131TIP3   OH227587   5.910   6.522  10.348 -0.3333 -0.1546 -0.7699
 1131TIP3    H127588   5.944   6.610  10.364  1.8320 -1.3348  1.9482
 1131TIP3    H227589   5.834   6.515  10.405 -0.0443 -0.2728 -0.3942
 1132TIP3   OH227590   1.656   4.694  11.657  0.0394 -0.3133  0.4185
 1132TIP3    H127591   1.735   4.668  11.610  0.9044  0.4785  1.4020
 1132TIP3    H227592   1.630   4.616  11.706  1.3706 -0.0090  1.6566
 1133TIP3   OH227593   5.311   1.553  11.481  0.2192 -0.5850 -0.0107
 1133TIP3    H127594   5.366   1.579  11.555  1.8627 -0.4704 -1.2065
 1133TIP3    H227595   5.228   1.598  11.496  0.6817 -0.1686  1.4957
 1134TIP3   OH227596   6.110   3.470  10.751 -0.0118  0.5478  0.1711
 1134TIP3    H127597   6.149   3.461  10.664  1.8906  1.9528  0.8146
 1134TIP3    H227598   6.048   3.397  10.757  1.1513 -0.6651 -1.6557
 1135TIP3   OH227599   4.400   3.753  10.696 -0.5747  0.0718  0.0308
 1135TIP3    H127600   4.446   3.774  10.615 -0.7201  0.6951  0.1061
 1135TIP3    H227601   4.403   3.658  10.701  1.8425  0.1055  0.6645
 1136TIP3   OH227602   3.321   1.135  11.867 -0.4306 -0.2318  0.0061
 1136TIP3    H127603   3.373   1.127  11.786  0.0101 -0.0595  0.2668
 1136TIP3    H227604   3.299   1.045  11.890  0.1043 -0.3371  0.1133
 1137TIP3   OH227605   5.391   4.998  11.178  0.0118  0.4713 -0.3124
 1137TIP3    H127606   5.378   4.904  11.166  0.3056  0.3235  0.4696
 1137TIP3    H227607   5.484   5.007  11.197 -0.4329  0.6423  2.0536
 1138TIP3   OH227608   0.291   5.396  11.499 -0.0216 -0.1056 -0.1563
 1138TIP3    H127609   0.325   5.424  11.414 -0.6882 -1.6584 -0.9653
 1138TIP3    H227610   0.366   5.403  11.558  1.3696 -2.0589 -1.5838
 1139TIP3   OH227611   4.519   6.705  11.646  0.1169  0.7068 -0.0020
 1139TIP3    H127612   4.564   6.724  11.564 -1.2913  0.7719 -0.7952
 1139TIP3    H227613   4.503   6.610  11.643 -1.1166  0.9115 -0.4568
 1140TIP3   OH227614   6.401   4.488  11.770 -0.0030  0.6580 -1.1031
 1140TIP3    H127615   6.486   4.532  11.780  0.3216 -0.1337 -0.2130
 1140TIP3    H227616   6.343   4.535  11.831  0.2231  0.1781 -0.5042
 1141TIP3   OH227617   2.454   3.503  11.747  0.0694 -0.0664 -0.7241
 1141TIP3    H127618   2.478   3.416  11.714 -0.5482 -0.6441  0.3097
 1141TIP3    H227619   2.507   3.563  11.695  1.7490 -1.1487 -0.3663
 1142TIP3   OH227620   1.611   1.627  11.172  0.5089  0.5383 -0.2535
 1142TIP3    H127621   1.687   1.679  11.145 -0.0468  0.4071 -2.2468
 1142TIP3    H227622   1.639   1.582  11.252  2.3533  0.8611 -0.6767
 1143TIP3   OH227623   5.806   4.117   8.775  0.2732 -0.0969 -0.4560
 1143TIP3    H127624   5.750   4.149   8.704 -1.8400 -1.7985  0.3242
 1143TIP3    H227625   5.774   4.163   8.853  1.8562  0.9596 -0.3872
 1144TIP3   OH227626   5.651   5.294  10.107  0.1784  0.0804 -0.4761
 1144TIP3    H127627   5.586   5.364  10.111  0.8844  0.7120  0.0457
 1144TIP3    H227628   5.729   5.331  10.148  0.2889 -1.3132  0.6357
 1145TIP3   OH227629   5.210   4.334   9.674 -0.7948 -0.3429  0.2666
 1145TIP3    H127630   5.163   4.266   9.723 -0.6096 -0.0843  0.8096
 1145TIP3    H227631   5.185   4.320   9.583  0.9919 -2.6447  0.0200
 1146TIP3   OH227632   2.589   0.377  10.182 -0.3264  0.1134  0.2835
 1146TIP3    H127633   2.663   0.319  10.168 -0.6156 -0.3865  0.7769
 1146TIP3    H227634   2.576   0.420  10.097 -0.8184 -1.3923 -0.4481
 1147TIP3   OH227635   0.455   2.831  11.834 -0.5345 -0.1820 -0.5853
 1147TIP3    H127636   0.513   2.886  11.888  1.0776 -1.3392 -1.0502
 1147TIP3    H227637   0.387   2.891  11.804  0.1375  1.1404  0.3820
 1148TIP3   OH227638   1.263   0.326   8.414 -0.4908  0.4262 -0.0640
 1148TIP3    H127639   1.319   0.277   8.474 -1.5421 -0.7370  0.0224
 1148TIP3    H227640   1.306   0.411   8.403  0.1387  0.3600  1.6952
 1149TIP3   OH227641   2.861   6.029   9.652  0.5939  0.3255 -0.0402
 1149TIP3    H127642   2.776   6.069   9.633  0.2161 -0.8960 -1.0136
 1149TIP3    H227643   2.854   6.003   9.744 -0.4541 -0.5831 -0.3465
 1150TIP3   OH227644   2.031   4.174  11.696  0.5058  0.6909  0.0537
 1150TIP3    H127645   2.042   4.258  11.741  0.7360  0.1555  1.0230
 1150TIP3    H227646   2.058   4.109  11.760 -2.0883 -0.3216  0.2204
 1151TIP3   OH227647   0.390   2.337   9.944  0.1155 -0.0281 -0.3736
 1151TIP3    H127648   0.302   2.302   9.953  1.0881 -2.2548  1.8865
 1151TIP3    H227649   0.420   2.305   9.859 -0.4819 -1.2444 -0.1470
 1152TIP3   OH227650   4.269   1.904  11.176  0.1874 -0.3897  0.1936
 1152TIP3    H127651   4.290   1.994  11.152 -0.8181 -0.2397 -0.1498
 1152TIP3    H227652   4.319   1.889  11.256  2.9040 -0.6141 -1.4324
 1153TIP3   OH227653   0.201   3.808  10.455 -0.1223 -0.5538  0.1583
 1153TIP3    H127654   0.189   3.753  10.532 -0.3425  0.6776  1.0322
 1153TIP3    H227655   0.125   3.867  10.456  0.0156 -0.3370 -0.8498
 1154TIP3   OH227656   5.653   3.124   9.600 -0.3823  0.6008  0.2512
 1154TIP3    H127657   5.708   3.046   9.590  0.5062  1.2774 -0.3597
 1154TIP3    H227658   5.584   3.098   9.660 -0.0469 -0.6297  0.1220
 1155TIP3   OH227659   5.273   4.193  10.246  0.4943 -0.3312  0.0100
 1155TIP3    H127660   5.232   4.108  10.263 -0.8487 -0.0768 -1.7273
 1155TIP3    H227661   5.203   4.257  10.260  0.5165  0.2019 -2.0471
 1156TIP3   OH227662   4.840   2.042  11.898  0.6360  0.6202 -0.2611
 1156TIP3    H127663   4.870   1.993  11.975  0.9268  0.2857 -0.5812
 1156TIP3    H227664   4.754   2.006  11.878 -0.0072  1.5862  0.6650
 1157TIP3   OH227665   3.540   1.419  11.612  0.1791 -0.1469 -0.4198
 1157TIP3    H127666   3.535   1.457  11.700 -0.3636  1.5905 -1.1463
 1157TIP3    H227667   3.631   1.432  11.585 -0.3482  2.3865 -1.3123
 1158TIP3   OH227668   0.955   6.367   9.599  0.3316  0.0639  0.4581
 1158TIP3    H127669   0.865   6.336   9.612  0.3099 -0.4840 -0.7894
 1158TIP3    H227670   0.969   6.431   9.668 -1.3114  0.7763  0.1772
 1159TIP3   OH227671   1.766   3.799  10.400  0.2279 -0.2900  0.9598
 1159TIP3    H127672   1.753   3.714  10.359 -1.7153 -0.5726  2.0912
 1159TIP3    H227673   1.826   3.782  10.473 -0.9466 -0.9014  1.7999
 1160TIP3   OH227674   0.132   5.969  11.228  0.3733  0.1548 -0.3477
 1160TIP3    H127675   0.177   5.887  11.249 -2.1614 -1.3471 -0.3200
 1160TIP3    H227676   0.106   6.004  11.313 -2.2340 -1.3488 -0.3967
 1161TIP3   OH227677   0.362   6.370   8.991 -0.2558  0.0446  0.1021
 1161TIP3    H127678   0.273   6.400   8.973  0.9542  3.8450 -0.3170
 1161TIP3    H227679   0.402   6.359   8.905  0.0262 -0.5007  0.3007
 1162TIP3   OH227680   5.194   2.253  11.486 -0.5109 -0.1807 -0.2445
 1162TIP3    H127681   5.155   2.340  11.492 -1.1913 -0.4904 -0.1698
 1162TIP3    H227682   5.287   2.268  11.506 -0.2177  0.8228 -2.0407
 1163TIP3   OH227683   4.950   4.673  11.594  0.4783 -0.0844 -0.0591
 1163TIP3    H127684   4.983   4.611  11.529 -1.4587 -1.2600 -0.0290
 1163TIP3    H227685   4.959   4.627  11.677  1.7381  0.8873  0.3535
 1164TIP3   OH227686   2.808   5.173  10.987 -0.3442 -0.0495 -0.4554
 1164TIP3    H127687   2.728   5.189  11.038 -0.7307  0.2704 -1.1505
 1164TIP3    H227688   2.811   5.078  10.978  1.0345 -0.3349  2.2138
 1165TIP3   OH227689   1.052   1.991  11.186  0.9100 -0.4367  0.5678
 1165TIP3    H127690   1.083   1.904  11.160  0.0045 -0.7161  0.3891
 1165TIP3    H227691   1.132   2.043  11.194  1.3604 -0.8045 -1.0845
 1166TIP3   OH227692   2.427   4.197  11.637  0.3795 -0.0836  0.0441
 1166TIP3    H127693   2.518   4.202  11.666  0.7237  1.0494 -1.1465
 1166TIP3    H227694   2.381   4.264  11.688  0.6111  0.6419 -0.6817
 1167TIP3   OH227695   0.692   4.583   8.091  0.3363 -0.4918 -0.3099
 1167TIP3    H127696   0.649   4.507   8.129  0.1593  0.1515  0.8067
 1167TIP3    H227697   0.740   4.622   8.163  0.3105  0.5368 -0.8347
 1168TIP3   OH227698   6.467   4.212   8.431 -0.6223  0.0310  0.2280
 1168TIP3    H127699   6.405   4.205   8.503 -0.3215 -1.2748  0.3939
 1168TIP3    H227700   6.413   4.223   8.353 -0.9311  2.2170  0.6949
 1169TIP3   OH227701   2.479   4.527  10.843  0.1059 -0.3598  0.3441
 1169TIP3    H127702   2.408   4.467  10.817 -1.1614  1.4550 -0.6079
 1169TIP3    H227703   2.543   4.519  10.772  0.4232 -1.2708  0.7109
 1170TIP3   OH227704   3.472   6.463  10.592  0.0021  0.3022  0.4190
 1170TIP3    H127705   3.429   6.378  10.584  0.7851 -0.0361 -0.2088
 1170TIP3    H227706   3.524   6.472  10.513 -2.3192  2.6782 -1.0094
 1171TIP3   OH227707   5.902   0.951  11.257  0.0129  0.2911 -0.2571
 1171TIP3    H127708   5.816   0.967  11.217 -0.2715 -1.1699 -0.2592
 1171TIP3    H227709   5.899   0.999  11.340 -0.2266  1.4867 -0.9231
 1172TIP3   OH227710   1.721   6.455  11.791 -0.2154  0.4425 -0.8420
 1172TIP3    H127711   1.744   6.548  11.783  0.5496  0.2568 -0.8251
 1172TIP3    H227712   1.698   6.429  11.701  1.1863  0.2413 -1.1742
 1173TIP3   OH227713   3.136   5.686  10.411 -0.3437  0.6753 -0.1881
 1173TIP3    H127714   3.164   5.726  10.493  0.8597  0.1059 -0.2899
 1173TIP3    H227715   3.079   5.750  10.370  0.7952  1.8938  0.0768
 1174TIP3   OH227716   1.819   0.833  10.720  0.2620  0.1499  0.1122
 1174TIP3    H127717   1.836   0.792  10.805  1.4710 -0.9959 -0.6400
 1174TIP3    H227718   1.742   0.887  10.734  0.4620  0.0106  1.9456
 1175TIP3   OH227719   6.464   5.943  10.524 -0.0570 -0.3513 -0.0678
 1175TIP3    H127720   6.444   5.878  10.592  0.2273  0.3580  0.7094
 1175TIP3    H227721   6.379   5.964  10.485 -0.0728 -1.6966 -0.8196
 1176TIP3   OH227722   5.445   4.866   8.849 -0.0144 -0.2735 -0.3150
 1176TIP3    H127723   5.477   4.823   8.769 -0.3419 -0.6367 -0.2526
 1176TIP3    H227724   5.440   4.959   8.826 -1.1633 -0.5106 -1.0750
 1177TIP3   OH227725   1.123   5.547  11.534  0.0288 -0.6530 -0.5489
 1177TIP3    H127726   1.176   5.468  11.526  1.1270 -0.1997  1.5048
 1177TIP3    H227727   1.176   5.617  11.496  0.9559 -0.2153  1.4227
 1178TIP3   OH227728   1.093   0.622  10.492  0.0500  0.0168 -0.1960
 1178TIP3    H127729   0.997   0.617  10.488  0.0680 -0.1060 -0.4405
 1178TIP3    H227730   1.121   0.531  10.488  0.1865  0.0650 -0.3083
 1179TIP3   OH227731   0.248   3.419  11.126 -0.0939  0.5232 -0.0240
 1179TIP3    H127732   0.321   3.419  11.064  0.2693  1.8800  0.3735
 1179TIP3    H227733   0.193   3.345  11.099  0.3558  0.7382 -1.5926
 1180TIP3   OH227734   2.445   6.039  11.175  0.1934 -0.4578 -0.0709
 1180TIP3    H127735   2.489   6.044  11.090 -0.8597  1.1558 -0.5647
 1180TIP3    H227736   2.460   6.125  11.214  1.4859 -1.4873  1.8526
 1181TIP3   OH227737   0.422   6.208   9.508  0.0906 -0.0054  0.2113
 1181TIP3    H127738   0.499   6.152   9.498 -0.5099 -0.6506 -1.2298
 1181TIP3    H227739   0.410   6.247   9.421 -1.6511 -0.5344  0.1810
 1182TIP3   OH227740   2.814   3.108  11.296  0.3204  0.6670 -0.2845
 1182TIP3    H127741   2.849   3.171  11.359 -2.4527  2.4436 -0.3714
 1182TIP3    H227742   2.796   3.159  11.217 -1.0060 -0.4497 -0.7468
 1183TIP3   OH227743   5.707   5.772  10.700 -0.2223  0.2865 -0.6172
 1183TIP3    H127744   5.748   5.716  10.767  0.1696 -1.1919 -2.0233
 1183TIP3    H227745   5.613   5.763  10.716 -0.1391 -0.1910 -0.3630
 1184TIP3   OH227746   5.913   3.414  11.763  0.1038  0.1642  0.0842
 1184TIP3    H127747   5.966   3.397  11.686 -0.0559 -0.8330  0.1883
 1184TIP3    H227748   5.951   3.493  11.801  1.2613 -0.3191 -0.0554
 1185TIP3   OH227749   6.401   3.094   8.246 -0.6399 -0.1222 -0.4968
 1185TIP3    H127750   6.340   3.034   8.205  0.7978 -0.6140 -2.0321
 1185TIP3    H227751   6.487   3.067   8.214  0.5524 -0.1940  2.4913
 1186TIP3   OH227752   2.662   3.257  11.010  0.4395  1.0237  0.1544
 1186TIP3    H127753   2.627   3.169  11.020  0.0156  1.1782  0.0875
 1186TIP3    H227754   2.746   3.246  10.965  1.0766  0.5374  1.4257
 1187TIP3   OH227755   1.377   6.295  10.999 -0.3216 -0.5013 -0.3611
 1187TIP3    H127756   1.341   6.248  11.074  0.5277 -0.4826  0.0711
 1187TIP3    H227757   1.446   6.239  10.965  0.9411  0.5471  0.3731
 1188TIP3   OH227758   2.702   6.747  11.530  0.2618  0.4654 -0.1563
 1188TIP3    H127759   2.737   6.693  11.460 -0.8331 -0.7955  0.2061
 1188TIP3    H227760   2.611   6.717  11.540  0.2261  0.9767  1.4188
 1189TIP3   OH227761   5.584   5.132  10.641  0.4157  0.3062 -0.5934
 1189TIP3    H127762   5.492   5.141  10.666  1.1113  2.8481  1.4352
 1189TIP3    H227763   5.584   5.143  10.546 -1.4248 -0.7533 -0.7766
 1190TIP3   OH227764   4.828   1.302  11.472 -0.6480  0.9060 -0.5057
 1190TIP3    H127765   4.840   1.326  11.564 -0.6749  0.6392 -0.4332
 1190TIP3    H227766   4.734   1.284  11.464 -0.3496 -1.0998 -0.0956
 1191TIP3   OH227767   2.325   2.077  10.996 -0.1384  0.0092  0.3169
 1191TIP3    H127768   2.380   2.003  10.968  0.6809  0.4988  0.5910
 1191TIP3    H227769   2.378   2.123  11.062  0.1206  1.8398 -1.0741
 1192TIP3   OH227770   0.584   4.878  11.276 -0.6021  0.4761 -0.1058
 1192TIP3    H127771   0.568   4.897  11.369  0.1581 -3.3221  0.9870
 1192TIP3    H227772   0.668   4.919  11.258 -0.1719  0.2505  1.2592
 1193TIP3   OH227773   5.594   0.562  10.205  0.1137  0.1450  0.1680
 1193TIP3    H127774   5.563   0.499  10.140  1.0430  0.4909 -0.6292
 1193TIP3    H227775   5.667   0.518  10.248  1.0031  0.7998 -0.6438
 1194TIP3   OH227776   5.769   3.177  11.738  0.2906  0.4459 -0.3405
 1194TIP3    H127777   5.751   3.180  11.644  0.8365  0.6763 -0.4416
 1194TIP3    H227778   5.806   3.263  11.759  0.3735  0.3219  0.0438
 1195TIP3   OH227779   2.710   3.097   9.621 -0.0118 -0.3041  0.1232
 1195TIP3    H127780   2.723   3.130   9.709  2.8121  0.4952 -0.4879
 1195TIP3    H227781   2.636   3.147   9.587  1.3223  2.2412  0.7655
 1196TIP3   OH227782   4.008   3.169  10.775 -0.2582 -0.6892  0.3201
 1196TIP3    H127783   4.056   3.135  10.851  2.1932  1.2892 -0.2086
 1196TIP3    H227784   3.931   3.212  10.812  1.0710  0.5540  1.7817
 1197TIP3   OH227785   4.119   0.971  10.496 -0.3143 -0.7766  0.3778
 1197TIP3    H127786   4.207   0.973  10.460  0.0019 -3.6153  0.7614
 1197TIP3    H227787   4.070   0.915  10.435 -2.0591  1.2369 -0.1661
 1198TIP3   OH227788   5.812   5.564  10.882  0.3886 -0.0235 -0.1263
 1198TIP3    H127789   5.753   5.493  10.855  0.4316  0.8059 -2.6267
 1198TIP3    H227790   5.758   5.618  10.940 -0.2457 -1.0355  0.2649
 1199TIP3   OH227791   4.469   3.296  10.218  0.5458  0.1799 -0.3566
 1199TIP3    H127792   4.422   3.379  10.222  2.4660  1.3142 -0.2371
 1199TIP3    H227793   4.461   3.260  10.307 -0.4754  0.1182 -0.4646
 1200TIP3   OH227794   1.060   6.505  11.515  0.4827  1.2152 -0.4191
 1200TIP3    H127795   1.066   6.570  11.445 -0.8551  1.6707 -0.1406
 1200TIP3    H227796   1.150   6.492  11.543  0.7544  3.3770 -0.1055
 1201TIP3   OH227797   5.736   0.173   8.087  0.1966 -0.3333 -0.1298
 1201TIP3    H127798   5.737   0.241   8.020 -0.4050  0.7541  0.9237
 1201TIP3    H227799   5.698   0.097   8.044 -2.4436  1.0473 -0.4030
 1202TIP3   OH227800   5.932   3.872  11.461 -0.2889 -0.5530 -0.3370
 1202TIP3    H127801   5.917   3.778  11.471 -0.0167 -0.7293 -1.4347
 1202TIP3    H227802   6.020   3.878  11.423 -0.9022  0.0506 -1.7406
 1203TIP3   OH227803   6.705   6.358   8.909 -0.0299  0.3269  0.2260
 1203TIP3    H127804   6.681   6.422   8.842  0.5308  0.7950  0.4604
 1203TIP3    H227805   6.771   6.403   8.962 -1.0829  0.3021  1.6229
 1204TIP3   OH227806   3.877   2.954   9.506  0.1362  0.9248 -0.8259
 1204TIP3    H127807   3.814   3.015   9.468 -2.4421 -0.5668  0.8084
 1204TIP3    H227808   3.912   2.907   9.430 -1.3783  1.1955 -1.7382
 1205TIP3   OH227809   1.504   2.198   9.347  0.0840  0.1235 -0.0217
 1205TIP3    H127810   1.568   2.169   9.412 -0.1337 -1.4482 -0.4602
 1205TIP3    H227811   1.433   2.134   9.353  0.4061 -0.5394 -2.3275
 1206TIP3   OH227812   1.283   0.674   9.398 -0.1809  0.4921 -0.3865
 1206TIP3    H127813   1.321   0.617   9.464 -0.6536  1.2540  0.5632
 1206TIP3    H227814   1.263   0.755   9.445 -2.5227  0.2902 -0.9410
 1207TIP3   OH227815   0.462   1.549  12.026 -0.6287 -0.2013 -0.1550
 1207TIP3    H127816   0.441   1.581  11.939 -1.3198  0.6799  0.3279
 1207TIP3    H227817   0.476   1.455  12.014  1.8282  0.2680 -1.6632
 1208TIP3   OH227818   6.576   1.152   9.708  0.1372 -0.3775  0.2015
 1208TIP3    H127819   6.664   1.117   9.721  0.2059 -0.7615 -1.1334
 1208TIP3    H227820   6.527   1.124   9.785  1.5361  1.1290  1.7184
 1209TIP3   OH227821   5.986   2.006   8.733  0.1123 -0.2963  0.5666
 1209TIP3    H127822   5.939   2.086   8.709 -2.4614 -1.2330  2.1917
 1209TIP3    H227823   5.969   1.946   8.661  1.0270  0.1785 -0.0681
 1210TIP3   OH227824   3.160   1.004  10.199  0.5847  0.5087  0.1613
 1210TIP3    H127825   3.121   1.064  10.136  0.3148 -2.1197 -2.3958
 1210TIP3    H227826   3.225   0.954  10.149  0.4815 -1.6364  1.9717
 1211TIP3   OH227827   1.905   2.819  11.080 -0.2942  0.1989  0.2588
 1211TIP3    H127828   1.981   2.877  11.070 -1.0083  0.8794 -1.6225
 1211TIP3    H227829   1.942   2.732  11.095  0.9722  0.1301 -2.6874
 1212TIP3   OH227830   0.346   3.880  10.030  0.0017  0.2581 -0.3322
 1212TIP3    H127831   0.321   3.973  10.025  2.6619  1.0165 -1.2220
 1212TIP3    H227832   0.353   3.863  10.124  1.0198  1.4842 -0.1429
 1213TIP3   OH227833   3.177   1.545   9.753 -0.0780  0.0162 -0.0130
 1213TIP3    H127834   3.136   1.538   9.840  0.8240 -0.7999  0.3727
 1213TIP3    H227835   3.251   1.604   9.766 -0.6378  0.8437 -0.5174
 1214TIP3   OH227836   5.288   0.438  11.029  0.6170 -0.0796 -0.2077
 1214TIP3    H127837   5.357   0.497  10.999 -1.6822  1.0556 -3.9332
 1214TIP3    H227838   5.216   0.496  11.053  0.7770 -1.2279  3.6295
 1215TIP3   OH227839   0.709   6.709   9.962  0.4421 -0.1086 -0.2509
 1215TIP3    H127840   0.778   6.742   9.904  0.4018 -0.0426 -0.2613
 1215TIP3    H227841   0.733   6.618   9.978  1.1138  0.2110  0.6145
 1216TIP3   OH227842   6.287   2.573  11.720  1.0716  0.1436  0.3841
 1216TIP3    H127843   6.216   2.548  11.779  1.0305 -0.2426  0.1786
 1216TIP3    H227844   6.352   2.504  11.730  1.0105  0.0099 -0.1037
 1217TIP3   OH227845   3.811   5.161   9.914  0.6090  0.2928 -0.4515
 1217TIP3    H127846   3.730   5.119   9.943  0.9170 -1.1636 -1.5724
 1217TIP3    H227847   3.838   5.214   9.989 -2.6116  2.7819 -0.8341
 1218TIP3   OH227848   5.464   2.484   9.536 -0.5619  0.1081  0.1947
 1218TIP3    H127849   5.492   2.548   9.601 -0.5274  0.3090 -0.0152
 1218TIP3    H227850   5.545   2.449   9.499 -0.5733  0.8124 -0.5309
 1219TIP3   OH227851   3.216   4.185  11.752 -0.1938 -0.3109  1.0227
 1219TIP3    H127852   3.254   4.102  11.779 -0.9789 -1.9800 -2.3797
 1219TIP3    H227853   3.227   4.187  11.657 -0.4413  3.4182  0.9041
 1220TIP3   OH227854   2.983   5.545  10.613 -0.1854  0.5538 -0.0946
 1220TIP3    H127855   3.060   5.577  10.566  0.1271 -1.1651 -0.8331
 1220TIP3    H227856   2.919   5.526  10.544 -2.3398  4.2886  0.5969
 1221TIP3   OH227857   2.146   0.925   9.058  0.1262 -0.4686 -0.2692
 1221TIP3    H127858   2.092   0.846   9.054  0.2760 -0.5435 -0.9132
 1221TIP3    H227859   2.216   0.909   8.994  0.5331 -0.0913  0.0734
 1222TIP3   OH227860   3.903   1.541  10.997 -0.1298 -0.3628 -0.6020
 1222TIP3    H127861   3.935   1.607  11.059  0.0764 -0.7214 -0.3218
 1222TIP3    H227862   3.924   1.457  11.038 -1.9558 -0.6339 -0.1384
 1223TIP3   OH227863   4.854   3.106  11.610 -0.0299  0.5070 -0.0605
 1223TIP3    H127864   4.773   3.132  11.566 -0.2650  0.4807  0.3571
 1223TIP3    H227865   4.867   3.172  11.678 -0.4179 -0.2235  0.7405
 1224TIP3   OH227866   6.060   4.852  11.076  0.0722 -0.4177  0.4363
 1224TIP3    H127867   6.103   4.784  11.025 -2.1935 -1.5748 -0.0624
 1224TIP3    H227868   6.045   4.812  11.162  1.5643  0.6262  1.2329
 1225TIP3   OH227869   0.707   1.295  11.592 -0.2673  0.1522  0.4580
 1225TIP3    H127870   0.630   1.239  11.591 -1.3942  1.6200  0.5099
 1225TIP3    H227871   0.678   1.376  11.550  1.9015 -0.0169 -1.5586
 1226TIP3   OH227872   1.834   5.850   9.668 -0.3531  0.1367 -0.2367
 1226TIP3    H127873   1.779   5.823   9.595  0.2892 -1.5374 -0.1566
 1226TIP3    H227874   1.819   5.783   9.735  0.8965  0.2844  0.2181
 1227TIP3   OH227875   2.907   4.284  10.998 -0.4250  0.4231  0.3216
 1227TIP3    H127876   2.981   4.330  10.958  0.2809 -0.8582  0.0976
 1227TIP3    H227877   2.834   4.345  10.992 -0.2287  0.4802 -2.4683
 1228TIP3   OH227878   1.432   5.931   9.115  0.1380  0.2495  0.3505
 1228TIP3    H127879   1.441   5.938   9.020  2.6824 -1.1533  0.3814
 1228TIP3    H227880   1.393   5.844   9.129  0.9702 -0.1066  0.5651
 1229TIP3   OH227881   5.776   3.925  10.589 -0.4947  0.1026 -0.0646
 1229TIP3    H127882   5.780   3.945  10.496  1.9893  0.2918  0.0237
 1229TIP3    H227883   5.824   3.843  10.598  0.4842  0.7715  1.1737
 1230TIP3   OH227884   6.193   4.141  10.065 -0.0041  0.2521  0.1461
 1230TIP3    H127885   6.174   4.213  10.005  0.0981 -0.7837 -1.1695
 1230TIP3    H227886   6.173   4.176  10.152  0.4957  2.0125 -0.4074
 1231TIP3   OH227887   6.410   0.096   9.471 -0.0311 -0.2781  0.0344
 1231TIP3    H127888   6.382   0.183   9.502  0.1793  0.1497 -0.9307
 1231TIP3    H227889   6.370   0.088   9.384  1.0072 -0.5942 -0.4294
 1232TIP3   OH227890   5.132   1.386  10.628  0.5335 -0.2121 -0.6746
 1232TIP3    H127891   5.056   1.433  10.664 -0.0692  1.0775 -3.3705
 1232TIP3    H227892   5.206   1.415  10.682 -0.2918  1.6602 -0.4488
 1233TIP3   OH227893   5.541   4.410   8.718  0.3355 -0.6529 -0.0666
 1233TIP3    H127894   5.570   4.333   8.669  1.3256  0.0566 -0.6314
 1233TIP3    H227895   5.611   4.475   8.705  0.4519 -0.2933  1.9682
 1234TIP3   OH227896   1.741   6.026   9.852 -0.0177 -0.2184  0.3640
 1234TIP3    H127897   1.668   6.080   9.821 -0.6589 -0.8519  0.7165
 1234TIP3    H227898   1.767   5.976   9.775  0.4781  0.4708  0.0761
 1235TIP3   OH227899   6.726   5.620   8.546 -0.2173  0.2310  0.1691
 1235TIP3    H127900   6.776   5.664   8.477 -0.7720  0.6281  0.0114
 1235TIP3    H227901   6.650   5.676   8.559 -0.8578 -0.6045  0.0797
 1236TIP3   OH227902   6.204   2.612  10.522  0.0202 -0.1428 -0.1195
 1236TIP3    H127903   6.226   2.519  10.526 -1.6370 -0.6613 -1.7019
 1236TIP3    H227904   6.273   2.651  10.468  0.7774 -0.4121  0.6418
 1237TIP3   OH227905   2.825   2.974  10.095  0.1187 -0.1886  0.1856
 1237TIP3    H127906   2.819   3.048  10.034 -0.7198  0.2190  0.7447
 1237TIP3    H227907   2.907   2.930  10.072 -0.3368 -0.2524 -1.4687
 1238TIP3   OH227908   1.819   2.387   8.649 -0.1283  0.0097  0.2531
 1238TIP3    H127909   1.729   2.418   8.653 -0.3099 -0.4855  0.1532
 1238TIP3    H227910   1.831   2.336   8.729 -0.1179 -0.3771  0.0118
 1239TIP3   OH227911   5.999   4.167   9.294 -0.3699 -0.1130  0.4786
 1239TIP3    H127912   5.967   4.231   9.231 -2.4202  0.8634  2.3280
 1239TIP3    H227913   5.937   4.094   9.287  0.3663 -0.7139  0.2204
 1240TIP3   OH227914   2.563   3.294   9.496  0.4888 -0.0500 -0.0576
 1240TIP3    H127915   2.590   3.376   9.536  0.1857 -0.5310  1.1619
 1240TIP3    H227916   2.594   3.300   9.406  0.9645  1.1558  0.1730
 1241TIP3   OH227917   0.689   3.909  11.571 -0.0302  0.3114 -0.3150
 1241TIP3    H127918   0.734   3.847  11.514  0.3137  0.1359  0.1356
 1241TIP3    H227919   0.751   3.924  11.643 -0.8092 -0.1713  0.4792
 1242TIP3   OH227920   1.347   4.033  11.715 -0.3283 -0.2790 -0.5410
 1242TIP3    H127921   1.441   4.039  11.699 -0.4336 -1.4686 -1.7908
 1242TIP3    H227922   1.317   4.124  11.718  0.7422  0.1031 -0.9658
 1243TIP3   OH227923   2.974   1.019  11.734 -0.1807  0.6812  0.4957
 1243TIP3    H127924   2.979   0.955  11.805  0.9562  0.0366 -0.1284
 1243TIP3    H227925   2.917   0.979  11.669  1.9432 -0.6046 -0.7042
 1244TIP3   OH227926   0.484   1.823  11.361  0.3309 -0.1115 -0.1708
 1244TIP3    H127927   0.467   1.762  11.432  1.7603 -0.6691 -0.2812
 1244TIP3    H227928   0.462   1.909  11.397  0.6685 -0.4257  0.8140
 1245TIP3   OH227929   5.532   1.258   9.954  0.0381  0.1859  0.1566
 1245TIP3    H127930   5.627   1.265   9.962 -0.0556  1.3473  0.4738
 1245TIP3    H227931   5.499   1.276  10.042 -0.4956  0.5025 -0.0996
 1246TIP3   OH227932   3.454   6.622  11.001 -0.6308  0.1396 -0.0408
 1246TIP3    H127933   3.491   6.630  10.913 -0.3123  0.0097  0.0773
 1246TIP3    H227934   3.359   6.626  10.988 -0.5721  0.6107 -0.3363
 1247TIP3   OH227935   5.251   1.327   9.666  1.4488 -0.1119  0.0702
 1247TIP3    H127936   5.223   1.284   9.585  0.2318 -0.1908  0.5086
 1247TIP3    H227937   5.334   1.369   9.643  1.0329  0.0349 -1.2708
 1248TIP3   OH227938   6.747   2.506   9.962  0.3165 -0.1410 -0.2448
 1248TIP3    H127939   6.750   2.444   9.890 -0.6761 -1.3126  0.6908
 1248TIP3    H227940   6.805   2.468  10.028 -1.7443 -1.1307  1.0947
 1249TIP3   OH227941   2.687   3.992   9.577  0.3135 -0.1045 -0.1081
 1249TIP3    H127942   2.704   4.029   9.664 -1.3493 -1.0258  0.6492
 1249TIP3    H227943   2.742   3.915   9.572  1.5344  0.7621 -0.4983
 1250TIP3   OH227944   2.293   0.319   9.868  0.3709  0.3655  0.1901
 1250TIP3    H127945   2.228   0.358   9.808 -0.8371 -0.3291  0.9978
 1250TIP3    H227946   2.265   0.347   9.955  1.6689  0.7295  0.5105
 1251TIP3   OH227947   5.049   3.637  10.351  0.2842  0.7729 -0.3041
 1251TIP3    H127948   5.054   3.566  10.286 -1.8665 -0.8819  1.1852
 1251TIP3    H227949   5.139   3.648  10.381  0.6458 -1.8457 -0.1524
 1252TIP3   OH227950   4.353   1.781   9.817 -0.1124 -0.3992  1.3065
 1252TIP3    H127951   4.385   1.697   9.852 -0.9951  0.2436  3.8909
 1252TIP3    H227952   4.277   1.757   9.764 -0.1858 -1.2485  1.7795
 1253TIP3   OH227953   1.040   6.713   9.464 -0.0871  0.4506 -0.1739
 1253TIP3    H127954   0.953   6.744   9.488 -1.1892 -2.3272 -0.1849
 1253TIP3    H227955   1.038   6.706   9.369 -0.6874 -1.6963 -0.0403
 1254TIP3   OH227956   3.868   5.275  10.145  0.1579  0.4389  0.5659
 1254TIP3    H127957   3.852   5.211  10.214 -2.2446  1.2986  0.9171
 1254TIP3    H227958   3.942   5.327  10.176 -0.0161 -0.0531  1.8545
 1255TIP3   OH227959   1.111   3.495   8.587  0.2149  0.1722  0.0785
 1255TIP3    H127960   1.106   3.585   8.619  1.3735  0.0038  0.7957
 1255TIP3    H227961   1.020   3.465   8.584 -0.2537  1.5757 -0.8321
 1256TIP3   OH227962   6.716   0.452   9.912  0.1462  0.8441  0.2608
 1256TIP3    H127963   6.681   0.364   9.923 -0.8454  1.4307  2.4858
 1256TIP3    H227964   6.734   0.460   9.818 -0.6881 -1.3553 -0.1352
 1257TIP3   OH227965   0.365   4.344  11.382  0.3371  0.0764 -0.2957
 1257TIP3    H127966   0.428   4.285  11.422  0.2814  0.9506  1.1587
 1257TIP3    H227967   0.334   4.400  11.454  0.1621  1.6707 -1.5311
 1258TIP3   OH227968   6.735   3.987   9.981 -0.0845  0.9463  0.6763
 1258TIP3    H127969   6.790   3.986   9.903 -0.3802  0.8870  0.4678
 1258TIP3    H227970   6.653   4.027   9.952 -0.6589 -0.2353  0.6344
 1259TIP3   OH227971   5.465   0.021  10.969  0.0384  0.2287  0.2569
 1259TIP3    H127972   5.405  -0.033  10.917  1.2288  0.5338 -1.5216
 1259TIP3    H227973   5.515  -0.041  11.021  0.8349 -0.3695 -1.1681
 1260TIP3   OH227974   2.897   3.756   9.040  0.7165 -0.5849  0.0616
 1260TIP3    H127975   2.967   3.692   9.025 -0.7151 -2.1249 -0.4954
 1260TIP3    H227976   2.892   3.806   8.959  0.0222 -1.7063 -0.6226
 1261TIP3   OH227977   2.475   2.648  11.215  1.0748  0.2216  0.3234
 1261TIP3    H127978   2.428   2.566  11.225  1.0362 -0.0540 -1.6801
 1261TIP3    H227979   2.484   2.682  11.304 -1.6537 -0.3989  0.9308
 1262TIP3   OH227980   1.112   0.993  10.594 -0.3343  0.6697 -0.2856
 1262TIP3    H127981   1.151   0.907  10.612  1.7158  1.3703 -1.0682
 1262TIP3    H227982   1.044   0.974  10.530 -0.1319 -0.4217 -0.2065
 1263TIP3   OH227983   0.156   0.042  10.866 -0.1992  0.3142 -0.1693
 1263TIP3    H127984   0.166   0.137  10.876  2.1203  0.0852  0.2661
 1263TIP3    H227985   0.125   0.013  10.952  0.6272  0.5426  0.2263
 1264TIP3   OH227986   0.322   0.350  11.284 -0.2818 -0.1276  0.7141
 1264TIP3    H127987   0.237   0.311  11.305 -0.1379 -0.4288  0.7505
 1264TIP3    H227988   0.364   0.285  11.228  0.2448 -0.3365  1.3434
 1265TIP3   OH227989   0.271   5.463  11.219 -0.3127  0.2307 -0.7641
 1265TIP3    H127990   0.335   5.432  11.155 -1.3850  0.4296 -1.9874
 1265TIP3    H227991   0.191   5.413  11.199 -1.5109  2.3003 -1.5138
 1266TIP3   OH227992   0.912   4.699  10.186 -0.0621 -0.3964  0.5452
 1266TIP3    H127993   0.951   4.625  10.232 -0.8989 -0.7352  0.7356
 1266TIP3    H227994   0.935   4.686  10.094  0.3951 -0.4996  0.6730
 1267TIP3   OH227995   6.174   4.021  10.961 -0.1431 -0.0994  0.3726
 1267TIP3    H127996   6.267   4.040  10.977  0.0037 -0.7207  0.2975
 1267TIP3    H227997   6.151   3.959  11.031 -0.9474  1.3077  1.3948
 1268TIP3   OH227998   0.494   5.584  10.761 -0.2479 -0.3539  0.6786
 1268TIP3    H127999   0.537   5.629  10.833 -1.3214  0.3367  0.9157
 1268TIP3    H228000   0.408   5.626  10.755 -0.4579 -0.9233 -0.5057
 1269TIP3   OH228001   6.532   3.770   9.198 -0.2976  0.0677  0.6174
 1269TIP3    H128002   6.472   3.698   9.178 -1.4482  1.2260 -0.3087
 1269TIP3    H228003   6.475   3.847   9.203  0.9982  1.0334  0.7661
 1270TIP3   OH228004   0.704   2.129   7.654 -0.1488 -0.0612 -0.2139
 1270TIP3    H128005   0.755   2.080   7.589 -0.0320 -1.8693  1.1384
 1270TIP3    H228006   0.665   2.061   7.710 -2.2793  1.3425  0.1188
 1271TIP3   OH228007   6.146   5.816  10.619 -0.1059  0.0185  0.1573
 1271TIP3    H128008   6.224   5.823  10.674  0.8237 -0.0666 -1.1091
 1271TIP3    H228009   6.102   5.736  10.649  0.0580  0.2880  1.1549
 1272TIP3   OH228010   0.335   2.847   9.613  0.6528 -0.0115  0.1601
 1272TIP3    H128011   0.320   2.796   9.534  1.8838  0.2150 -0.2315
 1272TIP3    H228012   0.275   2.921   9.606  0.1660 -0.4280 -0.1501
 1273TIP3   OH228013   2.283   2.332  10.810  0.1340 -0.5593  0.3763
 1273TIP3    H128014   2.212   2.338  10.746  0.4588 -1.0626 -0.0366
 1273TIP3    H228015   2.267   2.250  10.857  1.1730 -1.3694 -0.6267
 1274TIP3   OH228016   5.483   5.533  10.134  0.1483  0.5230 -0.9880
 1274TIP3    H128017   5.422   5.492  10.195  0.6473 -1.0839 -1.5194
 1274TIP3    H228018   5.482   5.626  10.157 -0.5789  0.1327  0.6534
 1275TIP3   OH228019   0.293   6.426   9.668 -0.2815 -0.2562 -0.2692
 1275TIP3    H128020   0.199   6.406   9.677 -0.4732  0.6811 -0.1388
 1275TIP3    H228021   0.327   6.355   9.613 -0.8502 -1.2035  0.5486
 1276TIP3   OH228022   4.722   0.140  11.915  0.0164  0.1023 -0.7440
 1276TIP3    H128023   4.684   0.197  11.848 -0.7287  1.5420  0.8437
 1276TIP3    H228024   4.694   0.178  11.998 -1.2050 -3.0020  0.4387
 1277TIP3   OH228025   1.749   2.562  11.711 -0.3536  0.4205 -0.6386
 1277TIP3    H128026   1.677   2.499  11.707 -0.8399  0.9274 -4.7902
 1277TIP3    H228027   1.706   2.647  11.721 -0.0511  0.4707  0.2899
 1278TIP3   OH228028   1.234   1.742  10.687  0.0940  0.1599  0.3688
 1278TIP3    H128029   1.262   1.833  10.685  1.3461 -0.1835  1.1851
 1278TIP3    H228030   1.186   1.729  10.606  0.0354  1.5025  0.1779
 1279TIP3   OH228031   1.028   3.353  11.589 -0.2245  0.1133 -0.2131
 1279TIP3    H128032   0.952   3.372  11.645 -1.1199  0.2689 -1.4511
 1279TIP3    H228033   1.005   3.390  11.504  0.7580 -0.8578 -0.9230
 1280TIP3   OH228034   1.467   2.550   9.346 -0.2333 -0.2464  0.1474
 1280TIP3    H128035   1.411   2.606   9.292  1.1874  0.1487 -0.9938
 1280TIP3    H228036   1.460   2.464   9.306  0.8515  0.0552 -0.7313
 1281TIP3   OH228037   0.609   1.789   7.560 -0.6510 -0.1627  0.0569
 1281TIP3    H128038   0.616   1.825   7.649 -1.5590 -0.7100  0.3629
 1281TIP3    H228039   0.555   1.853   7.513 -1.2636 -0.5139  0.2701
 1282TIP3   OH228040   0.233   5.085  11.761  0.3331  0.2771  0.1037
 1282TIP3    H128041   0.144   5.053  11.744 -0.1258 -0.4894  3.2757
 1282TIP3    H228042   0.285   5.006  11.773  0.5752  0.6727  1.9009
 1283TIP3   OH228043   1.764   0.478   9.402  0.4467  0.1387  0.4120
 1283TIP3    H128044   1.852   0.461   9.370  0.9385  0.9399  1.2775
 1283TIP3    H228045   1.727   0.540   9.340  0.7169  0.2757  0.3892
 1284TIP3   OH228046   4.106   3.296  11.579  0.3833  0.4926 -0.1175
 1284TIP3    H128047   4.174   3.341  11.629 -0.8097  1.3107  0.8411
 1284TIP3    H228048   4.059   3.244  11.644  0.3261 -0.3511 -0.8282
 1285TIP3   OH228049   3.435   0.676  10.707 -0.4097 -0.0194  0.4950
 1285TIP3    H128050   3.504   0.691  10.772 -1.4924  0.5073  1.5634
 1285TIP3    H228051   3.354   0.677  10.758 -1.6184  3.3850 -1.1990
 1286TIP3   OH228052   2.479   6.385   9.918  0.7919 -0.6042 -0.2059
 1286TIP3    H128053   2.486   6.370   9.824  0.3747 -1.4884 -0.1104
 1286TIP3    H228054   2.565   6.418   9.944  1.0708 -0.8347 -0.8169
 1287TIP3   OH228055   3.694   5.108  11.584  0.1927  0.5426  0.4363
 1287TIP3    H128056   3.747   5.179  11.549  0.9823 -0.8813 -1.4507
 1287TIP3    H228057   3.758   5.050  11.626 -0.0544 -0.3431 -0.3736
 1288TIP3   OH228058   2.003   1.598   9.699  0.2190 -0.3589 -0.0835
 1288TIP3    H128059   1.956   1.520   9.669  0.6275 -0.3450 -0.7744
 1288TIP3    H228060   2.096   1.576   9.691  0.3500 -0.2102  0.8185
 1289TIP3   OH228061   5.169   1.987  11.601  0.3197 -0.5001  0.4067
 1289TIP3    H128062   5.161   2.074  11.563  0.2404  0.7719  3.0609
 1289TIP3    H228063   5.261   1.963  11.586  0.3329  0.0039 -0.3857
 1290TIP3   OH228064   6.732   4.159  11.144 -0.1199  0.7496 -0.3999
 1290TIP3    H128065   6.682   4.167  11.063  0.0532  0.1620 -0.5693
 1290TIP3    H228066   6.671   4.181  11.214 -0.4806  0.5090 -0.6399
 1291TIP3   OH228067   0.122   4.124  10.626 -0.6251  0.8429  0.4409
 1291TIP3    H128068   0.173   4.046  10.647 -1.5350  0.1857  0.2729
 1291TIP3    H228069   0.045   4.119  10.683 -1.0021  1.2918 -0.0161
 1292TIP3   OH228070   2.543   0.628  10.324  0.0693 -0.0771 -0.5320
 1292TIP3    H128071   2.552   0.533  10.313  0.3559 -0.0019 -0.9823
 1292TIP3    H228072   2.624   0.655  10.366  0.7769  0.2045 -2.0051
 1293TIP3   OH228073   6.717   0.501  11.571  0.5012  0.3043  0.0485
 1293TIP3    H128074   6.623   0.512  11.584  0.4512 -0.5979  0.4646
 1293TIP3    H228075   6.729   0.408  11.554  1.2820  0.4676 -0.3427
 1294TIP3   OH228076   2.339   5.774  10.109 -0.0298 -0.1173 -0.4636
 1294TIP3    H128077   2.356   5.773  10.015  1.5585 -3.7064 -0.2855
 1294TIP3    H228078   2.388   5.850  10.141 -0.5079  1.1145 -2.4571
 1295TIP3   OH228079   5.791   5.377  10.556 -0.3760  0.7212 -0.7586
 1295TIP3    H128080   5.764   5.374  10.648 -0.0873  1.1255 -0.6550
 1295TIP3    H228081   5.867   5.320  10.551  0.2669  1.5416 -0.5086
 1296TIP3   OH228082   0.192   1.540  10.931  0.0874 -0.2977 -0.1518
 1296TIP3    H128083   0.120   1.599  10.907 -1.0592 -1.2123  0.9164
 1296TIP3    H228084   0.168   1.456  10.892  0.7829 -0.5280 -0.0983
 1297TIP3   OH228085   0.624   3.893  11.145 -0.0142  0.0159 -0.0244
 1297TIP3    H128086   0.596   3.982  11.167 -0.4545 -0.1106 -0.0704
 1297TIP3    H228087   0.580   3.837  11.208 -1.9703 -0.4347 -1.6723
 1298TIP3   OH228088   4.675   2.417  10.084  0.1302  0.0325 -0.0283
 1298TIP3    H128089   4.759   2.395  10.044 -0.6949  0.4123 -2.0895
 1298TIP3    H228090   4.614   2.421  10.011 -1.4125  1.1400  1.2512
 1299TIP3   OH228091   5.913   2.819   8.522  0.2833  0.1696  0.2083
 1299TIP3    H128092   5.933   2.801   8.614 -1.0673 -0.4143  0.4105
 1299TIP3    H228093   5.995   2.851   8.486  1.0550 -0.3488  1.4252
 1300TIP3   OH228094   6.094   5.101  11.461 -0.0080  0.4404 -0.2423
 1300TIP3    H128095   6.077   5.195  11.455 -1.2203  0.2754  0.4392
 1300TIP3    H228096   6.016   5.064  11.501  0.5481 -0.8392 -0.2757
 1301TIP3   OH228097   2.960   2.871   9.066 -0.0569  0.6705 -0.1731
 1301TIP3    H128098   2.991   2.955   9.031  0.6490 -0.7105 -3.2371
 1301TIP3    H228099   2.866   2.871   9.048 -0.0998  0.9195  0.0541
 1302TIP3   OH228100   0.549   4.163  11.540 -0.0558 -0.1097  0.0221
 1302TIP3    H128101   0.511   4.077  11.523 -0.8950  0.4680 -1.2123
 1302TIP3    H228102   0.635   4.161  11.498 -0.0911 -0.3306 -0.0396
 1303TIP3   OH228103   1.211   0.784  11.486 -0.6258  0.4082  0.6748
 1303TIP3    H128104   1.197   0.770  11.579 -2.1747  2.1442  0.7682
 1303TIP3    H228105   1.139   0.840  11.459  0.6231  1.2116 -1.2433
 1304TIP3   OH228106   1.006   2.017  11.735 -0.2246 -0.0285  0.5105
 1304TIP3    H128107   0.975   2.033  11.645 -1.5653 -0.1722  0.9274
 1304TIP3    H228108   0.939   2.057  11.790 -0.0970 -1.0981  1.4706
 1305TIP3   OH228109   6.146   6.642   8.733 -0.4191  0.4359  0.3633
 1305TIP3    H128110   6.114   6.731   8.718  3.5690  1.8779 -0.8097
 1305TIP3    H228111   6.123   6.595   8.653  1.1507  1.7453 -0.9385
 1306TIP3   OH228112   1.407   2.546  11.319 -0.0987 -0.0048  0.7373
 1306TIP3    H128113   1.322   2.528  11.359 -0.2647 -0.5363  0.1509
 1306TIP3    H228114   1.402   2.506  11.233  0.7876 -0.1291  0.7346
 1307TIP3   OH228115   3.037   4.929   9.567 -0.2122  0.2865 -0.4365
 1307TIP3    H128116   2.944   4.949   9.571  0.1889  2.5666 -1.0798
 1307TIP3    H228117   3.060   4.901   9.656 -1.3893  0.3021 -0.1193
 1308TIP3   OH228118   3.979   2.790   9.004 -0.2589  0.2499 -0.2673
 1308TIP3    H128119   3.938   2.707   8.979  0.0101 -0.3085  1.0888
 1308TIP3    H228120   4.072   2.777   8.985 -0.2668  0.3867 -0.4046
 1309TIP3   OH228121   4.592   5.376  10.563  0.1366  0.3700 -0.1998
 1309TIP3    H128122   4.619   5.285  10.550 -1.3704 -0.0412 -0.6139
 1309TIP3    H228123   4.617   5.420  10.482 -2.6112 -0.5772 -1.6992
 1310TIP3   OH228124   1.130   3.061  10.094 -0.4083  0.2950  0.1041
 1310TIP3    H128125   1.184   2.984  10.078 -1.6690 -0.3472 -1.2131
 1310TIP3    H228126   1.193   3.134  10.094  0.5444 -0.4923 -0.6884
 1311TIP3   OH228127   1.702   2.843  10.573 -0.2986  0.0463  0.4543
 1311TIP3    H128128   1.748   2.785  10.634  1.8748  2.6440  1.5227
 1311TIP3    H228129   1.747   2.927  10.583 -0.3255  0.8522 -4.2151
 1312TIP3   OH228130   0.586   6.559   9.449  0.0674 -0.3977 -0.2114
 1312TIP3    H128131   0.616   6.501   9.379 -0.8774  2.2409 -2.9956
 1312TIP3    H228132   0.509   6.603   9.413  0.6167  2.4544  1.7614
 1313TIP3   OH228133   3.168   4.445  11.903  0.5887  0.3880  0.5470
 1313TIP3    H128134   3.182   4.362  11.858 -0.0429  1.3337 -1.4584
 1313TIP3    H228135   3.080   4.438  11.940 -0.2956  0.9074 -1.3702
 1314TIP3   OH228136   1.536   1.723  10.476 -0.3987 -0.1204  0.1379
 1314TIP3    H128137   1.572   1.696  10.560 -0.7730 -0.1266  0.2965
 1314TIP3    H228138   1.477   1.796  10.497  0.0602  0.3603 -0.2037
 1315TIP3   OH228139   1.452   3.097   8.627 -0.1958  0.3595 -0.0204
 1315TIP3    H128140   1.525   3.159   8.617  0.6453 -0.4545  0.8775
 1315TIP3    H228141   1.486   3.015   8.592 -0.8587  0.0992 -0.0535
 1316TIP3   OH228142   6.293   0.738  10.678  0.5516  0.1839 -0.6685
 1316TIP3    H128143   6.248   0.748  10.594 -0.1731 -1.1281 -0.4697
 1316TIP3    H228144   6.278   0.646  10.703  1.1045  0.4288  0.6921
 1317TIP3   OH228145   2.362   6.421   9.133  0.4180 -0.1803 -0.1701
 1317TIP3    H128146   2.422   6.347   9.132  0.6364 -0.0436  0.8820
 1317TIP3    H228147   2.275   6.382   9.124  0.6617 -0.2339 -4.1026
 1318TIP3   OH228148   4.397   5.793   9.396  0.4578  0.0036  0.0867
 1318TIP3    H128149   4.377   5.782   9.303  0.4500  0.3068  0.0485
 1318TIP3    H228150   4.474   5.738   9.411  0.8593  0.4611 -0.2505
 1319TIP3   OH228151   3.055   2.830  10.267  0.3025 -0.4785 -0.6923
 1319TIP3    H128152   3.114   2.835  10.192  3.5915  1.9721  1.7280
 1319TIP3    H228153   3.092   2.760  10.321  1.2565  1.2099  0.9503
 1320TIP3   OH228154   0.138   1.005  10.828 -0.3467 -0.3027  0.5860
 1320TIP3    H128155   0.231   0.991  10.810 -0.5132 -0.6524 -0.0533
 1320TIP3    H228156   0.129   0.991  10.922  0.3477  0.3455  0.7551
 1321TIP3   OH228157   6.360   1.397  10.646  0.5115  0.0940  0.9914
 1321TIP3    H128158   6.328   1.339  10.576  0.6753  2.9241 -1.6986
 1321TIP3    H228159   6.288   1.401  10.709 -0.7429 -0.6575 -0.3355
 1322TIP3   OH228160   0.542   0.397   8.922  0.2468 -0.2394 -0.2413
 1322TIP3    H128161   0.549   0.472   8.863  1.0540 -1.0688 -1.2448
 1322TIP3    H228162   0.566   0.432   9.008  2.1119  0.3534 -0.9570
 1323TIP3   OH228163   3.758   6.109  11.800  0.3685  0.1823  0.0088
 1323TIP3    H128164   3.671   6.118  11.760 -0.4237  0.3921  1.7076
 1323TIP3    H228165   3.779   6.016  11.790 -0.1300  0.0887 -0.2387
 1324TIP3   OH228166   1.235   4.697   8.512 -0.4157 -0.1472  0.0281
 1324TIP3    H128167   1.209   4.786   8.537  0.1184  0.0453 -0.0715
 1324TIP3    H228168   1.282   4.709   8.430 -1.2813 -0.6576 -0.5527
 1325TIP3   OH228169   4.715   6.685   8.846  0.2788 -0.1488 -0.0906
 1325TIP3    H128170   4.793   6.740   8.841  0.6471 -0.5952  0.6181
 1325TIP3    H228171   4.739   6.614   8.906 -1.0635  0.3706  1.1253
 1326TIP3   OH228172   0.724   3.977  10.532  0.4706 -0.4283  0.7454
 1326TIP3    H128173   0.792   3.916  10.561  0.3823 -1.1001 -0.4218
 1326TIP3    H228174   0.744   3.993  10.440 -0.2989  0.2592  0.6887
 1327TIP3   OH228175   4.198   0.142  10.400 -0.5292  0.3528 -0.0673
 1327TIP3    H128176   4.167   0.051  10.410 -0.8561  0.6034  1.4503
 1327TIP3    H228177   4.253   0.140  10.322 -0.2070 -1.2458  0.1602
 1328TIP3   OH228178   3.194   2.069   9.636 -0.4343 -0.0429 -0.2351
 1328TIP3    H128179   3.131   2.141   9.637 -1.5093 -0.9311  2.0795
 1328TIP3    H228180   3.141   1.992   9.619  0.0749 -0.7274  1.1411
 1329TIP3   OH228181   3.784   3.972   8.619  0.1083  0.0105 -0.7460
 1329TIP3    H128182   3.872   3.975   8.581  1.3314 -0.1886  1.8637
 1329TIP3    H228183   3.747   3.889   8.588  2.0675 -1.4117  0.4909
 1330TIP3   OH228184   2.904   2.259  11.788 -0.8294  0.2625 -0.1634
 1330TIP3    H128185   2.921   2.289  11.698  0.7537  1.6345  0.5557
 1330TIP3    H228186   2.917   2.165  11.784 -0.6463  0.3142 -1.3418
 1331TIP3   OH228187   2.834   2.817  10.427 -0.0107  0.3880  0.4418
 1331TIP3    H128188   2.914   2.826  10.374  0.1218 -0.1203  0.5573
 1331TIP3    H228189   2.837   2.728  10.460 -1.7997 -0.4779 -1.4704
 1332TIP3   OH228190   3.753   0.901  10.669 -0.3827  0.1296  0.5176
 1332TIP3    H128191   3.659   0.918  10.666 -0.7021 -1.2104  1.9041
 1332TIP3    H228192   3.793   0.984  10.641 -1.9571  0.3345 -1.2914
 1333TIP3   OH228193   0.145   0.516   9.117 -0.0109  0.1863 -0.5286
 1333TIP3    H128194   0.149   0.477   9.030 -0.2519 -0.1685 -0.3848
 1333TIP3    H228195   0.232   0.554   9.130  0.4919 -0.9699 -0.3743
 1334TIP3   OH228196   0.936   4.566  11.683 -0.0826  0.0587 -0.0922
 1334TIP3    H128197   0.865   4.570  11.620 -1.7131 -1.6646  1.5195
 1334TIP3    H228198   0.953   4.658  11.705 -1.2695  0.5393 -1.0598
 1335TIP3   OH228199   0.517   4.826   8.135  0.0714  0.0933  0.3093
 1335TIP3    H128200   0.442   4.794   8.184 -1.5565  1.4050 -1.1811
 1335TIP3    H228201   0.554   4.748   8.094 -0.9467 -0.4807  0.4661
 1336TIP3   OH228202   6.594   5.934  10.282  0.1030 -0.5651 -0.1141
 1336TIP3    H128203   6.566   5.940  10.373  1.1677  0.8177  0.1546
 1336TIP3    H228204   6.680   5.975  10.281  1.0935 -2.5042 -1.3487
 1337TIP3   OH228205   2.450   1.780  10.461  0.4339  0.6397  0.1625
 1337TIP3    H128206   2.410   1.694  10.474  0.3392  0.6429 -0.0992
 1337TIP3    H228207   2.542   1.767  10.485  0.4131  0.4737  0.1579
 1338TIP3   OH228208   4.528   0.851   9.893 -0.5009  0.5037 -0.2059
 1338TIP3    H128209   4.546   0.897   9.975  0.1131 -1.8422  1.0580
 1338TIP3    H228210   4.442   0.811   9.907 -0.3455 -0.0028 -0.6693
 1339TIP3   OH228211   0.559   1.915   8.644 -0.1061  0.3426 -0.1622
 1339TIP3    H128212   0.468   1.904   8.617 -0.3751 -1.4089  1.2805
 1339TIP3    H228213   0.569   2.010   8.656 -1.7695  0.5507 -0.2054
 1340TIP3   OH228214   3.780   1.250  10.831  0.4053 -0.7167  0.2818
 1340TIP3    H128215   3.815   1.177  10.781 -0.3135 -0.6616 -0.3112
 1340TIP3    H228216   3.816   1.328  10.789  0.3253 -0.6924  0.2576
 1341TIP3   OH228217   4.665   5.495  10.332 -0.1778  0.4373  0.1646
 1341TIP3    H128218   4.642   5.557  10.264 -1.9466 -0.3072  0.0271
 1341TIP3    H228219   4.737   5.444  10.295 -0.6529  0.4977 -0.8805
 1342TIP3   OH228220   1.224   1.947   9.819 -0.3315 -0.1188 -0.4193
 1342TIP3    H128221   1.237   2.024   9.874 -0.1783 -0.4818  0.0581
 1342TIP3    H228222   1.184   1.882   9.877 -0.3864 -0.4255 -0.7958
 1343TIP3   OH228223   3.229   3.828   9.436  0.0764 -0.6214  0.5438
 1343TIP3    H128224   3.260   3.737   9.434  2.2301  0.0089  1.5864
 1343TIP3    H228225   3.309   3.880   9.439 -1.1186  1.2717  1.3198
 1344TIP3   OH228226   1.417   4.247   9.947  0.5256  0.2287 -0.2885
 1344TIP3    H128227   1.430   4.318   9.884  0.2159 -0.7691 -1.4949
 1344TIP3    H228228   1.323   4.231   9.946  0.4327  0.5719  0.8756
 1345TIP3   OH228229   3.084   2.271  10.808 -0.3052 -0.1668 -0.8922
 1345TIP3    H128230   3.087   2.186  10.765 -0.9664 -0.8732  0.4050
 1345TIP3    H228231   2.991   2.285  10.828 -0.2672  1.0622 -1.4455
 1346TIP3   OH228232   4.809   4.307  10.444  0.2315 -0.3443  0.5024
 1346TIP3    H128233   4.747   4.380  10.442  0.3305 -0.2819 -0.7047
 1346TIP3    H228234   4.787   4.254  10.368  0.6430 -1.1836  0.9516
 1347TIP3   OH228235   5.929   2.045   9.581  0.0288 -0.9753  0.3242
 1347TIP3    H128236   5.983   1.970   9.605 -0.1232 -0.3094  3.0322
 1347TIP3    H228237   5.882   2.068   9.661 -1.9594  0.3853 -1.1201
 1348TIP3   OH228238   0.170   2.370   9.573  0.1480  0.3658 -0.3986
 1348TIP3    H128239   0.120   2.338   9.497  2.3877 -0.0858 -1.7780
 1348TIP3    H228240   0.187   2.291   9.625  0.4481  0.3036 -0.5853
 1349TIP3   OH228241   5.667   0.884  10.495 -0.2623 -0.6379 -0.1997
 1349TIP3    H128242   5.638   0.849  10.410 -0.4337 -1.0434  0.0236
 1349TIP3    H228243   5.615   0.964  10.506  1.1828  0.5164 -1.3933
 1350TIP3   OH228244   2.726   2.847  12.145  0.2162 -0.5051  0.3289
 1350TIP3    H128245   2.640   2.888  12.132 -0.0260 -1.2782 -0.6081
 1350TIP3    H228246   2.788   2.919  12.137 -0.4181  0.5196  3.2990
 1351TIP3   OH228247   2.994   0.650  11.810  0.2547  0.2727 -0.2778
 1351TIP3    H128248   2.936   0.703  11.754 -1.3086 -0.8766  0.1870
 1351TIP3    H228249   2.991   0.694  11.895  0.8553  0.7644 -0.5069
 1352TIP3   OH228250   6.568   1.231  10.126  0.0376 -0.1095  0.4286
 1352TIP3    H128251   6.503   1.175  10.168 -2.0566  1.6959 -0.2543
 1352TIP3    H228252   6.608   1.280  10.198  0.8960 -1.4167  0.8795
 1353TIP3   OH228253   5.556   6.725   9.720 -0.6140 -0.0828  0.2188
 1353TIP3    H128254   5.597   6.697   9.639  0.7029  0.3571  0.7024
 1353TIP3    H228255   5.620   6.785   9.760 -1.1263 -0.4434  1.6614
 1354TIP3   OH228256   1.144   2.515   9.706 -0.3512  0.2240 -0.0242
 1354TIP3    H128257   1.163   2.493   9.797  1.7645  2.6354  0.2263
 1354TIP3    H228258   1.165   2.435   9.658 -3.5393 -1.8280  1.6635
 1355TIP3   OH228259   3.424   3.826  10.771  0.0984 -0.3036  0.1317
 1355TIP3    H128260   3.350   3.787  10.819  0.5034  2.2556  3.1976
 1355TIP3    H228261   3.481   3.861  10.839  2.4161  0.8914 -2.2325
 1356TIP3   OH228262   3.299   2.203  10.172 -0.1880 -0.3015  0.3888
 1356TIP3    H128263   3.309   2.125  10.226  0.7487 -1.2728 -1.0971
 1356TIP3    H228264   3.286   2.168  10.083  1.4775  1.2073 -0.5067
 1357TIP3   OH228265   5.154   4.293   9.051  0.0203 -0.2010  0.0344
 1357TIP3    H128266   5.230   4.349   9.041 -0.0769 -0.2751 -1.3092
 1357TIP3    H228267   5.079   4.351   9.036 -0.1501 -0.3369  0.3477
 1358TIP3   OH228268   5.643   0.077  10.540 -0.1172  0.0377  0.8327
 1358TIP3    H128269   5.568   0.123  10.577 -1.6275 -1.6407 -0.0105
 1358TIP3    H228270   5.636  -0.012  10.574  0.6383 -0.5398 -0.4609
 1359TIP3   OH228271   3.311   2.454   9.328  0.0051  0.4495 -0.0728
 1359TIP3    H128272   3.244   2.448   9.260  1.1290 -0.0313 -1.1884
 1359TIP3    H228273   3.271   2.413   9.405 -0.9412  0.0949 -0.7352
 1360TIP3   OH228274   4.138   3.792  10.688 -0.0322 -0.6311  0.0717
 1360TIP3    H128275   4.144   3.870  10.633 -0.7040 -0.9710 -0.5057
 1360TIP3    H228276   4.228   3.759  10.692  0.0066 -0.7239 -1.0342
 1361TIP3   OH228277   0.324   3.009  10.939 -0.3327 -0.1318  0.2720
 1361TIP3    H128278   0.230   3.028  10.933 -0.4549 -1.1694 -1.4169
 1361TIP3    H228279   0.334   2.966  11.024 -0.9316  2.2550  1.6564
 1362TIP3   OH228280   0.005   0.657  11.358  0.1565 -0.7313  0.7228
 1362TIP3    H128281   0.058   0.736  11.367 -0.1188 -0.3035 -1.1068
 1362TIP3    H228282   0.019   0.610  11.441 -0.6591  1.7891  2.4128
 1363TIP3   OH228283   2.226   1.948   9.985  0.2748 -0.4790  0.4518
 1363TIP3    H128284   2.242   2.041  10.003  0.4673 -0.4303  0.0176
 1363TIP3    H228285   2.160   1.923  10.051  2.2473 -0.7554  2.4357
 1364TIP3   OH228286   1.545   1.204  11.719 -0.2367 -0.0594  0.2990
 1364TIP3    H128287   1.579   1.269  11.780  0.1600  3.0604 -2.9572
 1364TIP3    H228288   1.451   1.202  11.737 -0.0356  0.2164  1.4587
 1365TIP3   OH228289   0.242   5.049  10.516  0.1587  0.0614  0.2692
 1365TIP3    H128290   0.304   5.102  10.568  0.4174 -0.3213  0.3572
 1365TIP3    H228291   0.231   4.969  10.567 -1.0402  0.4552  0.6514
 1366TIP3   OH228292   2.070   0.118  10.165  0.4519 -0.3227  0.1026
 1366TIP3    H128293   2.085   0.067  10.085  0.8518 -2.9467  1.7154
 1366TIP3    H228294   2.042   0.204  10.135 -0.9336 -1.6783 -2.8308
 1367TIP3   OH228295   0.984   2.511  10.527  0.1026 -0.1647 -0.2503
 1367TIP3    H128296   0.907   2.484  10.477 -0.2374  0.5650 -0.1526
 1367TIP3    H228297   0.970   2.605  10.541  0.6781 -0.1649  0.3563
 1368TIP3   OH228298   4.741   3.940  11.745 -0.6934  0.0214 -0.0935
 1368TIP3    H128299   4.735   3.883  11.669  0.4280 -0.3057  0.0325
 1368TIP3    H228300   4.660   3.990  11.746 -2.2878 -2.4420  0.5056
 1369TIP3   OH228301   0.702   3.509  11.251 -0.2733  0.4055 -0.2143
 1369TIP3    H128302   0.607   3.513  11.261 -0.3214  1.6123 -1.0157
 1369TIP3    H228303   0.719   3.549  11.166  0.8187 -1.4715 -0.9299
 1370TIP3   OH228304   4.780   3.894  10.319 -0.1080 -0.3680  0.2279
 1370TIP3    H128305   4.747   3.865  10.233 -2.8834 -0.9745  1.3800
 1370TIP3    H228306   4.708   3.947  10.355  2.6407  3.6639  0.4779
 1371TIP3   OH228307   5.698   1.676  11.741 -0.5399  0.2978 -0.0721
 1371TIP3    H128308   5.789   1.646  11.746 -0.5199  0.5542  1.3397
 1371TIP3    H228309   5.648   1.606  11.782 -0.6799  1.3449  1.6188
 1372TIP3   OH228310   4.923   1.630  10.509 -0.0729  0.2838  0.2462
 1372TIP3    H128311   4.876   1.566  10.563 -2.2937  1.1946 -0.4638
 1372TIP3    H228312   4.879   1.713  10.526  0.2354  0.9069 -1.6655
 1373TIP3   OH228313   1.058   6.227   9.948  0.5204  0.3405 -0.0676
 1373TIP3    H128314   1.109   6.250  10.026 -1.8744  0.5714  1.5157
 1373TIP3    H228315   0.993   6.297   9.940 -0.9710 -1.0568 -0.6735
 1374TIP3   OH228316   6.044   1.434  10.442  0.5819  0.1209  0.4464
 1374TIP3    H128317   6.023   1.474  10.526  0.3531  1.8805 -0.4071
 1374TIP3    H228318   5.997   1.350  10.443 -0.0673  0.4767  1.7315
 1375TIP3   OH228319   0.126   1.262   9.572 -0.0466  0.3756 -0.1757
 1375TIP3    H128320   0.107   1.305   9.655 -1.2979 -0.6582  0.1094
 1375TIP3    H228321   0.121   1.168   9.592  0.7500  0.0989 -1.1781
 1376TIP3   OH228322   4.280   3.922  10.489 -0.6665  0.7031  0.1585
 1376TIP3    H128323   4.247   3.850  10.436 -1.7642  0.9868  0.4413
 1376TIP3    H228324   4.266   4.000  10.435  0.4872  0.7320 -0.1360
 1377TIP3   OH228325   3.020   3.712   9.692  0.1524 -0.3246  0.2108
 1377TIP3    H128326   2.996   3.769   9.619 -0.0071  1.0273  1.2948
 1377TIP3    H228327   3.055   3.633   9.650 -1.0905 -0.1018 -1.3381
 1378TIP3   OH228328   2.724   4.711   9.906 -0.2721  0.5719 -0.4179
 1378TIP3    H128329   2.751   4.803   9.899 -0.7789  0.7071 -0.6630
 1378TIP3    H228330   2.754   4.671   9.825 -1.3521  0.8768 -0.9985
 1379TIP3   OH228331   5.852   0.795   9.986  0.3841  0.1602  0.5938
 1379TIP3    H128332   5.862   0.711   9.940 -0.7124 -0.5644  1.6076
 1379TIP3    H228333   5.784   0.841   9.937 -1.8087 -1.1985  2.1745
 1380TIP3   OH228334   1.873   0.118   9.363  0.0326  0.1422 -0.2461
 1380TIP3    H128335   1.949   0.145   9.311 -0.8787  0.9013 -1.2554
 1380TIP3    H228336   1.901   0.127   9.454  0.5849  2.1908 -0.5702
 1381TIP3   OH228337   3.825   3.720  11.097 -0.2358 -0.4274  0.0815
 1381TIP3    H128338   3.882   3.736  11.173  1.2109 -0.7859 -0.8814
 1381TIP3    H228339   3.778   3.802  11.084  1.1116  0.3783  0.0838
 1382TIP3   OH228340   6.449   3.641  10.185 -0.2678  0.2220  0.5559
 1382TIP3    H128341   6.481   3.602  10.267  4.5178  1.0030 -0.6528
 1382TIP3    H228342   6.453   3.735  10.200 -4.2359  0.5006  0.8739
 1383TIP3   OH228343   0.875   1.743   8.150 -0.0005  0.5019  0.3513
 1383TIP3    H128344   0.789   1.780   8.128 -0.3487 -0.9795 -0.8930
 1383TIP3    H228345   0.856   1.654   8.177  1.1681  0.1162 -0.0653
 1384TIP3   OH228346   1.163   4.760   9.603 -0.6479  1.4207  0.0823
 1384TIP3    H128347   1.258   4.748   9.604 -0.7636  0.4414  0.8979
 1384TIP3    H228348   1.148   4.841   9.651 -0.2745  1.0777  0.7973
 1385TIP3   OH228349   6.108   3.152   9.056  0.0095 -0.2332 -0.3819
 1385TIP3    H128350   6.204   3.156   9.049  0.0350 -1.1657 -0.6717
 1385TIP3    H228351   6.086   3.225   9.113  0.8051  0.6114 -1.1138
 1386TIP3   OH228352   5.955   0.577   7.875  0.0592  0.2848 -0.2319
 1386TIP3    H128353   5.962   0.595   7.781  0.6212  0.8621 -0.0839
 1386TIP3    H228354   6.011   0.642   7.916 -1.1165  0.8060  0.5831
 1387TIP3   OH228355   6.633   2.759   9.992  0.6332 -0.3548  0.3250
 1387TIP3    H128356   6.550   2.756   9.945 -0.4679 -0.2215  2.1627
 1387TIP3    H228357   6.672   2.673   9.976 -0.1497 -0.6448 -0.0858
 1388TIP3   OH228358   1.520   0.262  10.681  0.0026  0.5615 -0.1855
 1388TIP3    H128359   1.550   0.212  10.604  3.4266 -1.4694  2.1905
 1388TIP3    H228360   1.446   0.211  10.715 -0.2463  0.3595 -1.0089
 1389TIP3   OH228361   1.053   2.563  11.627  0.0028  0.0826 -0.3511
 1389TIP3    H128362   1.089   2.477  11.607 -0.1040 -0.0260 -0.0805
 1389TIP3    H228363   0.958   2.549  11.633 -0.0210  0.2321 -0.3739
 1390TIP3   OH228364   4.697   6.114  10.926 -0.4484 -0.2889  0.2203
 1390TIP3    H128365   4.730   6.169  10.855 -0.0049 -0.5570  0.2113
 1390TIP3    H228366   4.683   6.029  10.885 -2.4011  0.1270 -0.0874
 1391TIP3   OH228367   6.679   0.595  10.843  0.3317  0.1990  0.3179
 1391TIP3    H128368   6.614   0.665  10.842 -0.6592 -0.6849  1.0066
 1391TIP3    H228369   6.719   0.599  10.930 -1.0392 -1.2196  1.0654
 1392TIP3   OH228370   0.102   0.628  11.755  0.5270  0.2856 -0.1028
 1392TIP3    H128371   0.033   0.580  11.708 -1.2652  3.7483 -1.3750
 1392TIP3    H228372   0.176   0.629  11.695  0.0740  0.3097 -0.6704
 1393TIP3   OH228373   3.423   2.047  10.984 -0.3027 -0.2080 -0.1343
 1393TIP3    H128374   3.395   2.033  10.893  0.1918 -0.9098 -0.1839
 1393TIP3    H228375   3.518   2.035  10.982 -0.3725 -0.9615  0.6029
 1394TIP3   OH228376   6.484   2.226  11.003  0.0071 -0.1961  0.1880
 1394TIP3    H128377   6.524   2.288  10.942 -0.5417  0.5348  0.5555
 1394TIP3    H228378   6.533   2.238  11.084 -1.6251  1.5479  0.9994
 1395TIP3   OH228379   4.449   5.317  10.153 -0.1344 -0.6668 -0.0904
 1395TIP3    H128380   4.537   5.328  10.117 -0.2417 -0.1474 -0.2065
 1395TIP3    H228381   4.393   5.310  10.076 -0.2467 -0.5745 -0.0168
 1396TIP3   OH228382   0.850   6.479   9.874  0.1226  0.1014 -0.2734
 1396TIP3    H128383   0.821   6.470   9.783  0.5259  1.0867 -0.5091
 1396TIP3    H228384   0.783   6.433   9.925  0.5862 -1.6341 -1.1494
 1397TIP3   OH228385   1.114   5.127  11.417 -0.2643  0.1618 -0.2009
 1397TIP3    H128386   1.129   5.033  11.426  1.4748  0.6207  2.4445
 1397TIP3    H228387   1.062   5.134  11.336 -0.7782 -3.0607 -0.3004
 1398TIP3   OH228388   3.795   2.457   9.979 -0.1227  0.1608  0.4499
 1398TIP3    H128389   3.707   2.441  10.011  0.0882  0.8822  1.4230
 1398TIP3    H228390   3.831   2.523  10.038  1.3315 -0.6438  0.5174
 1399TIP3   OH228391   1.251   2.574  10.012 -0.6827  0.8111 -0.2503
 1399TIP3    H128392   1.271   2.663  10.041  1.0228  0.2304  0.4790
 1399TIP3    H228393   1.335   2.539   9.983 -1.2767 -0.6512 -0.2885
 1400TIP3   OH228394   2.067   0.440   9.473  0.6227  0.0384 -0.2163
 1400TIP3    H128395   2.084   0.533   9.460  0.6178 -0.2516 -2.6767
 1400TIP3    H228396   2.148   0.396   9.448  0.1358 -0.7037 -0.5158
 1401TIP3   OH228397   2.704   2.749  11.096  0.3042  0.0025 -0.2673
 1401TIP3    H128398   2.662   2.828  11.062 -0.7676 -1.0317 -1.4660
 1401TIP3    H228399   2.636   2.705  11.147  0.5508 -0.6489 -0.4774
 1402TIP3   OH228400   3.382   2.547  10.814  0.5347  0.3552  0.5637
 1402TIP3    H128401   3.291   2.527  10.836  0.5661  0.1397  0.5045
 1402TIP3    H228402   3.412   2.470  10.765  1.2439 -0.3205  1.9885
 1403TIP3   OH228403   6.502   0.095  11.228 -0.7851 -0.5071  0.0466
 1403TIP3    H128404   6.576   0.119  11.285  0.2927 -0.6214 -1.2525
 1403TIP3    H228405   6.449   0.175  11.223  0.1076  0.0852 -0.2501
 1404TIP3   OH228406   3.930   1.573   9.412  0.0744 -0.7004  0.2509
 1404TIP3    H128407   3.863   1.551   9.477  1.1771 -1.1467  1.2637
 1404TIP3    H228408   3.979   1.493   9.400  0.6669 -0.2775 -0.2032
 1405TIP3   OH228409   4.938   6.545   8.666  0.0660  0.1503  0.4590
 1405TIP3    H128410   5.000   6.570   8.735  1.1221  0.6925 -0.6457
 1405TIP3    H228411   4.994   6.509   8.597 -0.9782 -0.3922 -0.1175
 1406TIP3   OH228412   1.152   5.624  11.137 -0.1858 -0.6513 -0.1596
 1406TIP3    H128413   1.204   5.633  11.217 -0.4715 -0.3639 -0.0009
 1406TIP3    H228414   1.067   5.591  11.167 -0.9900  1.3293 -0.0700
 1407TIP3   OH228415   3.110   2.003   9.314  0.2796 -0.3203  0.2421
 1407TIP3    H128416   3.175   2.035   9.251  1.3466 -0.5721  1.1878
 1407TIP3    H228417   3.104   1.909   9.297  1.0806 -0.5109  0.9458
 1408TIP3   OH228418   4.831   0.928  10.984  0.6865 -0.0361  0.3693
 1408TIP3    H128419   4.796   0.852  10.937 -3.4559  0.1839  2.6411
 1408TIP3    H228420   4.865   0.893  11.066 -1.2718  0.4080  1.4428
 1409TIP3   OH228421   0.564   0.392   9.200  0.2381 -0.5758 -0.2501
 1409TIP3    H128422   0.652   0.377   9.233  0.3029  0.0367 -0.1337
 1409TIP3    H228423   0.507   0.375   9.276  0.3673  0.5473  0.1158
 1410TIP3   OH228424   2.188   5.304  11.623  0.1973  0.4041  0.3845
 1410TIP3    H128425   2.174   5.352  11.541 -1.0175  0.3781  0.5626
 1410TIP3    H228426   2.278   5.325  11.647  0.7596 -0.0011 -1.2164
 1411TIP3   OH228427   2.661   2.040  11.656 -0.3911  0.1631  0.5027
 1411TIP3    H128428   2.640   2.089  11.577  1.5060  0.6063  0.2117
 1411TIP3    H228429   2.753   2.015  11.644 -0.3115 -0.4610  2.2093
 1412TIP3   OH228430   2.077   4.026   9.331 -0.9690  0.3907 -0.3882
 1412TIP3    H128431   2.113   4.084   9.263 -1.8237  0.6875 -0.6013
 1412TIP3    H228432   2.147   3.962   9.347 -0.2652  1.0809 -0.6289
 1413TIP3   OH228433   1.456   4.516  11.795  0.6036 -0.0961 -0.4754
 1413TIP3    H128434   1.372   4.550  11.765  0.6769 -0.0709 -0.6533
 1413TIP3    H228435   1.452   4.524  11.891  0.2450 -0.4626 -0.4532
 1414TIP3   OH228436   1.039   5.981   9.434 -0.6617  0.5567  0.0417
 1414TIP3    H128437   1.055   6.005   9.526  0.0123 -2.3640  0.7675
 1414TIP3    H228438   1.087   5.900   9.421 -0.9188  0.7579 -2.8898
 1415TIP3   OH228439   5.300   2.355  11.173 -0.1352  0.0040  0.2765
 1415TIP3    H128440   5.373   2.345  11.111  0.5427  1.4929  0.7914
 1415TIP3    H228441   5.281   2.266  11.203 -0.1655 -0.7033 -1.6899
 1416TIP3   OH228442   6.475   6.259   9.187  0.3746  0.2586 -0.2979
 1416TIP3    H128443   6.509   6.330   9.241  0.5376 -0.9472  1.2530
 1416TIP3    H228444   6.547   6.196   9.182 -0.1580 -0.3308 -0.6633
 1417TIP3   OH228445   4.969   3.544   9.147 -0.0604  0.5581  0.7480
 1417TIP3    H128446   5.015   3.542   9.231  0.5729  0.1895  0.3996
 1417TIP3    H228447   4.879   3.568   9.169 -0.3418 -1.2354  1.7194
 1418TIP3   OH228448   2.668   4.353   8.966 -0.1987  0.3802  0.7135
 1418TIP3    H128449   2.622   4.345   8.882 -0.2614 -0.4724  0.8178
 1418TIP3    H228450   2.740   4.290   8.960 -0.9337 -0.6194  1.7565
 1419TIP3   OH228451   1.435   1.101   9.680  0.6637 -0.6361 -0.3352
 1419TIP3    H128452   1.367   1.165   9.659 -0.0500 -1.6898 -1.3061
 1419TIP3    H228453   1.459   1.121   9.771  0.1512  0.7206 -0.4703
 1420TIP3   OH228454   0.611   4.907   9.096  0.1225  0.0712  0.3451
 1420TIP3    H128455   0.599   5.002   9.106  0.6907  0.2767 -0.7611
 1420TIP3    H228456   0.525   4.874   9.071  0.1601  0.4729 -0.3609
 1421TIP3   OH228457   4.055   3.321  10.191 -0.5272 -0.4701  0.3802
 1421TIP3    H128458   3.977   3.266  10.201 -1.2190  0.8022  2.6164
 1421TIP3    H228459   4.021   3.404  10.156 -0.2659  0.2307  1.7460
 1422TIP3   OH228460   1.282   1.322   9.619  0.2722 -0.1820  0.1282
 1422TIP3    H128461   1.240   1.254   9.568  0.8315 -1.8280  1.7465
 1422TIP3    H228462   1.210   1.364   9.667 -0.1204  0.6987 -1.1666
 1423TIP3   OH228463   5.678   3.761   9.248 -0.4503  0.0240 -0.1175
 1423TIP3    H128464   5.626   3.761   9.328  0.7865 -1.1919  0.7367
 1423TIP3    H228465   5.622   3.720   9.182 -1.5239  1.1434  0.0768
 1424TIP3   OH228466   4.559   6.486  10.233 -0.4386  0.2410 -0.3404
 1424TIP3    H128467   4.532   6.571  10.199  2.1508  0.6512 -1.6798
 1424TIP3    H228468   4.544   6.425  10.161 -0.0016  0.0534 -0.2776
 1425TIP3   OH228469   0.911   3.028  10.465  1.0697  0.0605  0.4006
 1425TIP3    H128470   1.003   3.044  10.486  0.3909  3.4646  1.4577
 1425TIP3    H228471   0.866   3.031  10.549 -0.4611  3.1327 -0.3684
 1426TIP3   OH228472   1.239   0.773  10.701  0.5500 -0.0037 -0.0644
 1426TIP3    H128473   1.263   0.742  10.788  1.5059  0.0102 -0.3100
 1426TIP3    H228474   1.199   0.698  10.659 -0.1398  0.0594  0.4694
 1427TIP3   OH228475   3.331   2.441  11.985  0.1693 -0.3920  0.0393
 1427TIP3    H128476   3.420   2.427  11.953  0.4953 -0.5032  0.9479
 1427TIP3    H228477   3.276   2.439  11.907  1.0967  0.8972 -0.6891
 1428TIP3   OH228478   4.453   4.076  10.097  0.1278  0.7127 -0.0372
 1428TIP3    H128479   4.438   3.983  10.113 -0.3408  1.1669  2.5723
 1428TIP3    H228480   4.370   4.109  10.065  0.5528  0.1129 -1.8675
 1429TIP3   OH228481   0.157   4.513   9.314  0.4661  0.2041 -0.0387
 1429TIP3    H128482   0.127   4.455   9.243 -0.3296  1.6763 -0.9618
 1429TIP3    H228483   0.095   4.497   9.385 -0.9448  1.2791 -0.9829
 1430TIP3   OH228484   2.114   5.958  10.518 -0.0955 -0.4835 -0.0410
 1430TIP3    H128485   2.104   5.903  10.595  1.1595 -1.4906 -0.5481
 1430TIP3    H228486   2.203   5.993  10.526  0.1111 -0.7382 -1.0969
 1431TIP3   OH228487   5.904   4.551   9.680  0.2222  0.0403 -0.3926
 1431TIP3    H128488   5.819   4.595   9.675  0.5483  0.7920  0.5036
 1431TIP3    H228489   5.887   4.462   9.647 -0.8450  0.2609 -0.4733
 1432TIP3   OH228490   0.399   0.499   8.656  0.1060 -0.4555 -0.3809
 1432TIP3    H128491   0.378   0.471   8.567 -0.3597 -0.5898 -0.2337
 1432TIP3    H228492   0.494   0.493   8.662  0.1415 -0.3958 -0.8850
 1433TIP3   OH228493   1.215   4.348   8.893 -0.6221 -0.1537  0.1276
 1433TIP3    H128494   1.278   4.411   8.929 -3.0690  2.3965  0.3509
 1433TIP3    H228495   1.208   4.371   8.800 -1.7789  0.1750  0.2764
 1434TIP3   OH228496   2.459   0.592   8.646 -0.3464 -0.2798  0.2692
 1434TIP3    H128497   2.418   0.640   8.719 -0.5290 -1.2299  0.8181
 1434TIP3    H228498   2.496   0.514   8.688 -2.7934 -2.2662 -0.9668
 1435TIP3   OH228499   3.879   0.986  10.276 -0.3044 -0.1925 -0.3429
 1435TIP3    H128500   3.942   0.916  10.262 -0.8829 -0.4119 -2.0023
 1435TIP3    H228501   3.801   0.941  10.310 -0.5729 -0.3223 -1.1210
 1436TIP3   OH228502   3.361   2.264  11.222  0.1359  0.2378  0.3099
 1436TIP3    H128503   3.443   2.303  11.191  1.2881 -2.3705 -0.2706
 1436TIP3    H228504   3.388   2.207  11.294 -1.0224 -1.3037 -0.4245
 1437TIP3   OH228505   2.442   3.364  12.201 -0.7195 -0.2381  0.4957
 1437TIP3    H128506   2.446   3.351  12.296 -1.2384 -3.2439  0.1863
 1437TIP3    H228507   2.498   3.296  12.165 -3.4487 -1.6594 -1.4281
 1438TIP3   OH228508   6.026   2.529  10.772 -0.2812  0.4833  0.3766
 1438TIP3    H128509   6.024   2.610  10.823  1.9438 -0.0871  1.5390
 1438TIP3    H228510   6.078   2.551  10.695 -0.8596  0.5139 -0.0048
 1439TIP3   OH228511   5.183   2.238  10.886  0.4238  0.4565 -0.8157
 1439TIP3    H128512   5.238   2.311  10.859 -0.4649  1.5098  0.1296
 1439TIP3    H228513   5.208   2.221  10.976 -1.2167  1.4072 -0.1374
 1440TIP3   OH228514   1.520   4.409  11.355  0.5985 -0.2128 -0.2749
 1440TIP3    H128515   1.603   4.457  11.362  1.0854 -0.7490 -1.8855
 1440TIP3    H228516   1.499   4.385  11.445  1.6402  0.8577  0.2815
 1441TIP3   OH228517   0.874   3.330   9.691  0.2140 -0.1991  0.2087
 1441TIP3    H128518   0.938   3.396   9.666 -0.9376  0.4401 -1.2074
 1441TIP3    H228519   0.925   3.251   9.707  1.2911  0.0507 -1.7566
 1442TIP3   OH228520   3.536   5.282  10.174  0.6169  0.1066 -0.4607
 1442TIP3    H128521   3.565   5.210  10.117  1.8802  0.1819  0.0381
 1442TIP3    H228522   3.500   5.347  10.114 -0.0186 -0.6999 -0.9743
 1443TIP3   OH228523   4.989   1.976   8.580  0.1788  0.4215 -0.3919
 1443TIP3    H128524   5.007   1.983   8.673 -0.6198 -0.8169 -0.1176
 1443TIP3    H228525   5.074   1.993   8.538  0.4122  1.6282  0.5030
 1444TIP3   OH228526   5.973   4.043  10.747  0.4531  0.8769  0.1566
 1444TIP3    H128527   6.010   4.011  10.830  1.4524 -0.1556 -0.6517
 1444TIP3    H228528   5.887   4.002  10.742  1.0241 -0.3680 -0.0383
 1445TIP3   OH228529   4.043   4.804   9.884  0.0344 -0.0000  0.5765
 1445TIP3    H128530   3.971   4.765   9.933  0.7744  0.7699  2.3745
 1445TIP3    H228531   4.004   4.880   9.841 -0.5883 -0.5673  0.1152
 1446TIP3   OH228532   2.021   1.025   9.425 -0.3779  0.2575 -0.3407
 1446TIP3    H128533   1.946   1.083   9.439 -0.2957  0.0471  1.2131
 1446TIP3    H228534   2.044   0.996   9.513  1.4499  0.2000 -0.8110
 1447TIP3   OH228535   0.405   1.175   8.285 -0.3248  0.4391 -0.4200
 1447TIP3    H128536   0.447   1.236   8.224 -1.0987  1.3046 -0.1118
 1447TIP3    H228537   0.335   1.135   8.234 -0.9730  1.1638 -0.1237
 1448TIP3   OH228538   6.445   2.874  10.703  0.4200 -0.4713  0.3815
 1448TIP3    H128539   6.354   2.895  10.679  0.5651 -0.0900  0.1655
 1448TIP3    H228540   6.497   2.943  10.663  0.8961 -1.2008 -0.2660
 1449TIP3   OH228541   6.291   3.347  11.468  0.2589 -0.0373 -0.3969
 1449TIP3    H128542   6.352   3.415  11.496 -0.7543  0.6599  0.2165
 1449TIP3    H228543   6.340   3.294  11.405  1.4213  0.5945 -0.0498
 1450TIP3   OH228544   5.116   2.386  10.139 -0.1913  0.4015 -0.3741
 1450TIP3    H128545   5.199   2.429  10.162 -0.4655  1.0585 -0.5889
 1450TIP3    H228546   5.142   2.303  10.100  0.3327 -0.2018  1.1514
 1451TIP3   OH228547   1.581   1.332   9.944 -0.0445  0.1359  0.1107
 1451TIP3    H128548   1.555   1.385  10.019  3.6103 -0.4582  1.9858
 1451TIP3    H228549   1.540   1.247   9.959 -0.8079  0.5455  0.4189
 1452TIP3   OH228550   2.155   4.235  11.928 -0.3110 -0.0886  0.0432
 1452TIP3    H128551   2.206   4.185  11.992 -0.4918 -0.8802 -0.4067
 1452TIP3    H228552   2.221   4.278  11.873 -0.1235 -0.5788 -0.1278
 1453TIP3   OH228553   0.629   5.353  10.723  0.4342 -0.4567 -0.2790
 1453TIP3    H128554   0.713   5.376  10.684  0.0247 -0.1537 -0.9937
 1453TIP3    H228555   0.587   5.436  10.742  1.9557 -0.4123  3.9387
 1454TIP3   OH228556   1.358   1.800   8.670  0.0491  0.2103 -0.4135
 1454TIP3    H128557   1.374   1.881   8.621 -0.8869  1.3946  1.1333
 1454TIP3    H228558   1.273   1.770   8.640 -0.3656  0.7460  0.1862
 1455TIP3   OH228559   4.545   3.944  10.509  0.5305 -0.5634  0.3698
 1455TIP3    H128560   4.542   4.038  10.490  0.6633 -0.5615  0.3604
 1455TIP3    H228561   4.453   3.917  10.510  0.5203 -0.5675 -0.3152
 1456TIP3   OH228562   5.266   1.017  11.184 -0.3887  0.5534  0.6259
 1456TIP3    H128563   5.218   1.086  11.138  1.6205  1.6832  0.1003
 1456TIP3    H228564   5.344   1.004  11.132 -0.5738 -1.9935  0.8648
 1457TIP3   OH228565   4.006   1.305   8.849  0.0445  0.2943 -0.9413
 1457TIP3    H128566   4.084   1.251   8.839 -0.5948 -0.9138  0.2767
 1457TIP3    H228567   3.947   1.275   8.780  0.5660  1.0944 -1.7574
 1458TIP3   OH228568   2.928   3.446  11.632  0.3409  0.2156 -0.0369
 1458TIP3    H128569   2.950   3.372  11.576  1.6512  0.7157 -0.2187
 1458TIP3    H228570   2.891   3.407  11.711  0.7997 -0.6161 -0.2215
 1459TIP3   OH228571   5.006   5.584  10.606 -0.0388 -0.1235 -0.7302
 1459TIP3    H128572   5.002   5.678  10.621 -0.2155 -0.1069 -0.8784
 1459TIP3    H228573   5.033   5.547  10.691 -0.9058 -0.0157 -0.3997
 1460TIP3   OH228574   6.118   3.207  10.173 -0.1409 -0.4888 -0.4068
 1460TIP3    H128575   6.151   3.192  10.085  0.6904  0.6292 -0.3168
 1460TIP3    H228576   6.031   3.244  10.160 -0.0004 -0.2781 -0.7612
 1461TIP3   OH228577   1.663   4.681   9.515 -0.4259  0.5553 -0.0830
 1461TIP3    H128578   1.606   4.609   9.541  1.4473 -1.7343 -1.8179
 1461TIP3    H228579   1.611   4.731   9.452 -1.7346  0.7317  1.0915
 1462TIP3   OH228580   1.430   3.107  11.044  0.2686 -0.3516 -0.5028
 1462TIP3    H128581   1.487   3.033  11.066  0.0393 -0.7348 -1.1878
 1462TIP3    H228582   1.344   3.068  11.028  0.1272  0.0701 -0.7828
 1463TIP3   OH228583   6.598   0.188   9.944  0.1370 -0.3015 -0.0645
 1463TIP3    H128584   6.530   0.203   9.878  0.4448  0.8855 -0.1381
 1463TIP3    H228585   6.637   0.104   9.920 -1.3378 -1.0509  0.0293
 1464TIP3   OH228586   2.459   3.041  10.683 -0.6953 -0.0450 -0.5815
 1464TIP3    H128587   2.468   3.136  10.691 -1.1711 -0.0373 -0.0955
 1464TIP3    H228588   2.540   3.013  10.641 -1.0577  0.7138 -1.8216
 1465TIP3   OH228589   5.836   6.543   8.842  0.1372 -0.6408  0.0607
 1465TIP3    H128590   5.835   6.500   8.756  1.5097  0.3271 -0.4804
 1465TIP3    H228591   5.922   6.521   8.878  0.3539  0.5875  0.3121
 1466TIP3   OH228592   2.586   1.658  11.175  0.1353  0.4285  0.5536
 1466TIP3    H128593   2.591   1.581  11.232 -1.3162 -1.5677 -1.8103
 1466TIP3    H228594   2.499   1.694  11.190  0.2165  0.6511  0.4994
 1467TIP3   OH228595   4.100   3.492  11.320  0.0199  0.4160 -0.5711
 1467TIP3    H128596   4.132   3.549  11.390  1.3502  0.1925 -0.9739
 1467TIP3    H228597   4.005   3.493  11.330 -0.1076  3.6136 -1.2824
 1468TIP3   OH228598   4.961   4.189  11.233 -0.0841 -0.8832  0.2614
 1468TIP3    H128599   5.049   4.199  11.268  0.8289 -3.0174 -1.2409
 1468TIP3    H228600   4.910   4.154  11.307 -0.2993  2.1934  1.7525
 1469TIP3   OH228601   5.429   1.290   9.094 -0.1972 -0.4851 -0.3977
 1469TIP3    H128602   5.351   1.246   9.062 -0.4694  0.1616 -0.6229
 1469TIP3    H228603   5.469   1.329   9.017 -0.2957  0.1942 -0.1144
 1470TIP3   OH228604   2.354   2.796  11.017  0.2029  0.2839 -0.1625
 1470TIP3    H128605   2.361   2.742  11.096 -1.5087  0.5193  0.1891
 1470TIP3    H228606   2.282   2.757  10.968 -3.1188  3.6927  1.4232
 1471TIP3   OH228607   1.076   0.941   9.285 -0.4919  0.3803 -0.1965
 1471TIP3    H128608   1.009   0.905   9.343  0.1638  0.2028  0.4694
 1471TIP3    H228609   1.056   1.035   9.282 -0.6359  0.3656  0.1910
 1472TIP3   OH228610   3.393   4.225  10.194 -0.3133 -0.2704  0.4101
 1472TIP3    H128611   3.392   4.258  10.284 -0.7926 -0.4760  0.4849
 1472TIP3    H228612   3.486   4.215  10.173 -0.1903  0.0956  0.7635
 1473TIP3   OH228613   3.722   0.419  10.995  0.2981  0.2266  0.2542
 1473TIP3    H128614   3.810   0.393  11.021  1.0598  3.0998  0.9310
 1473TIP3    H228615   3.694   0.481  11.063 -1.9669 -0.0550 -0.3390
 1474TIP3   OH228616   5.192   0.991  10.881 -0.2577 -0.6848  0.1539
 1474TIP3    H128617   5.141   0.912  10.897  0.1553 -1.2864 -1.3468
 1474TIP3    H228618   5.191   1.002  10.786  0.7190  0.4276  0.2438
 1475TIP3   OH228619   0.891   0.334   8.966  0.1437  0.0161 -0.1492
 1475TIP3    H128620   0.913   0.391   9.040 -1.0129 -0.0042  0.2258
 1475TIP3    H228621   0.917   0.383   8.888  1.2768  0.0828  0.2471
 1476TIP3   OH228622   1.908   1.138  10.863  0.6412 -0.2379 -0.4716
 1476TIP3    H128623   1.830   1.124  10.917 -0.0428  0.7317 -1.1482
 1476TIP3    H228624   1.931   1.051  10.831 -1.3572 -0.3599 -1.7967
 1477TIP3   OH228625   0.096   6.425  10.607  0.1789 -0.4091  0.2981
 1477TIP3    H128626   0.182   6.453  10.575  0.0052 -0.5912 -0.3444
 1477TIP3    H228627   0.114   6.347  10.660  0.3143 -1.0663 -0.6821
 1478TIP3   OH228628   2.652   3.931   8.919 -0.2869  0.1499  0.1302
 1478TIP3    H128629   2.746   3.938   8.902 -0.1969 -0.8418  0.1363
 1478TIP3    H228630   2.612   3.992   8.857  0.3383  0.3251 -0.1123
 1479TIP3   OH228631   3.381   3.077  10.338 -0.0030 -0.3317  0.0834
 1479TIP3    H128632   3.384   3.109  10.428  0.5623 -0.5476  0.1488
 1479TIP3    H228633   3.291   3.093  10.309 -0.2141 -0.3463  0.7168
 1480TIP3   OH228634   5.366   5.461  10.861  0.2542 -0.0490 -0.5141
 1480TIP3    H128635   5.433   5.412  10.812  0.1087  1.6310 -2.5303
 1480TIP3    H228636   5.283   5.430  10.825 -0.0718 -1.3230  1.2102
 1481TIP3   OH228637   0.676   0.167   9.033  0.1200 -0.3222  0.0405
 1481TIP3    H128638   0.617   0.239   9.055 -0.6048 -0.5207 -1.1650
 1481TIP3    H228639   0.748   0.208   8.986 -0.2113 -0.3520 -0.5018
 1482TIP3   OH228640   3.192   5.816   9.937  0.0547 -0.2169  0.1332
 1482TIP3    H128641   3.209   5.750  10.004 -0.5633  0.0752  0.5816
 1482TIP3    H228642   3.272   5.869   9.936 -0.4617  0.6437  1.6458
 1483TIP3   OH228643   5.154   3.429   9.640 -0.4209 -0.0016 -1.0154
 1483TIP3    H128644   5.111   3.484   9.706  0.1048 -0.0031 -0.6650
 1483TIP3    H228645   5.246   3.452   9.647 -0.1169 -1.3077 -0.4858
 1484TIP3   OH228646   1.133   1.285   9.227  0.7427 -0.1061  0.3771
 1484TIP3    H128647   1.197   1.356   9.241 -0.6191  0.7580  2.6547
 1484TIP3    H228648   1.048   1.329   9.227 -0.1169 -1.6738  1.4024
 1485TIP3   OH228649   2.363   4.727   9.749  0.5451  0.0095  0.2350
 1485TIP3    H128650   2.303   4.783   9.799  0.2959 -0.3307  0.3265
 1485TIP3    H228651   2.325   4.639   9.758  1.0385 -0.2028  0.2599
 1486TIP3   OH228652   3.425   6.683  10.734  0.0885 -0.2622  0.8092
 1486TIP3    H128653   3.501   6.723  10.692 -0.0720  1.1909  1.8398
 1486TIP3    H228654   3.427   6.591  10.705  2.1523 -0.2320  0.7201
 1487TIP3   OH228655   2.488   1.404   9.002 -0.4237  0.1295  0.1432
 1487TIP3    H128656   2.479   1.309   8.996  0.1222  0.1433 -1.0913
 1487TIP3    H228657   2.486   1.435   8.912 -1.9394  1.4381  0.5758
 1488TIP3   OH228658   6.270   4.202   9.195  0.1445  0.0150  0.1030
 1488TIP3    H128659   6.176   4.183   9.190 -0.0896  0.5299  1.9128
 1488TIP3    H228660   6.294   4.226   9.105 -1.9034  1.8919 -0.0343
 1489TIP3   OH228661   3.582   4.770  10.110 -0.0050  0.0111 -0.0245
 1489TIP3    H128662   3.527   4.694  10.091  2.1121 -1.3105 -1.2964
 1489TIP3    H228663   3.649   4.736  10.170 -0.0330  1.3437  0.7974
 1490TIP3   OH228664   5.432   3.030  10.833 -0.1158 -0.1967 -0.2819
 1490TIP3    H128665   5.495   2.963  10.858  0.1401 -0.1057 -0.6872
 1490TIP3    H228666   5.378   3.042  10.912  0.9270  0.3601  0.3595
 1491TIP3   OH228667   1.394   5.359  10.153  0.6826 -0.1331 -0.2350
 1491TIP3    H128668   1.366   5.288  10.095  0.9491  0.7572 -1.4940
 1491TIP3    H228669   1.471   5.396  10.110  1.8379 -0.4234  1.4849
 1492TIP3   OH228670   1.611   0.317  11.214 -0.0172 -0.3230  0.0582
 1492TIP3    H128671   1.702   0.344  11.197  0.0520  0.0401  0.9749
 1492TIP3    H228672   1.565   0.336  11.132  0.9190 -1.4035 -0.7466
 1493TIP3   OH228673   0.025   3.879  11.004 -0.1212  0.4258 -0.1047
 1493TIP3    H128674  -0.036   3.837  11.064 -1.1109  1.7815 -0.1102
 1493TIP3    H228675   0.024   3.972  11.029  0.8318  0.7202 -1.0486
 1494TIP3   OH228676   5.918   2.930  10.470  0.5280  0.4171 -0.3059
 1494TIP3    H128677   5.876   2.891  10.394 -2.2822  0.8011  0.9148
 1494TIP3    H228678   5.942   3.019  10.442  0.9086  0.0551 -1.1506
 1495TIP3   OH228679   4.182   5.930   9.514  0.0286  0.3543  0.5462
 1495TIP3    H128680   4.170   6.012   9.466 -2.3587 -0.7127 -0.8339
 1495TIP3    H228681   4.252   5.885   9.466  0.7551  1.2011  0.7929
 1496TIP3   OH228682   1.659   5.363  11.726 -0.4454 -0.2755 -0.0109
 1496TIP3    H128683   1.689   5.274  11.743 -2.0448 -0.5129  1.7934
 1496TIP3    H228684   1.738   5.417  11.738 -0.0581 -1.1676  1.6778
 1497TIP3   OH228685   2.978   3.399   9.844 -0.0238  0.2667 -0.3100
 1497TIP3    H128686   2.980   3.465   9.774 -2.2685  0.7785  0.0208
 1497TIP3    H228687   2.963   3.317   9.798  1.4232  0.1550 -0.6217
 1498TIP3   OH228688   5.278   4.694   9.184 -0.7492 -0.1198  0.1859
 1498TIP3    H128689   5.308   4.733   9.266 -1.3889  1.5172 -0.3323
 1498TIP3    H228690   5.202   4.642   9.209 -0.8586  0.2564  0.6483
 1499TIP3   OH228691   6.644   6.454   9.269 -0.2614  0.0644  0.1458
 1499TIP3    H128692   6.678   6.392   9.333  1.0762 -0.2615 -0.8266
 1499TIP3    H228693   6.708   6.525   9.267 -1.2819  1.0333  0.5406
 1500TIP3   OH228694   0.357   3.501  10.459  0.2318 -0.3040 -0.3210
 1500TIP3    H128695   0.418   3.470  10.392 -0.0991 -2.1225  0.1722
 1500TIP3    H228696   0.280   3.444  10.451  0.3825 -0.9220  1.9023
 1501TIP3   OH228697   2.823   0.920  10.615 -0.2414 -0.0608 -0.0542
 1501TIP3    H128698   2.797   0.829  10.602  1.1456 -0.6379  0.9873
 1501TIP3    H228699   2.875   0.941  10.537 -0.4724 -0.2047 -0.2469
 1502TIP3   OH228700   1.323   2.121   8.695  0.0485 -0.5751  0.4387
 1502TIP3    H128701   1.294   2.204   8.659 -0.8960 -0.5875  1.1390
 1502TIP3    H228702   1.347   2.140   8.785 -0.7776 -1.1571  0.8019
 1503TIP3   OH228703   2.135   6.734  11.834 -0.2423 -0.4252 -0.2805
 1503TIP3    H128704   2.123   6.829  11.827  2.1947 -0.1335 -1.3166
 1503TIP3    H228705   2.095   6.711  11.919 -0.3970  1.5948  0.2446
 1504TIP3   OH228706   4.405   5.914  10.984 -0.3657 -0.0736  0.5606
 1504TIP3    H128707   4.370   5.849  10.922 -0.8015  0.1762  0.5454
 1504TIP3    H228708   4.488   5.876  11.013  1.2503  1.0093 -2.2122
 1505TIP3   OH228709   6.431   4.116   7.749  0.2797  0.0897  0.3581
 1505TIP3    H128710   6.520   4.151   7.742  0.1071  0.1117 -3.1895
 1505TIP3    H228711   6.380   4.188   7.786  0.6650  2.4490 -3.2470
 1506TIP3   OH228712   4.793   2.752  12.329 -0.4629  0.3394 -0.4154
 1506TIP3    H128713   4.771   2.703  12.409  0.4328  1.2525  0.4246
 1506TIP3    H228714   4.849   2.693  12.279  1.5879  0.8471  1.1391
 1507TIP3   OH228715   2.332   0.825   8.855  0.0975  0.6866 -0.0633
 1507TIP3    H128716   2.413   0.799   8.898 -0.1155 -0.5803 -0.3934
 1507TIP3    H228717   2.350   0.912   8.821  2.3904 -0.6946 -2.7395
 1508TIP3   OH228718   3.776   3.278  10.844 -0.5194  0.0460 -0.1296
 1508TIP3    H128719   3.717   3.329  10.789 -1.1196  0.9303  1.2713
 1508TIP3    H228720   3.719   3.215  10.887 -0.2632  0.1575  0.3764
 1509TIP3   OH228721   5.115   0.979   8.248 -0.2951  0.5113 -0.5232
 1509TIP3    H128722   5.049   1.028   8.198 -2.1170 -1.0353  0.2020
 1509TIP3    H228723   5.156   0.922   8.183  0.0296  1.1788 -0.9096
 1510TIP3   OH228724   5.828   1.348  11.954  0.8234  0.4942  0.2146
 1510TIP3    H128725   5.876   1.410  11.899  3.0394 -1.5335 -0.3309
 1510TIP3    H228726   5.896   1.295  11.995 -0.8557  0.2836  3.0062
 1511TIP3   OH228727   0.985   5.445   8.975 -0.0372  0.1203 -0.3991
 1511TIP3    H128728   0.963   5.371   8.918 -1.2897 -0.4925  0.8166
 1511TIP3    H228729   1.059   5.414   9.027 -1.0234 -0.5950  0.6237
 1512TIP3   OH228730   1.587   2.774  11.715  0.0700 -0.3018 -0.3526
 1512TIP3    H128731   1.501   2.733  11.725 -0.1717  0.6361  2.0931
 1512TIP3    H228732   1.570   2.867  11.727  1.3961 -0.0897 -0.0305
 1513TIP3   OH228733   2.905   0.617   9.623  0.1137 -0.2602 -0.0643
 1513TIP3    H128734   2.967   0.667   9.570  0.0050 -0.8487 -0.7588
 1513TIP3    H228735   2.826   0.611   9.570 -0.1172 -0.5669  0.3037
 1514TIP3   OH228736   3.872   5.149  10.389 -0.3456  0.3135  0.1289
 1514TIP3    H128737   3.862   5.054  10.398  1.5335  0.0400 -0.3948
 1514TIP3    H228738   3.946   5.172  10.445  1.7190  0.8320 -2.5746
 1515TIP3   OH228739   4.507   2.472  11.586  0.2504  0.2361 -0.1835
 1515TIP3    H128740   4.548   2.463  11.672  2.0496 -1.5074 -1.1471
 1515TIP3    H228741   4.555   2.542  11.543 -0.4877  0.9375  0.0926
 1516TIP3   OH228742   6.596   1.800  11.534  0.0679  0.0730  0.2500
 1516TIP3    H128743   6.555   1.837  11.612 -0.3536  1.2200 -0.4970
 1516TIP3    H228744   6.686   1.781  11.561 -0.5855 -1.3606  1.5557
 1517TIP3   OH228745   6.582   2.069   9.995 -0.3102  0.1811  0.1179
 1517TIP3    H128746   6.534   2.082   9.914 -0.4087 -0.7150  0.0158
 1517TIP3    H228747   6.526   2.105  10.063 -1.7873 -1.9869  0.1594
 1518TIP3   OH228748   2.789   2.316  10.497  0.2573  0.2905  0.3316
 1518TIP3    H128749   2.830   2.235  10.526 -0.6228 -0.7457 -1.2108
 1518TIP3    H228750   2.695   2.301  10.504  0.0778  1.4418  0.6898
 1519TIP3   OH228751   3.312   1.349   9.294 -0.2072  0.1638 -0.2197
 1519TIP3    H128752   3.241   1.396   9.335  0.4899  1.8158 -0.8266
 1519TIP3    H228753   3.279   1.326   9.207 -0.6661 -0.7999  0.1980
 1520TIP3   OH228754   3.916   3.373   9.378 -0.6599  0.6191 -0.7243
 1520TIP3    H128755   3.930   3.321   9.299  0.7080 -1.9515  1.0686
 1520TIP3    H228756   4.000   3.417   9.392 -0.2231 -0.4562  0.2528
 1521TIP3   OH228757   2.095   0.802   9.941  0.7113  0.0179 -0.1548
 1521TIP3    H128758   2.183   0.781   9.909  0.5438 -0.3044 -0.4019
 1521TIP3    H228759   2.094   0.897   9.946  0.4900  0.1173 -1.8054
 1522TIP3   OH228760   0.794   0.509  10.410  0.7619  0.2218 -0.2443
 1522TIP3    H128761   0.790   0.426  10.364  0.3474  0.4256 -0.5849
 1522TIP3    H228762   0.774   0.575  10.343 -1.8331  0.3928  0.5655
 1523TIP3   OH228763   5.629   0.048  11.455  0.1980  0.2069  0.3241
 1523TIP3    H128764   5.586   0.032  11.371 -0.5701  0.3198  0.6870
 1523TIP3    H228765   5.636  -0.038  11.495 -0.4258  0.2832  0.6085
 1524TIP3   OH228766   3.835   0.036   9.875 -0.6556  0.3603 -0.1087
 1524TIP3    H128767   3.888   0.074   9.945  2.2277 -0.3524 -1.6906
 1524TIP3    H228768   3.863   0.082   9.796  0.1956 -2.3453 -1.5133
 1525TIP3   OH228769   6.298   2.850   8.958 -0.1827 -0.2396 -0.4922
 1525TIP3    H128770   6.390   2.858   8.932 -0.4465 -2.6748 -2.5178
 1525TIP3    H228771   6.300   2.797   9.037  0.1701  0.0376 -0.3139
 1526TIP3   OH228772   5.197   1.515   8.675  0.0167  0.1525  0.1902
 1526TIP3    H128773   5.161   1.573   8.607 -0.9830 -2.4990 -1.7412
 1526TIP3    H228774   5.287   1.498   8.646  0.2647  0.6028  0.6804
 1527TIP3   OH228775   5.108   4.798   9.671  0.0298  0.5660 -0.1667
 1527TIP3    H128776   5.063   4.807   9.755 -0.2245  1.4201 -0.3942
 1527TIP3    H228777   5.090   4.879   9.624 -1.9114 -0.8787 -2.0775
 1528TIP3   OH228778   6.242   3.747  11.611  0.1832  0.1506 -0.2981
 1528TIP3    H128779   6.287   3.663  11.609  2.0962  1.1493 -0.7524
 1528TIP3    H228780   6.273   3.789  11.691 -2.0702 -0.2175  0.8464
 1529TIP3   OH228781   4.649   5.138   9.317  0.2522  0.3491  0.1981
 1529TIP3    H128782   4.698   5.087   9.253  1.4890  2.3948 -0.5744
 1529TIP3    H228783   4.562   5.097   9.319  0.6252 -0.6394 -1.6882
 1530TIP3   OH228784   6.624   3.484   8.936 -0.0528 -0.0473 -0.4359
 1530TIP3    H128785   6.542   3.483   8.985 -0.1217  0.5043 -0.5381
 1530TIP3    H228786   6.672   3.409   8.970 -0.4417 -0.1529 -0.1048
 1531TIP3   OH228787   4.590   0.855  10.511  0.2332 -0.1691  0.0596
 1531TIP3    H128788   4.677   0.890  10.530  0.9406 -0.2795 -2.5829
 1531TIP3    H228789   4.602   0.760  10.510 -0.8813 -0.4811  3.5789
 1532TIP3   OH228790   2.534   4.807  10.793 -0.4914 -0.0241 -0.6694
 1532TIP3    H128791   2.594   4.793  10.719  0.1432  0.2176 -0.2020
 1532TIP3    H228792   2.518   4.719  10.827 -2.4930 -0.4288 -2.3816
 1533TIP3   OH228793   1.517   5.073   9.721  0.5494 -0.4404 -0.4955
 1533TIP3    H128794   1.584   5.006   9.716  1.0153  0.0723 -1.3064
 1533TIP3    H228795   1.515   5.113   9.634 -0.8689 -0.5011 -0.5184
 1534TIP3   OH228796   6.357   5.782   9.132  0.7054  0.5936 -0.4433
 1534TIP3    H128797   6.367   5.763   9.039 -0.3287 -0.3570 -0.3717
 1534TIP3    H228798   6.268   5.815   9.141  0.6063  0.1520  0.2888
 1535TIP3   OH228799   0.862   4.142   8.834  0.0551  0.3828 -0.4761
 1535TIP3    H128800   0.843   4.150   8.928  0.5856 -3.4966  0.1443
 1535TIP3    H228801   0.945   4.095   8.830 -0.6699 -0.9055 -2.8048
 1536TIP3   OH228802   0.477   4.482  11.062  0.0698  0.5647 -0.0635
 1536TIP3    H128803   0.483   4.469  10.967  0.2460 -1.4499  0.1831
 1536TIP3    H228804   0.395   4.530  11.074  0.1221  1.0036 -1.2192
 1537TIP3   OH228805   2.343   5.201  10.667  0.2953 -0.0703  0.2268
 1537TIP3    H128806   2.418   5.258  10.683  0.9226 -1.1256  1.2458
 1537TIP3    H228807   2.379   5.127  10.618 -0.0727 -0.5511  0.6611
 1538TIP3   OH228808   3.022   6.215  10.870 -0.3129 -0.0038  0.2739
 1538TIP3    H128809   3.092   6.239  10.809 -0.2416 -0.5121  0.1529
 1538TIP3    H228810   2.942   6.230  10.821 -0.2657 -0.0505  0.1813
 1539TIP3   OH228811   5.971   1.563   9.272 -0.0594  0.1497  0.2154
 1539TIP3    H128812   5.988   1.517   9.354 -1.3036  1.2873  1.1587
 1539TIP3    H228813   5.983   1.655   9.294  1.9956  0.3764 -1.5374
 1540TIP3   OH228814   5.534   3.747   9.945 -0.0942 -0.1318  0.0784
 1540TIP3    H128815   5.507   3.802  10.019 -1.5598 -0.2465 -0.3348
 1540TIP3    H228816   5.480   3.778   9.872  1.9291  0.5868 -1.2145
 1541TIP3   OH228817   2.671   0.358   9.624 -0.2222  0.4087 -0.4575
 1541TIP3    H128818   2.653   0.369   9.717 -0.6622 -2.1981 -0.1570
 1541TIP3    H228819   2.667   0.446   9.588  0.0568  1.4990  1.9912
 1542TIP3   OH228820   5.671   0.195  10.974 -0.2615  0.2045  0.0126
 1542TIP3    H128821   5.614   0.118  10.982 -0.4715  0.5135  2.0082
 1542TIP3    H228822   5.646   0.251  11.048  1.2386  1.2925 -0.2652
 1543TIP3   OH228823   5.191   0.584   8.190 -0.1168 -0.2693 -0.3618
 1543TIP3    H128824   5.148   0.551   8.269 -0.8788 -1.0948 -1.0959
 1543TIP3    H228825   5.120   0.596   8.127  0.1944  2.3011 -0.3412
 1544TIP3   OH228826   6.640   2.493   9.619  0.4523 -0.0494  0.3934
 1544TIP3    H128827   6.704   2.423   9.635  0.2881  0.2998  3.1442
 1544TIP3    H228828   6.564   2.468   9.672 -0.6708  0.8764 -0.7248
 1545TIP3   OH228829   4.281   4.242   9.088  0.1055 -0.1067  0.3291
 1545TIP3    H128830   4.333   4.273   9.162 -0.6347  1.1153  0.3676
 1545TIP3    H228831   4.327   4.276   9.011  0.5723 -0.9115  0.2442
 1546TIP3   OH228832   0.246   1.172  10.417  0.2646  0.2829  0.0569
 1546TIP3    H128833   0.198   1.243  10.460 -0.2512 -0.9112  1.5477
 1546TIP3    H228834   0.197   1.093  10.439  0.9029 -0.5799 -1.4463
 1547TIP3   OH228835   4.290   3.460   9.656 -0.4252  0.2990  0.0709
 1547TIP3    H128836   4.357   3.528   9.650  1.6232 -1.5633  0.3028
 1547TIP3    H228837   4.284   3.440   9.750 -3.0949  1.9835  0.3823
 1548TIP3   OH228838   0.977   1.288  11.763 -0.0215  0.1817 -0.2347
 1548TIP3    H128839   0.959   1.220  11.829  2.3254 -0.9329 -0.6243
 1548TIP3    H228840   0.996   1.238  11.683 -1.7285  1.4737 -1.4971
 1549TIP3   OH228841   5.166   4.561  10.321  0.2764  0.0758  0.4268
 1549TIP3    H128842   5.261   4.563  10.306  0.2201  0.4395  0.0762
 1549TIP3    H228843   5.131   4.624  10.257 -0.2639 -0.5641  0.0814
 1550TIP3   OH228844   3.882   3.708  10.761  0.2538  0.1615 -0.3805
 1550TIP3    H128845   3.907   3.646  10.830 -1.9048  0.9868  1.2719
 1550TIP3    H228846   3.963   3.725  10.713  1.5199 -1.6344  0.9784
 1551TIP3   OH228847   4.902   5.970  10.389  0.3376 -0.1300  0.2423
 1551TIP3    H128848   4.977   6.023  10.414 -0.2795  0.3781  1.0683
 1551TIP3    H228849   4.892   5.986  10.295  1.5667 -0.6290  0.0025
 1552TIP3   OH228850   6.520   3.093  10.565 -0.1163  0.5452 -0.0699
 1552TIP3    H128851   6.571   3.080  10.485 -0.8910 -0.6468 -0.3962
 1552TIP3    H228852   6.563   3.166  10.609  0.4343  1.1138 -1.4843
 1553TIP3   OH228853   1.818   0.865   8.690 -0.1070  0.1206  0.2325
 1553TIP3    H128854   1.899   0.826   8.721 -0.3706 -0.2039  0.5252
 1553TIP3    H228855   1.840   0.902   8.604  0.4356  0.3513  0.4659
 1554TIP3   OH228856   1.147   1.749  10.427  0.0770 -0.3280 -0.0710
 1554TIP3    H128857   1.155   1.653  10.422 -0.6570 -0.3629 -0.7447
 1554TIP3    H228858   1.062   1.768  10.388  1.2167  0.7935 -2.1484
 1555TIP3   OH228859   5.232   5.132  11.762  0.1150  0.0070 -0.0743
 1555TIP3    H128860   5.311   5.182  11.782  0.7567 -0.9572 -0.1622
 1555TIP3    H228861   5.241   5.052  11.813 -0.7852 -0.1395 -0.1325
 1556TIP3   OH228862   6.042   0.000   9.004 -0.2728 -0.4741  0.4246
 1556TIP3    H128863   6.003  -0.086   8.988 -2.7489  0.5529  0.4498
 1556TIP3    H228864   6.059   0.003   9.098 -0.7093 -0.7359  0.5111
 1557TIP3   OH228865   1.551   5.459   9.309 -0.1980  0.0984 -0.3881
 1557TIP3    H128866   1.510   5.462   9.223  1.8646  2.1144 -1.4146
 1557TIP3    H228867   1.630   5.406   9.295 -0.5777 -0.7921  0.6723
 1558TIP3   OH228868   5.877   5.205   8.812  0.4404 -0.0582  0.4204
 1558TIP3    H128869   5.878   5.298   8.837  0.2507 -0.3990  1.8269
 1558TIP3    H228870   5.930   5.163   8.879  1.2632 -0.8655 -0.7191
 1559TIP3   OH228871   6.576   0.743  10.501  0.2414 -0.6571  0.0194
 1559TIP3    H128872   6.665   0.771  10.480 -0.5193  1.5101 -0.5926
 1559TIP3    H228873   6.582   0.708  10.589  0.9758  3.9521  2.0894
 1560TIP3   OH228874   2.117   0.244  10.880 -0.2196  0.2606 -0.4217
 1560TIP3    H128875   2.060   0.179  10.920  1.0862  0.1753  1.3673
 1560TIP3    H228876   2.156   0.199  10.805 -2.8787  0.5103 -2.1078
 1561TIP3   OH228877   2.367   2.706  10.448 -0.4472  0.3932 -0.7039
 1561TIP3    H128878   2.445   2.761  10.448 -1.0341  1.2476 -1.4269
 1561TIP3    H228879   2.323   2.726  10.365 -0.7107 -1.1215 -0.9572
 1562TIP3   OH228880   5.596   2.421  11.874 -0.0906 -0.5929 -0.0758
 1562TIP3    H128881   5.543   2.463  11.942 -0.4858 -1.7096  0.3408
 1562TIP3    H228882   5.533   2.383  11.814  0.1758 -2.2388  0.6103
 1563TIP3   OH228883   1.768   2.981  11.513 -0.6407  0.6700 -0.4756
 1563TIP3    H128884   1.803   2.894  11.493 -0.0565  0.5893  0.8107
 1563TIP3    H228885   1.826   3.042  11.466 -0.6087  0.4002 -0.7874
 1564TIP3   OH228886   2.533   4.765  11.548  0.2382 -0.4958 -0.1148
 1564TIP3    H128887   2.501   4.850  11.578  0.5995 -0.6446  0.7309
 1564TIP3    H228888   2.543   4.774  11.453  1.1670  0.7125  0.0782
 1565TIP3   OH228889   1.667   3.477   9.284  0.2786  0.3668  0.3378
 1565TIP3    H128890   1.624   3.563   9.282 -1.9214 -0.6503  0.9742
 1565TIP3    H228891   1.645   3.442   9.370  0.6863 -1.0645 -0.1225
 1566TIP3   OH228892   5.949   5.057  10.946  0.0017 -0.3413 -0.1321
 1566TIP3    H128893   5.952   5.007  10.865  1.0082 -1.2878  0.4537
 1566TIP3    H228894   6.006   5.008  11.006 -1.4446 -0.1851  1.4241
 1567TIP3   OH228895   4.593   1.555  10.025  0.3584  0.4003  0.3029
 1567TIP3    H128896   4.672   1.609  10.020  1.7557 -1.4191  1.5098
 1567TIP3    H228897   4.528   1.612  10.067  1.4530  1.4833  0.5950
 1568TIP3   OH228898   4.610   2.627   8.534 -0.5816 -0.4023  0.4623
 1568TIP3    H128899   4.689   2.653   8.487  0.0712 -3.2720 -0.2282
 1568TIP3    H228900   4.546   2.610   8.465 -0.7479 -1.1693  0.7912
 1569TIP3   OH228901   0.171   3.079   9.980 -0.1144 -0.4038 -0.3022
 1569TIP3    H128902   0.140   3.027   9.906 -2.2501 -0.6742  0.7037
 1569TIP3    H228903   0.197   3.015  10.046 -0.5418 -0.1910  0.0803
 1570TIP3   OH228904   2.438   3.952  11.764  0.7400  0.8075  0.2864
 1570TIP3    H128905   2.429   3.871  11.713 -0.6100  1.5552 -0.7645
 1570TIP3    H228906   2.415   4.021  11.702  1.5682  1.9789  1.2450
 1571TIP3   OH228907   1.265   2.019  10.853 -0.2334  0.5015  0.1360
 1571TIP3    H128908   1.338   1.990  10.907 -0.4187 -0.3233 -0.0502
 1571TIP3    H228909   1.301   2.092  10.802 -0.3148  1.9351  2.0208
 1572TIP3   OH228910   1.447   6.166  11.486  0.2305  0.0051 -0.3195
 1572TIP3    H128911   1.495   6.141  11.407 -0.2555  0.3197 -0.7206
 1572TIP3    H228912   1.382   6.096  11.498 -0.3310  0.4368 -0.7555
 1573TIP3   OH228913   2.785   1.587  11.431  0.1839 -0.0234 -0.1556
 1573TIP3    H128914   2.741   1.640  11.498 -0.2584 -0.3248 -0.2033
 1573TIP3    H228915   2.830   1.519  11.481  0.7167  0.3602 -0.0980
 1574TIP3   OH228916   6.795   0.635  11.078 -0.3051  0.2982  0.2595
 1574TIP3    H128917   6.886   0.611  11.094 -0.3711  0.6082  1.1509
 1574TIP3    H228918   6.754   0.634  11.165 -1.2215 -0.1113 -0.1626
 1575TIP3   OH228919   0.775   5.031  11.702 -0.5415  1.1364 -0.0770
 1575TIP3    H128920   0.805   5.122  11.691  0.2424  1.2103  2.2422
 1575TIP3    H228921   0.851   4.985  11.736 -0.7768 -0.5726 -1.7081
 1576TIP3   OH228922   2.748   6.258  11.617  0.0723 -0.4251  0.3518
 1576TIP3    H128923   2.721   6.277  11.527 -0.4207  0.1010  0.6057
 1576TIP3    H228924   2.813   6.325  11.637 -0.6378  0.1619  0.7628
 1577TIP3   OH228925   6.112   6.372  10.303 -0.7125 -0.3949  0.1852
 1577TIP3    H128926   6.187   6.381  10.362 -0.6030  0.7211 -0.1116
 1577TIP3    H228927   6.047   6.433  10.336 -1.4355 -1.2136  0.3194
 1578TIP3   OH228928   5.223   1.300  11.474  0.0415 -0.4686 -0.2792
 1578TIP3    H128929   5.245   1.390  11.496  1.3867 -0.2797 -2.2045
 1578TIP3    H228930   5.140   1.307  11.425 -0.6895 -0.4740  0.9150
 1579TIP3   OH228931   4.095   2.167  11.713  0.2826 -0.1820 -0.1264
 1579TIP3    H128932   4.190   2.159  11.710  0.4039  1.0170 -0.0553
 1579TIP3    H228933   4.063   2.086  11.673  1.3289 -0.5006 -0.3573
 1580TIP3   OH228934   0.624   6.052   9.503 -0.6119  0.6336 -0.5129
 1580TIP3    H128935   0.671   6.094   9.574 -1.4712 -0.6490  0.8761
 1580TIP3    H228936   0.666   5.966   9.493 -0.9369  0.5323 -1.0729
 1581TIP3   OH228937   0.132   1.380  10.534 -0.0828 -0.3704 -0.0488
 1581TIP3    H128938   0.138   1.367  10.629 -1.6865 -0.5132  0.0588
 1581TIP3    H228939   0.130   1.475  10.523  0.1274 -0.3529  0.0500
 1582TIP3   OH228940   4.867   0.261  11.522  0.1446 -0.1262  0.3274
 1582TIP3    H128941   4.869   0.222  11.435  1.1657  0.3218  0.1352
 1582TIP3    H228942   4.935   0.328  11.520 -0.4897  0.5644  1.1587
 1583TIP3   OH228943   4.000   3.900  11.690 -0.5936 -0.1418 -0.4885
 1583TIP3    H128944   3.991   3.891  11.785 -1.2496 -2.1339 -0.7100
 1583TIP3    H228945   4.007   3.995  11.676  1.9011  0.1294  1.7184
 1584TIP3   OH228946   1.883   5.696   9.891  0.2796 -0.5214 -0.0748
 1584TIP3    H128947   1.866   5.744   9.972  0.1435  0.1881 -0.5154
 1584TIP3    H228948   1.971   5.659   9.903  0.5286  0.1244  0.1405
 1585TIP3   OH228949   4.909   0.606   8.638  0.0993 -0.5617 -0.1226
 1585TIP3    H128950   4.905   0.574   8.728  1.3384  1.2383  0.6342
 1585TIP3    H228951   4.841   0.672   8.633  0.9838  0.3798 -0.0287
 1586TIP3   OH228952   1.691   4.583  10.214 -0.2351 -0.1631 -0.1669
 1586TIP3    H128953   1.689   4.490  10.191 -0.3722 -0.1969 -0.0243
 1586TIP3    H228954   1.675   4.629  10.132  0.1506 -0.2561 -0.2983
 1587TIP3   OH228955   4.141   5.435   9.190 -0.0736 -0.3953  0.2454
 1587TIP3    H128956   4.133   5.428   9.095  0.6408  0.0963  0.1372
 1587TIP3    H228957   4.091   5.361   9.224 -0.5003 -0.4640 -0.5032
 1588TIP3   OH228958   2.715   0.576  11.479  0.8888  0.2547  0.0008
 1588TIP3    H128959   2.691   0.487  11.503  1.5153  0.3282  0.9336
 1588TIP3    H228960   2.800   0.568  11.437  0.1403  0.2186 -1.5502
 1589TIP3   OH228961   6.650   2.426  10.680  0.2790  0.3021  0.2982
 1589TIP3    H128962   6.627   2.336  10.700  0.9401  0.3744  1.4675
 1589TIP3    H228963   6.674   2.464  10.765 -1.3485  1.9730  0.0710
 1590TIP3   OH228964   3.480   2.522   9.664  0.1039 -0.2387 -0.2503
 1590TIP3    H128965   3.395   2.489   9.634 -0.3453  0.7903 -0.1786
 1590TIP3    H228966   3.487   2.490   9.754 -0.9914  1.0068  0.3154
 1591TIP3   OH228967   0.195   4.441  10.729 -0.1636 -0.5354  0.6330
 1591TIP3    H128968   0.284   4.426  10.761  0.1005 -2.5397 -0.8664
 1591TIP3    H228969   0.139   4.421  10.804  0.5899  2.0073  2.0100
 1592TIP3   OH228970   6.187   0.446  10.982  0.2391 -0.6826  0.1254
 1592TIP3    H128971   6.178   0.388  11.057  1.4028 -2.7005 -1.1959
 1592TIP3    H228972   6.273   0.487  10.992 -0.6619  1.0784  1.1605
 1593TIP3   OH228973   0.564   6.363  11.947 -0.2253  0.5070 -0.0435
 1593TIP3    H128974   0.558   6.291  12.010  0.1296  0.6214  0.1261
 1593TIP3    H228975   0.476   6.373  11.912 -0.1191 -0.5431 -0.6636
 1594TIP3   OH228976   4.690   2.364   9.664  0.2808  0.6839 -0.3965
 1594TIP3    H128977   4.596   2.356   9.651  0.4870  0.8156 -2.3094
 1594TIP3    H228978   4.704   2.456   9.685  0.0528  0.8410 -0.9256
 1595TIP3   OH228979   3.013   3.090  10.354 -0.3566  0.3159  0.1349
 1595TIP3    H128980   3.028   3.000  10.325  0.5474  0.5094 -0.0226
 1595TIP3    H228981   3.037   3.143  10.278 -2.1292  0.6559 -0.2388
 1596TIP3   OH228982   2.590   4.080   9.141 -0.5207 -0.4495 -0.3858
 1596TIP3    H128983   2.591   4.167   9.100  1.0317  0.1823  0.8713
 1596TIP3    H228984   2.615   4.021   9.070  1.5691  0.5496 -0.5897
 1597TIP3   OH228985   6.745   3.931  10.429  0.9680  0.0661 -0.0932
 1597TIP3    H128986   6.752   4.002  10.365 -1.2723  0.7548  0.3598
 1597TIP3    H228987   6.691   3.967  10.499 -1.0490 -2.3643 -0.2804
 1598TIP3   OH228988   2.859   2.590  10.605 -0.2784 -0.7037  0.3394
 1598TIP3    H128989   2.847   2.570  10.698 -1.8233 -0.6299  0.1943
 1598TIP3    H228990   2.825   2.513  10.559  0.0302 -0.5422 -0.1675
 1599TIP3   OH228991   1.836   1.563  11.398 -0.5337  0.1864  0.4202
 1599TIP3    H128992   1.822   1.469  11.413 -0.5451 -0.1795 -1.6525
 1599TIP3    H228993   1.786   1.606  11.467 -0.9761 -1.3187  1.0744
 1600TIP3   OH228994   0.370   5.384  10.973  0.4265  0.0979  0.0541
 1600TIP3    H128995   0.455   5.403  10.935  0.8993 -0.0867  0.9772
 1600TIP3    H228996   0.311   5.376  10.898  1.1416  0.5928 -0.5759
 1601TIP3   OH228997   4.160   3.930  10.160 -0.0463  0.3082  0.2314
 1601TIP3    H128998   4.163   4.009  10.106  0.5655 -0.4482 -0.8707
 1601TIP3    H228999   4.243   3.886  10.144 -0.0290 -0.1623  1.4739
 1602TIP3   OH229000   4.606   0.293   9.429 -0.1014 -0.2769 -0.5743
 1602TIP3    H129001   4.525   0.285   9.478  0.0133 -1.5677 -0.5698
 1602TIP3    H229002   4.673   0.310   9.495 -0.1172 -0.8860 -0.4026
 1603TIP3   OH229003   0.880   5.402  10.198  0.8852  0.0624 -1.0235
 1603TIP3    H129004   0.808   5.343  10.174 -0.8036  0.8927  1.6552
 1603TIP3    H229005   0.935   5.350  10.255 -0.6960  0.9487  1.4810
 1604TIP3   OH229006   1.436   1.003  10.690  0.3458 -0.3179  0.1991
 1604TIP3    H129007   1.359   0.951  10.665  1.0384 -1.1342 -0.2670
 1604TIP3    H229008   1.443   0.992  10.785 -0.9093  0.8889  0.4687
 1605TIP3   OH229009   4.861   2.751  10.758  0.9463  0.4172 -0.9330
 1605TIP3    H129010   4.918   2.812  10.806  2.6973 -0.9417 -1.1975
 1605TIP3    H229011   4.898   2.665  10.777 -1.7586 -0.6516 -0.1610
 1606TIP3   OH229012   4.947   0.940   9.552 -0.2164  0.2776  0.3876
 1606TIP3    H129013   5.000   0.964   9.476 -0.1508  0.2280  0.4177
 1606TIP3    H229014   4.926   1.023   9.594 -0.2106  0.3014  0.3427
 1607TIP3   OH229015   0.784   6.774  10.607  0.0361 -0.1135 -0.5990
 1607TIP3    H129016   0.876   6.761  10.631 -0.3463 -0.1292  0.9092
 1607TIP3    H229017   0.738   6.784  10.690 -1.3833 -0.3998 -1.3179
 1608TIP3   OH229018   2.287   0.327  11.629 -0.4060 -0.4712 -0.4287
 1608TIP3    H129019   2.342   0.292  11.698 -2.2177  1.1004  1.9688
 1608TIP3    H229020   2.345   0.333  11.553  2.1191 -0.8015  1.3433
 1609TIP3   OH229021   1.472   0.228  10.203  0.3681  0.0951  0.9297
 1609TIP3    H129022   1.419   0.286  10.148  0.3573 -1.5676 -0.9089
 1609TIP3    H229023   1.548   0.206  10.149  0.2688 -1.7644  1.4941
 1610TIP3   OH229024   2.075   3.182   9.932  0.4944  0.0232 -0.7494
 1610TIP3    H129025   2.137   3.154   9.999 -0.2529  0.2530  0.0483
 1610TIP3    H229026   1.995   3.203   9.980  0.4392  1.7602 -1.5200
 1611TIP3   OH229027   2.139   5.798  10.764 -0.2796  0.3340  0.3351
 1611TIP3    H129028   2.062   5.824  10.814  0.1545  0.5203  0.9181
 1611TIP3    H229029   2.188   5.742  10.823 -0.0688  0.0454 -0.1095
 1612TIP3   OH229030   3.931   2.622  11.312  0.4315 -0.2665 -0.8158
 1612TIP3    H129031   3.900   2.548  11.260  1.5883  0.1980 -2.2405
 1612TIP3    H229032   3.862   2.687  11.305 -1.5084 -1.7582  2.0006
 1613TIP3   OH229033   0.596   3.024  10.899  0.0265  0.6952 -0.1829
 1613TIP3    H129034   0.611   3.092  10.964 -1.6084 -0.4976  1.5300
 1613TIP3    H229035   0.501   3.026  10.883  0.2388  0.1775 -1.6580
 1614TIP3   OH229036   0.339   4.886   9.964  0.0383 -0.2970  0.0205
 1614TIP3    H129037   0.310   4.972   9.996 -0.5663 -0.3491 -0.3700
 1614TIP3    H229038   0.351   4.834  10.043 -0.4611 -0.1183  0.2230
 1615TIP3   OH229039   2.807   4.571  11.807  0.3844 -0.1041 -0.4730
 1615TIP3    H129040   2.780   4.567  11.899  0.2539 -0.4283 -0.5253
 1615TIP3    H229041   2.874   4.640  11.805 -1.3983  1.6983 -0.6015
 1616TIP3   OH229042   4.274   1.545  10.319 -0.1013 -0.1773  0.1730
 1616TIP3    H129043   4.288   1.451  10.316  0.0675 -0.1296 -0.7450
 1616TIP3    H229044   4.323   1.580  10.245  0.9388  0.7958  1.2679
 1617TIP3   OH229045   6.214   1.011   8.878  0.1600  0.2162 -0.8570
 1617TIP3    H129046   6.303   1.028   8.908 -0.4505 -0.1307  1.3164
 1617TIP3    H229047   6.161   1.078   8.920 -1.2532 -2.4780  1.9961
 1618TIP3   OH229048   1.993   6.103   9.752  0.0070  0.3513  0.2341
 1618TIP3    H129049   1.992   6.015   9.712 -2.0519 -0.0959  1.1462
 1618TIP3    H229050   1.924   6.100   9.817  0.0520  2.6128  0.4473
 1619TIP3   OH229051   1.161   1.917  11.487 -0.5219 -0.8040  0.4174
 1619TIP3    H129052   1.091   1.982  11.478  0.5707  0.7448  2.2350
 1619TIP3    H229053   1.126   1.852  11.547 -0.2011  0.4000  1.9860
 1620TIP3   OH229054   4.794   0.679  10.800 -0.1029  0.1030  0.8537
 1620TIP3    H129055   4.803   0.741  10.728 -5.0104  1.4508  1.0167
 1620TIP3    H229056   4.791   0.593  10.758 -0.1458  0.6193 -0.2271
 1621TIP3   OH229057   5.427   0.107  10.292 -0.3740 -0.1604  0.4028
 1621TIP3    H129058   5.459   0.064  10.213 -1.1632  0.2207 -0.1319
 1621TIP3    H229059   5.505   0.116  10.347  0.1083 -0.7732 -0.1638
 1622TIP3   OH229060   6.316   6.471  10.477  0.0712  0.3581  0.8968
 1622TIP3    H129061   6.265   6.443  10.554 -1.2284  1.0077  0.2968
 1622TIP3    H229062   6.328   6.565  10.489  2.0693  0.0785  1.5318
 1623TIP3   OH229063   5.018   5.573   9.907  0.0221  0.1952  0.2042
 1623TIP3    H129064   5.062   5.645   9.862  0.7660  0.5995  1.5232
 1623TIP3    H229065   5.017   5.599   9.999 -0.2885 -1.1777  0.6153
 1624TIP3   OH229066   3.621   0.111  11.251 -0.2265  0.1121 -0.0220
 1624TIP3    H129067   3.544   0.167  11.252 -1.0227 -0.8632  2.2529
 1624TIP3    H229068   3.601   0.042  11.187  0.9110  2.4238 -3.1021
 1625TIP3   OH229069   1.290   4.426   9.298  0.3269  0.2959  0.3667
 1625TIP3    H129070   1.312   4.486   9.227  0.2468 -0.7162 -0.5316
 1625TIP3    H229071   1.322   4.341   9.269 -0.6592 -0.3342  1.0721
 1626TIP3   OH229072   6.251   0.395   9.237 -0.2345 -0.0759  0.2709
 1626TIP3    H129073   6.206   0.475   9.213 -0.8206 -0.5474 -0.2429
 1626TIP3    H229074   6.279   0.357   9.154  1.9569  0.6685  0.6167
 1627TIP3   OH229075   5.999   2.710  10.969  0.8967 -0.5021  0.8050
 1627TIP3    H129076   5.932   2.778  10.957 -0.1292 -1.8652 -2.1100
 1627TIP3    H229077   5.968   2.658  11.042 -0.4617 -0.2192  0.4549
 1628TIP3   OH229078   5.197   6.615  10.939 -0.3481 -0.1690 -0.3696
 1628TIP3    H129079   5.117   6.569  10.963  0.8303 -0.6364  3.3504
 1628TIP3    H229080   5.261   6.545  10.925 -0.2997  0.2215 -2.2376
 1629TIP3   OH229081   4.961   5.162   9.732 -0.2797  0.1797 -0.2825
 1629TIP3    H129082   4.899   5.112   9.785  0.9082  0.0467  1.0480
 1629TIP3    H229083   4.971   5.245   9.779  0.5644  0.1889 -0.4699
 1630TIP3   OH229084   5.343   5.404  11.350  0.3221 -0.1444 -0.0988
 1630TIP3    H129085   5.317   5.483  11.397  1.6361 -0.3023  0.9474
 1630TIP3    H229086   5.438   5.399  11.362  0.0741 -2.9401  1.6084
 1631TIP3   OH229087   0.240   3.407   9.620 -0.6006  0.1912  0.1383
 1631TIP3    H129088   0.145   3.412   9.623 -0.8788 -2.2214 -1.3724
 1631TIP3    H229089   0.266   3.479   9.563 -1.7228 -0.1422 -0.8392
 1632TIP3   OH229090   3.664   3.083   9.894  0.0696 -0.0804 -0.8862
 1632TIP3    H129091   3.623   3.009   9.849  0.3308  0.4499 -2.0458
 1632TIP3    H229092   3.605   3.102   9.967 -0.5508 -0.7700 -1.1910
 1633TIP3   OH229093   0.833   1.159  10.412  0.4784  0.3491 -0.8227
 1633TIP3    H129094   0.874   1.073  10.402 -0.4774 -0.3533  0.9379
 1633TIP3    H229095   0.740   1.142  10.400 -0.0131  0.6282  1.9793
 1634TIP3   OH229096   4.728   2.826  10.092  0.1481 -0.0737 -0.5395
 1634TIP3    H129097   4.704   2.843  10.001  3.5395  1.0792 -1.3770
 1634TIP3    H229098   4.718   2.910  10.136 -1.3324 -0.5921  0.1798
 1635TIP3   OH229099   5.902   4.644  11.680  0.5244  0.1406 -0.4352
 1635TIP3    H129100   5.820   4.640  11.729  0.5935  2.3945 -0.0734
 1635TIP3    H229101   5.882   4.599  11.597 -0.7127 -0.3479  0.0991
 1636TIP3   OH229102   4.214   0.754  10.941  0.4978 -0.0308  0.5346
 1636TIP3    H129103   4.234   0.734  10.850  0.2124  1.0589  0.2269
 1636TIP3    H229104   4.297   0.743  10.987  0.6233 -0.6803  0.1751
 1637TIP3   OH229105   1.584   1.119   8.293  0.4253  0.7874 -0.1398
 1637TIP3    H129106   1.521   1.116   8.221  0.4301 -0.9473 -0.1312
 1637TIP3    H229107   1.656   1.173   8.260  1.1305 -1.1863 -2.0861
 1638TIP3   OH229108   1.770   3.485   9.746  0.3249 -0.1918 -0.1996
 1638TIP3    H129109   1.848   3.441   9.712  0.2371 -0.2236 -0.3565
 1638TIP3    H229110   1.799   3.574   9.764  0.3123 -0.1096 -0.5740
 1639TIP3   OH229111   0.463   4.540  11.672  0.0676  0.2804 -0.5718
 1639TIP3    H129112   0.495   4.455  11.705  1.2286  0.9407  0.0865
 1639TIP3    H229113   0.542   4.594  11.667 -0.7141  1.4456 -0.6138
 1640TIP3   OH229114   1.992   4.692   9.348  0.4779 -0.0628  0.0921
 1640TIP3    H129115   2.076   4.662   9.381  1.5202 -0.0961 -2.3818
 1640TIP3    H229116   1.973   4.771   9.397  2.0405  0.0401  0.5802
 1641TIP3   OH229117   2.283   4.482  11.143 -0.1039  0.0625 -0.2111
 1641TIP3    H129118   2.329   4.503  11.224 -2.7478  0.9947  1.1818
 1641TIP3    H229119   2.328   4.405  11.109  2.0254  0.5409  1.3214
 1642TIP3   OH229120   4.438   2.940   9.477  0.3828 -0.3303  0.2357
 1642TIP3    H129121   4.466   2.998   9.406 -0.4967 -0.8053 -0.5190
 1642TIP3    H229122   4.479   2.977   9.555  0.9276  0.5216 -0.4292
 1643TIP3   OH229123   0.535   1.439   8.400 -0.1687  0.1318  0.0877
 1643TIP3    H129124   0.530   1.436   8.304  0.2229 -1.5012  0.0737
 1643TIP3    H229125   0.615   1.392   8.421 -1.0474 -0.9276  1.2601
 1644TIP3   OH229126   3.756   1.499  11.303 -0.5144 -0.0306 -0.7648
 1644TIP3    H129127   3.710   1.415  11.312  0.8561 -0.7254  0.2450
 1644TIP3    H229128   3.790   1.517  11.391  1.3852  0.2641 -1.5113
 1645TIP3   OH229129   2.024   4.772   8.844  0.4021 -0.2216 -0.1261
 1645TIP3    H129130   1.967   4.714   8.793  1.4687 -1.9625  0.5564
 1645TIP3    H229131   2.094   4.796   8.783 -0.2807  0.7372 -0.5424
 1646TIP3   OH229132   4.922   2.504  10.891  0.1920  0.3432 -0.0912
 1646TIP3    H129133   4.940   2.521  10.984  0.3984 -0.7651  0.0887
 1646TIP3    H229134   4.873   2.422  10.891  0.9423 -0.1289 -1.0124
 1647TIP3   OH229135   5.646   5.354  10.810  0.5718 -0.4024  0.0900
 1647TIP3    H129136   5.642   5.271  10.763 -2.5547  0.6262 -1.7662
 1647TIP3    H229137   5.610   5.335  10.897 -0.2212 -1.0093 -0.3598
 1648TIP3   OH229138   0.047   2.285  11.153  0.0003  0.3431 -0.2213
 1648TIP3    H129139   0.120   2.259  11.097  1.2176  1.0088  1.0070
 1648TIP3    H229140   0.007   2.360  11.109 -0.4264 -0.4742 -1.2656
 1649TIP3   OH229141   0.493   1.253  10.589  0.1310  0.4175 -0.1745
 1649TIP3    H129142   0.502   1.321  10.522 -2.6500  0.7663 -0.2983
 1649TIP3    H229143   0.407   1.214  10.573  1.2677 -2.6133  0.4325
 1650TIP3   OH229144   3.554   1.532  11.858 -0.7071 -0.2938  0.8544
 1650TIP3    H129145   3.460   1.531  11.872 -0.7487 -0.0345  0.5879
 1650TIP3    H229146   3.591   1.552  11.944 -0.8968 -0.3460  0.9483
 1651TIP3   OH229147   1.092   0.931  10.089 -0.0269 -0.0310  0.2479
 1651TIP3    H129148   1.126   0.914  10.001 -0.3069 -0.0431  0.1397
 1651TIP3    H229149   1.011   0.980  10.075 -0.8671 -1.3038  0.4183
 1652TIP3   OH229150   0.720   6.300  10.433  0.3504 -0.1780 -0.1608
 1652TIP3    H129151   0.788   6.343  10.486  1.2013 -2.0007  0.2766
 1652TIP3    H229152   0.735   6.207  10.445 -1.8283 -0.6338 -0.6201
 1653TIP3   OH229153   5.808   4.844  10.391  0.2539  0.1123  0.1378
 1653TIP3    H129154   5.817   4.752  10.365 -1.0859 -0.2567  0.8867
 1653TIP3    H229155   5.746   4.842  10.464 -0.5554  1.7203 -0.4666
 1654TIP3   OH229156   5.061   2.899  10.891  0.1685 -0.1846 -0.0690
 1654TIP3    H129157   5.123   2.955  10.937  0.2457 -0.2705 -0.0664
 1654TIP3    H229158   5.116   2.843  10.836  0.0409  0.4009 -0.8147
 1655TIP3   OH229159   3.917   3.927  10.361 -0.1376 -0.4228 -0.7664
 1655TIP3    H129160   3.992   3.918  10.303 -0.2056  0.0155 -0.9262
 1655TIP3    H229161   3.907   4.022  10.372 -0.8694 -0.4715 -1.0060
 1656TIP3   OH229162   4.802   3.554  10.931  0.1314 -0.2630  0.1967
 1656TIP3    H129163   4.835   3.492  10.866  1.4151 -1.7404  2.1568
 1656TIP3    H229164   4.716   3.581  10.897  1.5729  0.7065 -3.1256
 1657TIP3   OH229165   1.715   5.118  11.120  0.0376  0.1734 -0.2224
 1657TIP3    H129166   1.758   5.177  11.059  0.8964  0.1868  0.3743
 1657TIP3    H229167   1.680   5.175  11.188 -0.3929  0.1118 -0.3909
 1658TIP3   OH229168   0.902   3.709  10.420  0.1127  0.5668  0.1836
 1658TIP3    H129169   0.950   3.737  10.342 -1.0551 -1.1005 -1.2006
 1658TIP3    H229170   0.815   3.689  10.388  0.4379 -3.2196  1.2542
 1659TIP3   OH229171   0.385   4.243   9.177  0.4223 -0.2484 -0.4536
 1659TIP3    H129172   0.303   4.204   9.207  0.8343 -0.6441  0.1685
 1659TIP3    H229173   0.415   4.184   9.107  0.3291 -0.2691 -0.4761
 1660TIP3   OH229174   3.204   0.228  11.873  0.1599 -0.1851  0.1133
 1660TIP3    H129175   3.234   0.319  11.871  0.7275 -0.3631  0.2931
 1660TIP3    H229176   3.141   0.222  11.801 -0.1597  0.4404  0.3300
 1661TIP3   OH229177   1.876   1.739  10.958  0.3271  0.2984 -0.1660
 1661TIP3    H129178   1.946   1.741  10.893  0.7433 -1.0862  0.2194
 1661TIP3    H229179   1.849   1.648  10.962  0.0821  0.4100  1.3678
 1662TIP3   OH229180   2.259   2.476   9.481  0.0408 -0.4018 -0.2178
 1662TIP3    H129181   2.266   2.384   9.504  1.7152 -0.0539  0.8454
 1662TIP3    H229182   2.318   2.521   9.542 -0.1971  1.2928 -1.1626
 1663TIP3   OH229183   3.945   0.556  10.436  0.8276  0.1884  0.1445
 1663TIP3    H129184   3.934   0.620  10.506 -1.6308 -0.4282  0.3919
 1663TIP3    H229185   3.952   0.472  10.481 -0.1399 -0.1498 -0.3162
 1664TIP3   OH229186   1.421   1.498  11.919 -1.0103  0.5691 -0.5692
 1664TIP3    H129187   1.354   1.456  11.972 -0.9319  0.9345 -0.1679
 1664TIP3    H229188   1.375   1.530  11.841 -1.1817  0.2765 -0.5867
 1665TIP3   OH229189   0.788   1.826  11.403 -0.2548 -0.1116  0.0992
 1665TIP3    H129190   0.816   1.895  11.464 -1.1649  1.9543 -1.6735
 1665TIP3    H229191   0.708   1.791  11.442 -1.6922  2.2481 -0.5277
 1666TIP3   OH229192   0.083   4.362  10.503 -0.0929  0.0120  0.0672
 1666TIP3    H129193   0.094   4.271  10.530 -0.4227  0.0088  0.2006
 1666TIP3    H229194   0.139   4.412  10.563  1.6979 -0.2727 -1.3079
 1667TIP3   OH229195   2.145   5.587  10.147  0.9191 -0.0975  0.3245
 1667TIP3    H129196   2.144   5.569  10.053  1.4759  0.0277  0.2920
 1667TIP3    H229197   2.191   5.670  10.156 -0.0380  0.4131  0.6293
 1668TIP3   OH229198   4.311   0.088   9.175  0.5493  0.0600 -0.3191
 1668TIP3    H129199   4.252   0.164   9.176 -2.0019 -1.7210 -2.5903
 1668TIP3    H229200   4.398   0.126   9.160 -0.4818  2.5817 -0.3881
 1669TIP3   OH229201   6.196   5.028  12.110  0.6885 -0.0154 -0.5525
 1669TIP3    H129202   6.174   4.954  12.167  0.6560 -1.2017 -2.0417
 1669TIP3    H229203   6.273   4.999  12.062 -1.5851 -0.8217 -4.0959
 1670TIP3   OH229204   6.709   1.642  10.490 -0.1611  0.6464 -0.0226
 1670TIP3    H129205   6.643   1.663  10.424 -0.4908 -0.2616  0.0034
 1670TIP3    H229206   6.787   1.691  10.462 -0.6014  1.0876 -0.5033
 1671TIP3   OH229207   1.242   5.603  10.049  0.1077 -0.5340 -0.3640
 1671TIP3    H129208   1.294   5.537  10.095  1.1831  0.4724 -0.0944
 1671TIP3    H229209   1.240   5.572   9.958  1.8558 -0.2151 -0.5466
 1672TIP3   OH229210   6.034   1.306  11.634  0.4619 -0.1793  0.0749
 1672TIP3    H129211   6.128   1.300  11.620  0.3578  0.3251 -0.8353
 1672TIP3    H229212   6.019   1.254  11.714  1.3188 -1.4118 -0.5270
 1673TIP3   OH229213   4.596   1.867  10.313  0.4173 -0.4519 -0.1950
 1673TIP3    H129214   4.565   1.818  10.389 -0.3162 -0.5035 -0.5286
 1673TIP3    H229215   4.618   1.800  10.248 -0.7989 -0.3415 -0.7333
 1674TIP3   OH229216   4.086   3.796  11.228 -0.1910  0.6611  0.4988
 1674TIP3    H129217   4.118   3.763  11.145 -0.6194  0.4127  0.4325
 1674TIP3    H229218   4.159   3.781  11.289  0.5065  1.7531 -0.0309
 1675TIP3   OH229219   5.321   3.666  10.416 -0.1786  0.5558 -0.5880
 1675TIP3    H129220   5.394   3.610  10.442 -1.0129 -0.6404 -0.7525
 1675TIP3    H229221   5.356   3.720  10.345  1.5144  2.3836  1.4723
 1676TIP3   OH229222   2.577   5.190  10.305  0.3337 -0.6329 -0.0176
 1676TIP3    H129223   2.523   5.131  10.358  0.5699 -2.1544 -1.4095
 1676TIP3    H229224   2.536   5.276  10.317 -0.6325 -1.2272  1.2619
 1677TIP3   OH229225   5.890   0.003  10.150  0.0239 -0.3189  0.2132
 1677TIP3    H129226   5.963   0.016  10.212  0.4330  0.9250 -0.4943
 1677TIP3    H229227   5.933  -0.028  10.070 -0.2518  0.2169 -0.1400
 1678TIP3   OH229228   1.954   0.629  10.098 -0.1861  0.0254  0.0391
 1678TIP3    H129229   1.865   0.626  10.061 -0.1295  0.3896 -0.1256
 1678TIP3    H229230   2.000   0.694  10.045  0.1457 -0.0734  0.2049
 1679TIP3   OH229231   6.641   1.860  11.262  0.6451 -0.8377 -0.6082
 1679TIP3    H129232   6.609   1.836  11.349 -0.5113 -0.4379 -0.8976
 1679TIP3    H229233   6.692   1.940  11.276 -1.9720  0.9935 -0.5940
 1680TIP3   OH229234   3.108   5.985  10.969 -0.4527 -0.7821 -0.4647
 1680TIP3    H129235   3.081   5.974  11.060  1.3592 -1.6033  0.0271
 1680TIP3    H229236   3.067   6.067  10.941 -0.6986 -0.2871  1.2278
 1681TIP3   OH229237   2.451   3.243   9.214 -0.4092  0.1509  0.3344
 1681TIP3    H129238   2.387   3.242   9.284  0.7002 -0.2411  1.3785
 1681TIP3    H229239   2.443   3.158   9.172 -1.8385  0.7863 -0.7770
 1682TIP3   OH229240   5.369   2.582  11.668  0.3112  0.0795  0.6302
 1682TIP3    H129241   5.365   2.676  11.651  0.2363  0.0795  0.6463
 1682TIP3    H229242   5.322   2.571  11.751 -0.2496 -0.0586  0.2985
 1683TIP3   OH229243   6.389   0.837   8.672  0.3576 -0.7098 -0.7935
 1683TIP3    H129244   6.363   0.894   8.600 -1.7263  0.1966  0.5786
 1683TIP3    H229245   6.423   0.896   8.739  1.2780 -1.4333 -0.5999
 1684TIP3   OH229246   3.976   3.466   9.054  0.4969  0.1789 -0.7034
 1684TIP3    H129247   3.910   3.402   9.028  1.5618 -1.1433 -0.2623
 1684TIP3    H229248   4.058   3.432   9.019  1.0393  1.5128 -0.7739
 1685TIP3   OH229249   0.718   2.773  10.652 -0.0720 -0.3613  0.5243
 1685TIP3    H129250   0.705   2.754  10.745 -1.0245  2.3704  1.0283
 1685TIP3    H229251   0.812   2.789  10.642 -0.1443  0.6398  1.3263
 1686TIP3   OH229252   5.095   3.454  10.121  0.4836 -0.4366  0.3542
 1686TIP3    H129253   5.084   3.368  10.080 -0.6672 -0.1771  0.0677
 1686TIP3    H229254   5.064   3.515  10.054  0.1291  0.1123  1.0151
 1687TIP3   OH229255   2.647   4.777  12.102  0.6926 -0.2497 -0.0495
 1687TIP3    H129256   2.627   4.798  12.010 -0.4208 -2.5362 -0.3947
 1687TIP3    H229257   2.569   4.807  12.150 -0.8727 -3.1849 -0.5355
 1688TIP3   OH229258   1.423   4.457   9.531 -0.1282 -0.3123  0.3489
 1688TIP3    H129259   1.495   4.397   9.509 -1.0273 -1.4121  0.3262
 1688TIP3    H229260   1.365   4.453   9.456 -0.7585 -0.2737  0.8271
 1689TIP3   OH229261   5.303   2.079  11.263 -0.1378  0.0666 -0.2109
 1689TIP3    H129262   5.314   2.085  11.358  1.8495 -1.6437 -0.2661
 1689TIP3    H229263   5.272   1.990  11.248  1.2445 -0.2764 -1.2394
 1690TIP3   OH229264   5.127   2.980  11.581  0.2188 -0.3120 -0.4610
 1690TIP3    H129265   5.038   3.015  11.573  0.4167  0.4995  0.6369
 1690TIP3    H229266   5.114   2.887  11.598 -0.5749  0.2384  2.4496
 1691TIP3   OH229267   1.540   3.558   8.278  0.5436 -0.8038 -0.2277
 1691TIP3    H129268   1.595   3.545   8.355 -0.2237 -0.0863  0.4642
 1691TIP3    H229269   1.465   3.608   8.310 -0.3383 -1.4359 -1.2149
 1692TIP3   OH229270   5.350   0.525  10.362 -0.1462 -0.7229 -0.0144
 1692TIP3    H129271   5.445   0.537  10.354 -0.1395 -1.5404 -1.7408
 1692TIP3    H229272   5.336   0.433  10.338 -1.3394 -0.7298  0.6418
 1693TIP3   OH229273   0.129   0.331  10.913  0.4254 -0.3978  0.0238
 1693TIP3    H129274   0.165   0.398  10.855  1.0111  0.6063  1.4961
 1693TIP3    H229275   0.202   0.307  10.970  0.2526 -2.3788 -0.4988
 1694TIP3   OH229276   5.105   5.815   9.088  0.2129  0.1869  0.0820
 1694TIP3    H129277   5.096   5.760   9.010  0.5286  1.0045 -0.5467
 1694TIP3    H229278   5.117   5.753   9.160  3.8208 -0.6192 -0.9936
 1695TIP3   OH229279   6.046   5.565  10.711 -0.5480 -0.2675 -0.5047
 1695TIP3    H129280   6.044   5.470  10.698  0.3304 -0.3665 -0.0018
 1695TIP3    H229281   5.972   5.583  10.769 -1.2481 -0.5189 -1.3062
 1696TIP3   OH229282   2.379   5.338   8.885  0.4515 -0.4125  0.0083
 1696TIP3    H129283   2.384   5.258   8.832 -1.8340  0.5923 -1.9436
 1696TIP3    H229284   2.368   5.307   8.974 -0.4953 -2.3081 -0.7066
 1697TIP3   OH229285   3.169   2.724   9.509 -0.3551  0.0528  0.1772
 1697TIP3    H129286   3.170   2.728   9.414  1.6027 -0.9769  0.1021
 1697TIP3    H229287   3.232   2.792   9.536 -2.9259  2.3140  0.9219
 1698TIP3   OH229288   4.645   1.453  10.333 -0.1635 -0.2695 -0.0844
 1698TIP3    H129289   4.720   1.477  10.278  0.1500 -0.3765  0.2861
 1698TIP3    H229290   4.616   1.368  10.299  0.5436 -0.7276  0.4241
 1699TIP3   OH229291   4.214   2.560   9.161 -0.4567 -0.3514 -0.3531
 1699TIP3    H129292   4.299   2.556   9.118  0.1278 -1.4911  0.8412
 1699TIP3    H229293   4.226   2.622   9.233  0.4234 -2.9855  1.9018
 1700TIP3   OH229294   1.367   2.690   9.637 -0.2156  0.1530 -0.2582
 1700TIP3    H129295   1.276   2.662   9.650 -0.6027  1.4166 -0.1140
 1700TIP3    H229296   1.418   2.610   9.650 -1.1955 -0.3138  1.0675
 1701TIP3   OH229297   4.482   0.272  11.319 -0.5211 -0.0667 -1.1053
 1701TIP3    H129298   4.502   0.265  11.412  1.0576  0.4471 -1.3814
 1701TIP3    H229299   4.432   0.193  11.299  1.1308 -1.3772 -0.2989
 1702TIP3   OH229300   4.747   4.473  10.884 -0.2556 -0.2538 -0.1908
 1702TIP3    H129301   4.780   4.436  10.965 -0.4351  0.4511  0.2167
 1702TIP3    H229302   4.819   4.462  10.821  0.1146 -0.2577  0.2291
 1703TIP3   OH229303   6.773   3.338  10.895  0.2213 -0.0616  0.0010
 1703TIP3    H129304   6.847   3.284  10.868 -0.6408 -1.5617  0.5326
 1703TIP3    H229305   6.696   3.287  10.872 -0.6505  1.1360  0.1531
 1704TIP3   OH229306   4.986   0.264  10.774 -1.1031 -0.0788 -0.6030
 1704TIP3    H129307   5.056   0.249  10.837 -0.8912  3.2343  0.1390
 1704TIP3    H229308   5.027   0.311  10.702 -2.3711  1.2944 -0.4801
 1705TIP3   OH229309   1.379   5.613   9.524 -0.1404  0.2904 -0.5301
 1705TIP3    H129310   1.441   5.573   9.463  1.1892 -0.0239  0.9658
 1705TIP3    H229311   1.427   5.686   9.563 -0.7415  0.0798  0.6308
 1706TIP3   OH229312   1.114   5.654  10.398  0.3569 -0.4022 -0.1122
 1706TIP3    H129313   1.159   5.715  10.340 -0.1888  0.1133 -0.0021
 1706TIP3    H229314   1.163   5.573  10.390  0.6338 -0.1710 -0.8545
 1707TIP3   OH229315   1.266   0.691  11.755  0.0780  0.0562 -0.1546
 1707TIP3    H129316   1.278   0.637  11.833 -0.0898  2.1572  1.4035
 1707TIP3    H229317   1.346   0.744  11.750 -1.3232  2.4208  0.7160
 1708TIP3   OH229318   2.066   0.777  11.223  0.9431  0.2310  0.4733
 1708TIP3    H129319   2.100   0.850  11.172 -0.6072 -0.7876 -2.2186
 1708TIP3    H229320   2.143   0.724  11.244  1.5388 -0.1003 -2.2498
 1709TIP3   OH229321   0.822   4.979   8.616 -0.0081 -0.0133  0.0240
 1709TIP3    H129322   0.791   4.989   8.706 -0.1206 -0.2583  0.0145
 1709TIP3    H229323   0.798   4.890   8.592 -1.7513  0.6380 -0.9078
 1710TIP3   OH229324   6.469   3.936  10.876  0.5085 -0.0090  0.2637
 1710TIP3    H129325   6.475   3.840  10.883  1.8486 -0.0303 -0.7402
 1710TIP3    H229326   6.446   3.965  10.964 -0.6966 -1.2903  0.4159
 1711TIP3   OH229327   2.149   1.024  11.092 -0.0995 -0.4318  0.0845
 1711TIP3    H129328   2.163   1.117  11.110 -4.2792  0.6707 -1.3463
 1711TIP3    H229329   2.157   1.017  10.997  1.8255 -2.0234  0.2812
 1712TIP3   OH229330   0.762   6.382  10.858  0.7990 -0.0465  0.8280
 1712TIP3    H129331   0.729   6.292  10.848 -0.3602  0.2935  1.3758
 1712TIP3    H229332   0.856   6.372  10.869  1.3980 -0.9195 -3.2383
 1713TIP3   OH229333   1.536   5.335   8.884  0.0206 -0.5409  0.0730
 1713TIP3    H129334   1.507   5.364   8.798 -1.1473 -1.5159  0.1082
 1713TIP3    H229335   1.473   5.375   8.945 -0.0745 -1.0648  0.3299
 1714TIP3   OH229336   4.460   5.976   8.950 -0.0826  0.5337  0.0533
 1714TIP3    H129337   4.405   6.028   8.891 -0.4867 -0.5255 -0.5525
 1714TIP3    H229338   4.397   5.931   9.007  0.3076  1.5537  1.3218
 1715TIP3   OH229339   6.598   1.821   9.804  0.3497  0.6197 -0.3791
 1715TIP3    H129340   6.675   1.792   9.756  1.6249  1.2143  1.2181
 1715TIP3    H229341   6.630   1.893   9.860 -0.6934 -0.9030  2.3680
 1716TIP3   OH229342   4.493   3.631  10.964 -0.0105  0.1441 -0.1404
 1716TIP3    H129343   4.410   3.668  10.994 -0.6182  0.2190 -1.8211
 1716TIP3    H229344   4.471   3.542  10.935  0.0741  0.7781 -2.3146
 1717TIP3   OH229345   5.972   5.358  11.021  0.0053 -0.2966  0.2583
 1717TIP3    H129346   5.964   5.272  10.980  1.6670 -0.6918  0.6894
 1717TIP3    H229347   5.946   5.420  10.953  0.2161 -1.0770 -0.5501
 1718TIP3   OH229348   6.634   0.776   8.880  0.3462 -0.7850 -0.4612
 1718TIP3    H129349   6.721   0.770   8.921 -0.1407  1.1893  0.9954
 1718TIP3    H229350   6.602   0.686   8.880  1.5185 -1.2553  0.9831
 1719TIP3   OH229351   3.414   1.721   9.759 -0.2290  0.5903  0.8154
 1719TIP3    H129352   3.445   1.645   9.808 -0.7458 -0.8103 -0.9130
 1719TIP3    H229353   3.490   1.751   9.711 -0.4274  0.0228  0.1254
 1720TIP3   OH229354   6.469   2.369  11.733  0.4911  0.5884 -0.3694
 1720TIP3    H129355   6.544   2.409  11.777 -0.3066  1.2574  0.4240
 1720TIP3    H229356   6.413   2.337  11.805 -0.6700  1.3788 -0.8909
 1721TIP3   OH229357   1.878   4.089   9.017 -0.3394 -0.1666  0.2674
 1721TIP3    H129358   1.933   4.013   8.996 -1.0597 -0.9304  1.0449
 1721TIP3    H229359   1.933   4.144   9.073 -0.9669 -1.9347  2.7954
 1722TIP3   OH229360   0.267   5.374   9.794  0.0490  0.2984  0.3659
 1722TIP3    H129361   0.220   5.457   9.788  0.7729  0.6422 -0.8032
 1722TIP3    H229362   0.360   5.399   9.793  0.2890 -0.4258  1.8001
 1723TIP3   OH229363   4.334   1.056  10.078  0.3383  0.5035  0.2764
 1723TIP3    H129364   4.320   1.130  10.137  0.2777 -0.5890  1.6803
 1723TIP3    H229365   4.396   1.000  10.124 -0.4607 -0.8649 -0.2588
 1724TIP3   OH229366   4.823   1.159   9.680 -0.0866 -0.3755  0.1756
 1724TIP3    H129367   4.737   1.135   9.717 -0.8974  1.0256 -0.6975
 1724TIP3    H229368   4.833   1.251   9.704  0.4610 -0.1002 -1.0583
 1725TIP3   OH229369   3.483   2.959  11.252 -0.0527  0.5858  0.3287
 1725TIP3    H129370   3.438   3.032  11.210 -0.1253  0.6116  0.4495
 1725TIP3    H229371   3.458   2.882  11.201 -1.3721  0.3870  1.2237
 1726TIP3   OH229372   0.777   0.248   9.485  0.1126 -0.5338 -0.1076
 1726TIP3    H129373   0.693   0.219   9.521 -1.7385  2.4233 -1.6752
 1726TIP3    H229374   0.800   0.179   9.422 -2.4045 -0.3992 -1.3215
 1727TIP3   OH229375   1.488   2.493  11.581 -0.0252  0.1246  0.5474
 1727TIP3    H129376   1.406   2.533  11.610 -1.4594 -1.0227 -1.6703
 1727TIP3    H229377   1.480   2.488  11.486  2.2835 -0.7873  0.3375
 1728TIP3   OH229378   0.120   6.534   9.008 -0.0607  0.2073 -0.0429
 1728TIP3    H129379   0.082   6.595   9.071  0.0496 -0.5073  0.7349
 1728TIP3    H229380   0.170   6.590   8.948  1.0356  0.7926  1.3579
 1729TIP3   OH229381   5.553   6.253  11.461 -0.0739 -0.3227 -0.0664
 1729TIP3    H129382   5.478   6.310  11.480 -0.6419 -1.2357  0.5146
 1729TIP3    H229383   5.517   6.165  11.467  1.2141 -0.7993  0.9969
 1730TIP3   OH229384   5.582   4.111  10.648  0.5220 -0.1875 -0.3657
 1730TIP3    H129385   5.640   4.036  10.633  1.5550  0.2911  1.1196
 1730TIP3    H229386   5.518   4.079  10.712 -0.2103 -0.3618 -1.1593
 1731TIP3   OH229387   3.744   0.206  11.917 -0.2528  0.3953  0.0236
 1731TIP3    H129388   3.827   0.161  11.929 -0.9988 -1.0350  0.0651
 1731TIP3    H229389   3.681   0.155  11.968 -1.3675  0.8000 -0.8916
 1732TIP3   OH229390   5.848   2.745  12.108  0.3331 -0.1618 -0.3212
 1732TIP3    H129391   5.842   2.820  12.166 -0.6953 -1.4480  1.3327
 1732TIP3    H229392   5.763   2.742  12.064  0.1625 -0.6589  0.0344
 1733TIP3   OH229393   4.178   1.422   8.466  0.6365 -0.5317 -0.2570
 1733TIP3    H129394   4.253   1.453   8.415  0.0789 -1.0115 -1.3989
 1733TIP3    H229395   4.174   1.328   8.448  1.1413 -0.9584  1.6435
 1734TIP3   OH229396   3.472   5.063  10.938 -0.0961 -0.3472  0.4280
 1734TIP3    H129397   3.562   5.046  10.966 -0.1871  0.6935  1.4542
 1734TIP3    H229398   3.481   5.118  10.861  0.1554  0.0154  0.7128
 1735TIP3   OH229399   4.116   3.699  10.397  0.4501  0.0427  0.3635
 1735TIP3    H129400   4.063   3.699  10.318 -0.0355 -1.1456  0.6755
 1735TIP3    H229401   4.060   3.738  10.464 -0.0763 -1.2735  0.7087
 1736TIP3   OH229402   6.485   6.138  11.062 -0.8720 -0.0304  0.2744
 1736TIP3    H129403   6.518   6.151  11.151  0.8715  2.0546 -0.5940
 1736TIP3    H229404   6.552   6.084  11.019 -0.7004  0.6424 -0.3164
 1737TIP3   OH229405   2.013   1.741  12.054  0.2244 -0.5874 -0.0540
 1737TIP3    H129406   2.014   1.825  12.009 -0.5917 -0.6518 -0.2026
 1737TIP3    H229407   1.968   1.758  12.136 -0.1682 -0.9356 -0.1959
 1738TIP3   OH229408   4.675   3.556  10.550 -0.1036  0.1343 -0.2836
 1738TIP3    H129409   4.759   3.596  10.570 -0.0575 -0.3739  0.6091
 1738TIP3    H229410   4.691   3.462  10.559 -1.2222  0.0877  1.8771
 1739TIP3   OH229411   6.634   3.195   9.985 -0.1824  0.3378  0.4931
 1739TIP3    H129412   6.566   3.178  10.051  0.5354  1.1712  1.4868
 1739TIP3    H229413   6.687   3.265  10.024  0.4950  0.5730 -0.8163
 1740TIP3   OH229414   0.463   1.807  11.082 -0.8543  0.0328 -0.4478
 1740TIP3    H129415   0.557   1.810  11.065 -0.7001  1.1819  0.4909
 1740TIP3    H229416   0.455   1.821  11.176 -2.0251  1.3291 -0.7037
 1741TIP3   OH229417   1.459   4.442   9.005 -0.4712 -0.4077  0.5111
 1741TIP3    H129418   1.520   4.499   8.959 -0.6355 -0.2684  0.4653
 1741TIP3    H229419   1.498   4.431   9.092 -0.5640 -0.0150  0.6072
 1742TIP3   OH229420   5.051   4.594   9.342  0.7041 -0.3017  0.2808
 1742TIP3    H129421   4.958   4.608   9.324  0.7915  0.5626  0.4585
 1742TIP3    H229422   5.055   4.568   9.434  0.4888 -2.1435 -0.2046
 1743TIP3   OH229423   4.517   6.759  11.359 -0.0772 -0.4601  0.6070
 1743TIP3    H129424   4.535   6.670  11.327 -0.3232  0.5203 -2.5917
 1743TIP3    H229425   4.426   6.776  11.334  0.0003  0.7216  1.0746
 1744TIP3   OH229426   4.622   3.846  11.487 -0.0512 -0.0770 -0.0642
 1744TIP3    H129427   4.585   3.782  11.425 -0.2539 -1.7814  1.7254
 1744TIP3    H229428   4.561   3.920  11.484 -0.1507 -0.1695 -1.7385
 1745TIP3   OH229429   0.774   0.458   9.817  0.0517  0.2592 -0.5016
 1745TIP3    H129430   0.703   0.472   9.754 -0.3399 -0.5082 -0.2357
 1745TIP3    H229431   0.780   0.363   9.827  1.2744  0.2969 -0.6884
 1746TIP3   OH229432   0.606   0.211  10.702  0.4604 -0.0693  0.4489
 1746TIP3    H129433   0.535   0.210  10.767  0.8494  0.1485  0.8870
 1746TIP3    H229434   0.580   0.147  10.637 -0.7156  0.8468 -0.0230
 1747TIP3   OH229435   2.742   4.858  10.585 -0.0268 -0.5042 -0.3566
 1747TIP3    H129436   2.761   4.833  10.495  0.9102  0.1042 -0.3401
 1747TIP3    H229437   2.818   4.829  10.635  0.7501  1.6208 -0.2146
 1748TIP3   OH229438   2.024   4.233  10.140 -0.6854  0.1173  0.6831
 1748TIP3    H129439   1.994   4.242  10.049 -1.2631 -0.1290  0.8463
 1748TIP3    H229440   1.980   4.155  10.172  2.2379 -1.9381  0.1025
 1749TIP3   OH229441   2.814   6.512  11.712 -0.0329 -0.4079 -0.2350
 1749TIP3    H129442   2.805   6.539  11.803  1.6752  0.2596 -0.2220
 1749TIP3    H229443   2.732   6.539  11.670 -0.6973 -0.4241  1.0133
 1750TIP3   OH229444   6.461   1.567  10.052 -0.4545 -0.2920 -0.3919
 1750TIP3    H129445   6.489   1.566   9.960  1.9987 -0.5410  0.2712
 1750TIP3    H229446   6.378   1.520  10.052 -1.9029  1.9710 -2.8243
 1751TIP3   OH229447   0.194   4.570  11.172  0.2721 -0.1098 -0.3407
 1751TIP3    H129448   0.109   4.597  11.209 -0.3194 -2.5563  0.2561
 1751TIP3    H229449   0.254   4.573  11.247  0.2212 -0.4019 -0.2896
 1752TIP3   OH229450   2.728   3.710  11.213 -0.1532  0.2463 -0.2912
 1752TIP3    H129451   2.796   3.689  11.150  0.2978  0.1860  0.2147
 1752TIP3    H229452   2.716   3.629  11.263 -0.9492  0.0988 -0.7002
 1753TIP3   OH229453   3.753   2.710   8.801  0.0213 -0.1588  0.0917
 1753TIP3    H129454   3.763   2.803   8.778 -1.1422 -0.3835 -1.4468
 1753TIP3    H229455   3.668   2.705   8.844  0.4192 -0.4045  0.8636
 1754TIP3   OH229456   1.571   6.746  10.784  0.4642  0.0054  0.4630
 1754TIP3    H129457   1.592   6.671  10.729 -0.2662  0.2069 -0.1057
 1754TIP3    H229458   1.632   6.815  10.756  0.6137 -0.1342  0.4456
 1755TIP3   OH229459   4.823   4.957   8.881  0.2751 -0.2961 -0.1426
 1755TIP3    H129460   4.870   5.040   8.888 -0.3604  0.0304  0.3883
 1755TIP3    H229461   4.808   4.946   8.787 -1.8053  1.4661 -0.0951
 1756TIP3   OH229462   0.363   4.112  11.218 -0.2935 -0.0333 -0.9943
 1756TIP3    H129463   0.342   4.189  11.270 -3.0363 -0.7967 -0.7814
 1756TIP3    H229464   0.395   4.146  11.134  0.0367  1.2700 -0.3553
 1757TIP3   OH229465   2.717   0.152   9.238  0.3996 -0.6423 -0.5616
 1757TIP3    H129466   2.786   0.185   9.296 -0.0837 -0.6517  0.0360
 1757TIP3    H229467   2.761   0.089   9.181  0.8256 -0.8721  0.0146
 1758TIP3   OH229468   1.380   6.337  10.559  0.2593 -0.0987 -0.2389
 1758TIP3    H129469   1.409   6.343  10.468 -0.2285  0.6726 -0.3530
 1758TIP3    H229470   1.391   6.244  10.581  0.7075 -0.2335 -0.9703
 1759TIP3   OH229471   0.150   0.232  10.371  0.3976  0.0214 -0.0885
 1759TIP3    H129472   0.210   0.188  10.311  0.7778 -2.9970  2.2357
 1759TIP3    H229473   0.206   0.263  10.442 -0.3168  1.1150  0.0111
 1760TIP3   OH229474   2.503   6.710  10.176  1.2000 -0.4542 -0.3419
 1760TIP3    H129475   2.422   6.678  10.135  0.0437  2.4979 -0.6350
 1760TIP3    H229476   2.477   6.734  10.265  1.3834  1.7172 -0.8370
 1761TIP3   OH229477   6.188   0.807   9.471  0.0809  0.0568 -0.0718
 1761TIP3    H129478   6.147   0.890   9.448 -0.5659  0.0833  1.1183
 1761TIP3    H229479   6.277   0.815   9.438 -0.4717  0.5112 -1.5450
 1762TIP3   OH229480   0.383   4.209   8.420 -0.1668  0.1511  0.2083
 1762TIP3    H129481   0.390   4.179   8.329 -1.4356  0.4887 -0.0272
 1762TIP3    H229482   0.428   4.142   8.471 -1.9123 -1.5756 -0.4112
 1763TIP3   OH229483   2.959   1.828  11.445  0.1669 -0.1125 -0.1175
 1763TIP3    H129484   3.018   1.756  11.426  1.0435  0.4893  0.2897
 1763TIP3    H229485   2.879   1.806  11.397 -0.0973 -2.0425  1.1199
 1764TIP3   OH229486   0.245   6.109  11.028  0.3498  0.8279 -0.4127
 1764TIP3    H129487   0.199   6.053  11.090  2.9122  0.1338  1.0245
 1764TIP3    H229488   0.248   6.195  11.070 -0.9476  1.2985 -1.2333
 1765TIP3   OH229489   0.499   1.424  10.103 -0.2249  0.4912 -0.0905
 1765TIP3    H129490   0.471   1.514  10.090 -2.1082  0.0167  0.3363
 1765TIP3    H229491   0.572   1.429  10.165  0.9001  1.8175 -1.4471
 1766TIP3   OH229492   5.782   6.107  10.285 -0.0412 -0.5807 -0.3994
 1766TIP3    H129493   5.875   6.112  10.263  0.0488 -0.6723 -0.0466
 1766TIP3    H229494   5.781   6.068  10.372 -0.4122 -0.5967 -0.4128
 1767TIP3   OH229495   3.342   3.333  11.424 -0.1347  0.1605  0.3468
 1767TIP3    H129496   3.307   3.278  11.354  3.2729  0.0998 -1.5172
 1767TIP3    H229497   3.382   3.407  11.379  2.8613 -0.2586  2.0707
 1768TIP3   OH229498   0.337   6.033  11.841 -0.2662  0.1399  0.4377
 1768TIP3    H129499   0.249   6.055  11.872 -0.8801 -2.1322  0.4860
 1768TIP3    H229500   0.329   6.029  11.746 -0.1827  0.0098  0.4358
 1769TIP3   OH229501   5.791   3.122  10.950 -0.4120  0.2922 -0.5460
 1769TIP3    H129502   5.768   3.100  11.040 -0.8016  2.1504 -0.1445
 1769TIP3    H229503   5.767   3.044  10.899 -1.8239 -0.1431  0.7075
 1770TIP3   OH229504   5.298   4.562  10.611  0.5015 -0.0201 -0.0769
 1770TIP3    H129505   5.342   4.603  10.537  0.5893  1.6926  0.8737
 1770TIP3    H229506   5.206   4.560  10.586  0.3647  1.5923  0.1751
 1771TIP3   OH229507   0.835   5.890  10.620  0.4768  0.3086 -0.1510
 1771TIP3    H129508   0.893   5.919  10.549  0.7657 -0.9419 -0.4501
 1771TIP3    H229509   0.889   5.893  10.699  1.2190 -1.5379 -0.5381
 1772TIP3   OH229510   5.088   0.439  11.534  0.2062  0.4475 -0.6072
 1772TIP3    H129511   5.107   0.394  11.452  0.9821 -1.8205  0.7248
 1772TIP3    H229512   5.139   0.520  11.529  1.2356 -0.2397 -1.8570
 1773TIP3   OH229513   5.353   3.983  11.362  0.3072 -0.3641 -0.1920
 1773TIP3    H129514   5.341   3.928  11.284  0.5649 -0.9445  0.1690
 1773TIP3    H229515   5.435   3.952  11.400 -0.4271 -0.9459  0.9959
 1774TIP3   OH229516   0.134   1.486   9.290  0.2484 -0.2649 -0.3812
 1774TIP3    H129517   0.052   1.454   9.328 -0.5738  0.3770 -1.5586
 1774TIP3    H229518   0.151   1.569   9.335 -0.2423  0.0502 -0.7697
 1775TIP3   OH229519   3.656   3.204  10.394  0.0544  0.3081 -0.1537
 1775TIP3    H129520   3.562   3.187  10.391  0.2566 -0.9886  0.3689
 1775TIP3    H229521   3.663   3.297  10.416 -1.1396 -0.2890  3.3989
 1776TIP3   OH229522   6.495   3.943   8.122 -0.0615 -0.3703  0.0048
 1776TIP3    H129523   6.418   3.890   8.144 -1.9107  1.5411 -1.5376
 1776TIP3    H229524   6.478   4.029   8.159  1.4482  0.0510 -0.1847
 1777TIP3   OH229525   3.723   3.890  11.604 -0.4038 -0.0091 -0.0869
 1777TIP3    H129526   3.770   3.921  11.681 -1.5612  2.2865 -0.2158
 1777TIP3    H229527   3.694   3.802  11.627  0.8660 -0.0796  1.3494
 1778TIP3   OH229528   3.926   4.389  11.649 -0.4281  0.5786  0.0925
 1778TIP3    H129529   4.012   4.431  11.637 -0.5433  0.5455 -0.9581
 1778TIP3    H229530   3.875   4.419  11.573 -1.4779  0.9092  0.9117
 1779TIP3   OH229531   0.311   0.069   9.236  0.5936 -0.3937 -0.6042
 1779TIP3    H129532   0.281   0.152   9.272  1.9123  0.4222 -1.3275
 1779TIP3    H229533   0.263   0.060   9.153 -1.4713 -1.6474  0.6412
 1780TIP3   OH229534   4.325   0.203  11.634 -0.1136  0.2134  0.2095
 1780TIP3    H129535   4.416   0.226  11.619 -0.3601  1.7484  0.8801
 1780TIP3    H229536   4.318   0.197  11.730 -0.3380 -1.6192  0.1096
 1781TIP3   OH229537   2.849   4.604  10.828  0.0442  0.8346 -0.3574
 1781TIP3    H129538   2.896   4.682  10.799 -0.4819  1.4644  0.4443
 1781TIP3    H229539   2.918   4.537  10.838  0.4791  1.1466 -1.1576
 1782TIP3   OH229540   1.365   3.546   9.347  0.0926  0.2188  0.0066
 1782TIP3    H129541   1.364   3.538   9.443 -0.5410  0.4630  0.0262
 1782TIP3    H229542   1.430   3.614   9.329  0.0055  0.3786  0.2833
 1783TIP3   OH229543   6.024   2.607  11.505  0.2553  0.4110  0.3134
 1783TIP3    H129544   6.071   2.568  11.579  0.6838  0.1526 -0.0869
 1783TIP3    H229545   6.040   2.547  11.433  1.1389  1.4455 -0.3815
 1784TIP3   OH229546   6.156   5.269   8.917 -0.3848  0.0137 -0.3622
 1784TIP3    H129547   6.166   5.246   8.825 -1.0475  0.9641 -0.6744
 1784TIP3    H229548   6.106   5.350   8.917  0.0023  0.2679  0.8211
 1785TIP3   OH229549   6.519   3.914  10.186  0.2610 -0.4722 -0.6789
 1785TIP3    H129550   6.493   4.004  10.205 -0.2902 -0.7237 -0.2118
 1785TIP3    H229551   6.612   3.911  10.207  0.2448 -0.0517 -0.5422
 1786TIP3   OH229552   1.626   4.321  10.145  0.5134  0.5568  0.3815
 1786TIP3    H129553   1.556   4.315  10.081  0.7980 -0.4761  0.1434
 1786TIP3    H229554   1.706   4.301  10.095  0.6747 -0.8493  1.1425
 1787TIP3   OH229555   5.861   5.459  11.987 -0.9178  0.2921 -0.2386
 1787TIP3    H129556   5.919   5.514  12.040 -1.5711 -0.9482  1.8774
 1787TIP3    H229557   5.914   5.437  11.910 -0.4874  3.4202 -0.9792
 1788TIP3   OH229558   1.873   2.703   8.792  0.0466  0.0707 -0.0127
 1788TIP3    H129559   1.823   2.668   8.866 -0.7217  1.3600  0.0952
 1788TIP3    H229560   1.806   2.733   8.730  0.6871 -0.0907 -0.7953
 1789TIP3   OH229561   1.055   1.426  10.981  0.3515  0.7056 -0.8180
 1789TIP3    H129562   1.039   1.520  10.974  1.7266  1.0878  0.6672
 1789TIP3    H229563   1.109   1.405  10.906 -0.5093  0.9595 -1.5220
 1790TIP3   OH229564   6.250   3.800   9.696  0.4398  0.4490 -0.3035
 1790TIP3    H129565   6.317   3.790   9.763 -0.4770  0.6448  0.6719
 1790TIP3    H229566   6.172   3.826   9.744  0.0499  1.7748 -1.5774
 1791TIP3   OH229567   4.843   4.217  10.067 -0.0828  0.0026  0.0824
 1791TIP3    H129568   4.792   4.159  10.010 -0.2811  0.2150  0.0411
 1791TIP3    H229569   4.788   4.228  10.145 -0.5969  1.0782 -0.3944
 1792TIP3   OH229570   1.134   2.464   8.492 -0.2638 -0.6087  0.6754
 1792TIP3    H129571   1.118   2.372   8.469  0.7412 -0.2537 -1.7728
 1792TIP3    H229572   1.075   2.513   8.434 -0.3838  0.3097  1.5601
 1793TIP3   OH229573   4.270   0.080  11.369  0.3575 -0.2521 -0.1413
 1793TIP3    H129574   4.184   0.115  11.348 -0.5911 -2.4558 -0.2142
 1793TIP3    H229575   4.284   0.104  11.461 -1.5530 -2.0285  0.6971
 1794TIP3   OH229576   3.172   6.515  11.485  0.6243  0.5037 -0.0620
 1794TIP3    H129577   3.108   6.525  11.414 -1.0710  1.3805  1.4801
 1794TIP3    H229578   3.122   6.474  11.556  1.6487  1.5567  1.3278
 1795TIP3   OH229579   3.811   5.650   9.545  0.1899 -0.6368  0.1153
 1795TIP3    H129580   3.897   5.638   9.503  0.1504 -1.3571  0.2250
 1795TIP3    H229581   3.750   5.661   9.472  0.2354 -1.1321 -0.0076
 1796TIP3   OH229582   3.436   0.248   9.246  0.0575  0.0988  0.2411
 1796TIP3    H129583   3.404   0.326   9.200  1.2009  1.7943  2.1624
 1796TIP3    H229584   3.489   0.202   9.181 -1.1015  0.5971 -1.1004
 1797TIP3   OH229585   6.547   3.446   9.384 -0.4247  0.7522 -0.8837
 1797TIP3    H129586   6.641   3.431   9.372 -0.9666 -1.8342 -3.1280
 1797TIP3    H229587   6.516   3.472   9.297 -1.8456  1.1170 -0.2936
 1798TIP3   OH229588   4.001   4.138  10.629  0.6686  0.3128  0.2190
 1798TIP3    H129589   4.036   4.184  10.705  1.4997 -0.9728  0.6501
 1798TIP3    H229590   3.922   4.187  10.605 -1.4689 -1.0079  3.8714
 1799TIP3   OH229591   2.172   0.071   9.879 -0.0109 -0.6109 -0.2326
 1799TIP3    H129592   2.233   0.144   9.867 -0.2086 -0.5890 -1.2271
 1799TIP3    H229593   2.224  -0.007   9.862  0.1750 -0.7087  0.7299
 1800TIP3   OH229594   6.009   1.475  11.039  0.1354  0.7400 -0.0095
 1800TIP3    H129595   5.949   1.547  11.059 -1.3104 -0.4029 -0.1366
 1800TIP3    H229596   5.975   1.401  11.089  1.8271  0.2133  0.4210
 1801TIP3   OH229597   2.141   4.035  10.484 -0.2384 -0.5497  0.4078
 1801TIP3    H129598   2.122   4.008  10.574  0.9825 -0.2826  0.7616
 1801TIP3    H229599   2.065   4.005  10.434 -1.0531 -0.4852  1.5625
 1802TIP3   OH229600   2.122   2.002   7.893 -0.4926 -0.1615  0.0015
 1802TIP3    H129601   2.148   2.009   7.984 -1.8222 -0.2657  0.4109
 1802TIP3    H229602   2.102   2.092   7.867  0.1334 -0.0966 -0.2754
 1803TIP3   OH229603   2.825   6.729   9.098  0.2725  0.4220 -0.1947
 1803TIP3    H129604   2.734   6.697   9.099 -0.1520  1.5687  0.9212
 1803TIP3    H229605   2.875   6.657   9.061 -0.9309 -0.7219  0.3132
 1804TIP3   OH229606   4.663   5.442  10.831 -0.4922  0.6669  0.3677
 1804TIP3    H129607   4.735   5.505  10.834 -1.1756  1.4416  1.9942
 1804TIP3    H229608   4.645   5.430  10.738  1.6079  0.5773 -0.0658
 1805TIP3   OH229609   6.372   3.516  10.849  0.1588 -0.2439 -0.0295
 1805TIP3    H129610   6.362   3.487  10.940  1.0152 -2.1324 -0.4765
 1805TIP3    H229611   6.290   3.491  10.807 -0.8762  2.0170  0.4917
 1806TIP3   OH229612   4.692   3.070  11.894 -0.2734 -0.0474  0.2268
 1806TIP3    H129613   4.629   3.140  11.878 -0.1765  0.1849  0.8418
 1806TIP3    H229614   4.721   3.044  11.806  2.1238  2.9347 -0.0571
 1807TIP3   OH229615   6.788   5.526  11.485  0.2331  0.5700  0.0640
 1807TIP3    H129616   6.845   5.473  11.429 -0.3248  0.5231 -0.4625
 1807TIP3    H229617   6.764   5.468  11.557 -1.2862 -0.3053 -1.0820
 1808TIP3   OH229618   0.843   1.832   8.512 -0.3263 -0.6055 -0.0318
 1808TIP3    H129619   0.768   1.879   8.474  0.3416  0.2386 -0.3311
 1808TIP3    H229620   0.813   1.742   8.519 -1.0084 -0.4888 -1.1466
 1809TIP3   OH229621   2.385   4.287   9.499 -0.5199 -0.0886  0.0904
 1809TIP3    H129622   2.414   4.278   9.589 -1.3715  0.4967  0.4369
 1809TIP3    H229623   2.400   4.201   9.459  2.4311  0.3662 -0.0044
 1810TIP3   OH229624   2.789   3.216  10.549 -0.3969  0.4855  0.3921
 1810TIP3    H129625   2.854   3.179  10.608 -1.2985 -1.4997  0.2022
 1810TIP3    H229626   2.712   3.229  10.603 -0.1619  1.9855  0.4117
 1811TIP3   OH229627   2.326   2.602  11.727  0.1878  0.3566 -0.1130
 1811TIP3    H129628   2.345   2.512  11.702  1.9769  0.5294  0.5159
 1811TIP3    H229629   2.378   2.618  11.805 -0.2984  1.8658 -0.0502
 1812TIP3   OH229630   4.274   2.399  10.080  0.2752 -0.6688  0.4108
 1812TIP3    H129631   4.195   2.373  10.032 -0.6081  0.4797  1.1917
 1812TIP3    H229632   4.312   2.469  10.028  1.2466 -1.7420 -0.3717
 1813TIP3   OH229633   2.660   2.304   9.250 -0.5506  0.3101  0.4420
 1813TIP3    H129634   2.743   2.266   9.278 -1.3740 -0.6604  1.6581
 1813TIP3    H229635   2.660   2.296   9.155  1.0061  0.9037  0.3669
 1814TIP3   OH229636   1.329   2.500   8.134  0.7923 -0.2412 -0.0502
 1814TIP3    H129637   1.368   2.548   8.061  0.5770  0.6606  0.4089
 1814TIP3    H229638   1.297   2.418   8.095  1.3218 -0.0946 -0.8149
 1815TIP3   OH229639   6.089   4.712  11.318 -0.8051  0.0332 -0.5321
 1815TIP3    H129640   6.139   4.631  11.314  0.0426  0.3314  2.1211
 1815TIP3    H229641   5.998   4.684  11.318 -0.5407 -0.8633 -0.3982
 1816TIP3   OH229642   5.679   2.752  10.085 -0.0284 -0.1995 -0.3777
 1816TIP3    H129643   5.613   2.687  10.064 -1.1859  0.4511  1.0681
 1816TIP3    H229644   5.631   2.823  10.126  1.3957  0.9419 -0.5767
 1817TIP3   OH229645   6.047   5.774   9.045 -0.0034  0.5730 -0.2123
 1817TIP3    H129646   6.051   5.789   8.950  1.0767  2.7293  0.1121
 1817TIP3    H229647   5.955   5.761   9.064 -0.2980  0.6927 -1.4898
 1818TIP3   OH229648   1.274   1.455   8.942  0.1188 -0.6857 -0.1174
 1818TIP3    H129649   1.271   1.526   9.006 -1.3779 -0.9813  0.1778
 1818TIP3    H229650   1.333   1.390   8.981  1.2361  0.2093 -0.2421
 1819TIP3   OH229651   5.079   2.521  10.674 -0.1908 -0.3369 -0.1650
 1819TIP3    H129652   5.027   2.497  10.751 -0.9131  1.4992 -0.0306
 1819TIP3    H229653   5.054   2.458  10.607 -0.1361 -1.4790  0.8665
 1820TIP3   OH229654   3.853   2.429  10.939 -0.3619 -0.0636 -0.0362
 1820TIP3    H129655   3.862   2.397  11.029  0.5978 -0.2888 -0.2004
 1820TIP3    H229656   3.876   2.522  10.944 -1.8061  0.3155  0.1971
 1821TIP3   OH229657   1.781   4.461   9.661  0.3197 -0.0684  0.1815
 1821TIP3    H129658   1.792   4.381   9.609  0.2635 -0.0572  0.1517
 1821TIP3    H229659   1.786   4.532   9.596  0.0323 -0.0649  0.1611
 1822TIP3   OH229660   3.411   1.356  11.353 -0.2367  0.1308 -0.5974
 1822TIP3    H129661   3.321   1.323  11.341  0.7215 -2.5844 -0.9809
 1822TIP3    H229662   3.414   1.384  11.444 -1.0490 -1.3046 -0.0953
 1823TIP3   OH229663   1.795   0.700  11.244  0.4041 -0.9939 -0.2732
 1823TIP3    H129664   1.752   0.710  11.329  0.2621  1.2518 -0.5460
 1823TIP3    H229665   1.885   0.729  11.259  0.7908 -1.9815 -0.5851
 1824TIP3   OH229666   4.013   0.651  11.293  0.2757 -0.2196 -0.7049
 1824TIP3    H129667   4.063   0.661  11.374 -0.3439  1.7878 -0.5255
 1824TIP3    H229668   4.049   0.717  11.234 -1.5858  0.7407 -0.8348
 1825TIP3   OH229669   3.981   3.225  11.145  0.0436  0.0901 -0.2004
 1825TIP3    H129670   3.917   3.295  11.158 -0.5045 -0.2636 -0.8875
 1825TIP3    H229671   4.059   3.269  11.111  0.1847  0.5299  0.6649
 1826TIP3   OH229672   5.565   6.103   9.829  0.2537 -0.6691  0.0486
 1826TIP3    H129673   5.560   6.025   9.883 -0.0648 -1.2304 -0.7792
 1826TIP3    H229674   5.634   6.156   9.870  0.2165 -1.2055  0.8264
 1827TIP3   OH229675   4.770   0.158  10.435  0.1087 -0.2789  0.3372
 1827TIP3    H129676   4.847   0.101  10.433 -1.5148 -2.6545 -2.1235
 1827TIP3    H229677   4.763   0.186  10.526  2.6692 -1.6546  1.0627
 1828TIP3   OH229678   6.352   1.178  11.204 -0.5409 -0.9742 -0.2060
 1828TIP3    H129679   6.311   1.227  11.132 -2.1803 -1.3719  0.4103
 1828TIP3    H229680   6.303   1.096  11.208  0.0073 -1.2625  0.8913
 1829TIP3   OH229681   5.522   4.212  10.359 -0.4733  0.2559 -0.1789
 1829TIP3    H129682   5.433   4.198  10.326 -0.8264  2.2170 -0.1971
 1829TIP3    H229683   5.524   4.166  10.443 -1.3084 -0.3174 -0.4639
 1830TIP3   OH229684   1.907   0.251  11.463 -0.0033  0.3413  0.1792
 1830TIP3    H129685   1.937   0.183  11.404 -0.7233  0.0672  0.1185
 1830TIP3    H229686   1.892   0.327  11.407 -1.0865 -0.0401 -0.0779
 1831TIP3   OH229687   6.415   3.218  10.199 -0.3415 -0.1273 -0.6096
 1831TIP3    H129688   6.324   3.208  10.230 -0.3541  0.1516 -0.5551
 1831TIP3    H229689   6.467   3.169  10.263 -0.2410  1.4265  0.5712
 1832TIP3   OH229690   1.795   5.133   9.537  0.3159  0.1767 -0.1556
 1832TIP3    H129691   1.761   5.217   9.567  0.6416  1.0233 -2.0182
 1832TIP3    H229692   1.862   5.156   9.472  2.1289 -1.4864  1.0001
 1833TIP3   OH229693   2.846   0.300   9.424 -0.3710 -0.1116  0.2153
 1833TIP3    H129694   2.780   0.322   9.490  0.8226  0.8737  1.1341
 1833TIP3    H229695   2.929   0.305   9.471  0.4218 -0.6446 -1.0743
 1834TIP3   OH229696   5.137   4.323   9.397 -0.5135 -0.3660  0.2495
 1834TIP3    H129697   5.092   4.334   9.314 -0.5640 -0.8644  0.2115
 1834TIP3    H229698   5.136   4.229   9.414 -0.7191 -0.2473  0.9353
 1835TIP3   OH229699   2.110   3.050   8.595 -0.2942  0.0012 -0.1984
 1835TIP3    H129700   2.196   3.033   8.557 -0.1469 -0.7538  0.4324
 1835TIP3    H229701   2.090   3.140   8.572  0.9619  0.4043  0.1998
 1836TIP3   OH229702   5.459   0.348  10.058 -0.0080  1.0491 -0.2804
 1836TIP3    H129703   5.486   0.379   9.971  0.3353  1.7622  0.0726
 1836TIP3    H229704   5.366   0.330  10.048  0.2408  0.0787 -1.0857
 1837TIP3   OH229705   3.824   4.665  10.202  0.2209  0.4715  0.7276
 1837TIP3    H129706   3.902   4.715  10.178 -0.1237  1.0043  0.6936
 1837TIP3    H229707   3.839   4.578  10.166  2.4781 -0.6149  3.8842
 1838TIP3   OH229708   4.475   5.477  11.113  0.8405 -0.4194 -0.1260
 1838TIP3    H129709   4.562   5.443  11.133  0.9432 -1.0492 -1.5780
 1838TIP3    H229710   4.420   5.447  11.186  1.3940 -1.8254 -0.2640
 1839TIP3   OH229711   0.926   6.319  11.989  1.0180  0.3154  0.0666
 1839TIP3    H129712   0.951   6.409  11.967 -0.7806  0.7929 -0.1278
 1839TIP3    H229713   0.831   6.320  11.995  1.0175 -1.3143  1.2856
 1840TIP3   OH229714   0.083   2.044  10.070 -0.1845  0.1327 -1.0059
 1840TIP3    H129715  -0.012   2.044  10.059 -0.1679 -0.3291 -1.1940
 1840TIP3    H229716   0.096   2.002  10.156 -0.2669  2.7321  0.3869
 1841TIP3   OH229717   0.061   0.225  11.580 -0.1439 -0.6798  0.5255
 1841TIP3    H129718  -0.028   0.230  11.614 -0.2840  0.8371  0.0009
 1841TIP3    H229719   0.116   0.246  11.655 -0.3804  1.0505  0.2623
 1842TIP3   OH229720   5.503   5.788  11.690 -0.4804  0.3483  0.1732
 1842TIP3    H129721   5.511   5.871  11.738  0.8322  0.3269  0.0364
 1842TIP3    H229722   5.586   5.779  11.644  0.3359 -2.0667  1.8735
 1843TIP3   OH229723   5.111   5.203   8.464 -0.2721  0.1960 -0.0142
 1843TIP3    H129724   5.055   5.205   8.541  0.6283  0.7073  0.6445
 1843TIP3    H229725   5.168   5.127   8.478  1.2745  1.4567  0.8592
 1844TIP3   OH229726   6.145   5.714  11.878  0.0952  0.0142  0.2764
 1844TIP3    H129727   6.232   5.746  11.898  0.4278  0.1302 -1.2452
 1844TIP3    H229728   6.157   5.620  11.864 -0.1008 -0.0355  0.4273
 1845TIP3   OH229729   1.802   0.876   9.983  0.8448  0.1258 -0.1962
 1845TIP3    H129730   1.810   0.971   9.977  2.5066 -0.0640 -1.6407
 1845TIP3    H229731   1.742   0.853   9.912 -1.9388  0.2758  1.9407
 1846TIP3   OH229732   3.239   2.371  10.505  0.4318 -0.0660  0.2288
 1846TIP3    H129733   3.167   2.336  10.452 -0.5758 -0.2791  1.6675
 1846TIP3    H229734   3.298   2.297  10.519  1.4833  0.3382 -1.7627
 1847TIP3   OH229735   3.502   3.677   9.654  0.8560  0.5609 -0.7535
 1847TIP3    H129736   3.464   3.594   9.683  4.0790 -0.4860  0.9393
 1847TIP3    H229737   3.488   3.678   9.559  0.6003 -1.8272 -0.7984
 1848TIP3   OH229738   1.533   3.746   9.427  0.1322  0.0451  0.4701
 1848TIP3    H129739   1.584   3.768   9.505 -0.7385 -0.8059  1.3223
 1848TIP3    H229740   1.484   3.826   9.407  1.6417  0.8173 -0.2665
 1849TIP3   OH229741   2.091   1.460  11.436 -0.5532 -0.0148 -0.4269
 1849TIP3    H129742   2.094   1.386  11.376  0.0128  0.9212 -1.5937
 1849TIP3    H229743   1.997   1.478  11.446 -0.6799 -0.6173 -0.4597
 1850TIP3   OH229744   0.020   2.991  10.975 -0.5430  0.3148  0.2376
 1850TIP3    H129745  -0.059   3.045  10.982 -1.5908 -1.2535  1.2017
 1850TIP3    H229746  -0.003   2.922  10.913 -0.3542 -0.7902  1.3579
 1851TIP3   OH229747   0.644   4.425   9.444  0.0690  0.2995  0.2436
 1851TIP3    H129748   0.567   4.437   9.389 -0.4788  2.4425  1.3445
 1851TIP3    H229749   0.647   4.504   9.499  1.8718 -0.6788  1.6864
 1852TIP3   OH229750   4.918   4.044   9.023 -0.3407 -0.1725  0.3479
 1852TIP3    H129751   4.847   4.071   8.966 -0.5762 -0.2148  0.6205
 1852TIP3    H229752   4.943   4.123   9.071 -1.0812 -0.4423  1.1997
 1853TIP3   OH229753   1.479   0.072  10.467  0.3261 -0.0937 -0.2487
 1853TIP3    H129754   1.456   0.147  10.411  1.0179  0.2254 -0.1223
 1853TIP3    H229755   1.472  -0.004  10.409  0.7551  0.2040 -0.7084
 1854TIP3   OH229756   0.558   6.185   9.221  0.6886  0.7722 -0.2429
 1854TIP3    H129757   0.543   6.146   9.135 -1.2438  2.1123 -0.5834
 1854TIP3    H229758   0.521   6.273   9.214  1.9603  1.4938  1.4841
 1855TIP3   OH229759   0.424   2.082  10.030  0.5354  0.6010 -0.3067
 1855TIP3    H129760   0.442   2.161  10.081 -1.2578  0.5717  0.4474
 1855TIP3    H229761   0.338   2.097   9.991  0.3688 -0.7744 -0.5425
 1856TIP3   OH229762   5.654   2.212   9.233  0.0677 -0.2159  0.0132
 1856TIP3    H129763   5.559   2.209   9.227  0.0572  0.8966 -0.8009
 1856TIP3    H229764   5.674   2.303   9.254  0.9563 -0.4815  0.4049
 1857TIP3   OH229765   3.771   2.424   8.896  0.8507  0.3879  0.4614
 1857TIP3    H129766   3.681   2.392   8.903  1.3500 -1.4079 -0.5276
 1857TIP3    H229767   3.763   2.519   8.897 -0.8744  0.2861  2.1506
 1858TIP3   OH229768   1.346   1.687   9.077  0.0218  0.4042 -0.2864
 1858TIP3    H129769   1.264   1.698   9.127 -0.0505  1.3868 -0.5913
 1858TIP3    H229770   1.381   1.776   9.071  0.9751  0.0212 -0.4009
 1859TIP3   OH229771   0.474   0.677   9.140 -0.0888  0.1230 -0.0274
 1859TIP3    H129772   0.481   0.587   9.171 -2.1435  0.3725  1.3494
 1859TIP3    H229773   0.501   0.730   9.215  1.3681  0.7018 -0.9095
 1860TIP3   OH229774   5.517   4.764  11.815 -0.6221  0.0159  0.2269
 1860TIP3    H129775   5.546   4.689  11.764 -1.0229  1.2093 -1.8675
 1860TIP3    H229776   5.422   4.755  11.819 -0.9609  1.5634 -2.1455
 1861TIP3   OH229777   2.812   0.383  11.197 -0.3383 -0.7435  0.0875
 1861TIP3    H129778   2.874   0.448  11.228 -0.3962 -0.6645  0.0383
 1861TIP3    H229779   2.836   0.303  11.243 -0.5802 -0.5684  0.5170
 1862TIP3   OH229780   2.165   6.243  10.926 -0.2406  0.3359 -0.4138
 1862TIP3    H129781   2.164   6.260  10.832 -2.1771  1.8196 -0.1805
 1862TIP3    H229782   2.202   6.322  10.965 -0.8361  0.3303  0.1729
 1863TIP3   OH229783   4.440   1.619  11.479 -0.1350 -0.9367 -0.1570
 1863TIP3    H129784   4.455   1.713  11.465  1.1050 -0.8568  1.4078
 1863TIP3    H229785   4.372   1.615  11.545 -0.4674 -1.1559 -0.5075
 1864TIP3   OH229786   5.921   1.246   9.299  0.0439  0.4119  0.5074
 1864TIP3    H129787   5.927   1.317   9.362  0.0610  1.4232 -0.5949
 1864TIP3    H229788   5.828   1.234   9.284  0.0541  0.5245  0.3481
 1865TIP3   OH229789   5.333   5.958   9.183  0.2439 -0.5190 -0.3942
 1865TIP3    H129790   5.254   5.923   9.143 -0.1199  0.3927 -0.4977
 1865TIP3    H229791   5.402   5.943   9.118 -0.3810  1.1647 -1.5097
 1866TIP3   OH229792   0.715   0.306  11.409 -0.0628  0.7262 -0.4631
 1866TIP3    H129793   0.798   0.314  11.362  0.3297 -0.7511 -0.0674
 1866TIP3    H229794   0.739   0.314  11.501 -0.5830  1.7665 -0.3983
 1867TIP3   OH229795   1.110   5.144  11.699 -0.0716  0.4991 -0.1378
 1867TIP3    H129796   1.120   5.139  11.604  1.9880 -1.7996  0.1194
 1867TIP3    H229797   1.198   5.129  11.733 -1.2101 -1.7081  2.1578
 1868TIP3   OH229798   5.889   0.153  11.209 -0.7086 -0.2329  0.0503
 1868TIP3    H129799   5.887   0.061  11.233 -0.4591 -0.9506 -2.4138
 1868TIP3    H229800   5.801   0.172  11.176 -0.0532 -0.3641 -1.8940
 1869TIP3   OH229801   2.841   3.987   9.257  0.6258  0.2554 -0.0594
 1869TIP3    H129802   2.876   3.999   9.168  0.4182 -3.1565 -0.7182
 1869TIP3    H229803   2.746   3.990   9.246  0.6059  0.3931  0.1485
 1870TIP3   OH229804   6.318   0.391   9.509 -0.5784  0.1062 -0.1623
 1870TIP3    H129805   6.266   0.385   9.429 -1.3152 -1.5948  0.3850
 1870TIP3    H229806   6.289   0.472   9.552 -0.6180  0.7041 -1.2984
 1871TIP3   OH229807   6.034   4.249   9.546  0.1588  0.4281  0.0506
 1871TIP3    H129808   5.956   4.249   9.601  0.7816 -0.5807  0.9718
 1871TIP3    H229809   6.002   4.228   9.458 -0.9007  2.4639 -0.1051
 1872TIP3   OH229810   2.623   3.620   9.078 -0.1986  0.9305  0.1337
 1872TIP3    H129811   2.650   3.535   9.045  2.2358  1.4580  0.5655
 1872TIP3    H229812   2.702   3.675   9.071 -1.2990  2.7540  1.1467
 1873TIP3   OH229813   2.129   0.547  11.717 -0.0817 -0.5108 -0.0661
 1873TIP3    H129814   2.050   0.500  11.692 -0.6717 -0.2161  1.1427
 1873TIP3    H229815   2.200   0.486  11.700 -0.6865 -1.2426 -0.0275
 1874TIP3   OH229816   0.338   6.427  10.819 -0.8482  0.0767  0.1230
 1874TIP3    H129817   0.388   6.477  10.884 -0.4072  1.4561 -1.2029
 1874TIP3    H229818   0.395   6.424  10.742 -0.8810 -2.5198  0.1295
 1875TIP3   OH229819   6.449   4.215  10.246 -1.4689 -0.0824 -0.1408
 1875TIP3    H129820   6.442   4.298  10.199  1.0284  0.2651 -0.0321
 1875TIP3    H229821   6.359   4.183  10.251 -2.6260  2.8616  0.2866
 1876TIP3   OH229822   3.734   2.122  10.540  0.3145  0.1260 -0.1336
 1876TIP3    H129823   3.820   2.164  10.538 -0.2032  1.2536  0.3506
 1876TIP3    H229824   3.703   2.136  10.630 -0.7607  0.5757 -0.5603
 1877TIP3   OH229825   0.734   4.935  10.813  0.6644  0.0878 -0.2690
 1877TIP3    H129826   0.659   4.933  10.755  0.2553 -0.5715  0.2656
 1877TIP3    H229827   0.751   5.028  10.828  0.8018  0.2646 -1.4529
 1878TIP3   OH229828   6.255   5.600   9.348 -0.6834 -0.0062 -0.3187
 1878TIP3    H129829   6.288   5.646   9.270 -1.2717 -0.6833 -0.9853
 1878TIP3    H229830   6.294   5.647   9.422  3.1412 -1.7462 -1.0148
 1879TIP3   OH229831   3.833   4.158   9.207 -0.2584  0.0407  0.1595
 1879TIP3    H129832   3.803   4.134   9.119 -0.3890 -0.4885  0.3402
 1879TIP3    H229833   3.843   4.074   9.252 -2.1221  0.3449  1.2882
 1880TIP3   OH229834   1.531   5.528   9.994 -0.3780  0.7541  0.0170
 1880TIP3    H129835   1.584   5.608  10.000 -1.2983  1.2951  1.6448
 1880TIP3    H229836   1.592   5.459   9.970  1.0669  1.3496  1.8477
 1881TIP3   OH229837   0.499   2.481   8.567  0.0860  0.9708  0.3626
 1881TIP3    H129838   0.542   2.447   8.489 -2.5963 -0.0363 -0.7694
 1881TIP3    H229839   0.536   2.569   8.579  1.0828  0.8546 -1.5543
 1882TIP3   OH229840   3.735   4.025  11.886 -0.1100  0.4629 -0.2392
 1882TIP3    H129841   3.649   4.064  11.872 -0.5970 -0.1693  0.9103
 1882TIP3    H229842   3.772   4.074  11.959 -0.6536 -1.0387  1.0999
 1883TIP3   OH229843   0.613   0.653   8.746 -0.4611  0.2404  0.4621
 1883TIP3    H129844   0.610   0.747   8.724  1.3571  0.2345  0.0206
 1883TIP3    H229845   0.705   0.629   8.734 -0.9920 -1.7326  0.0581
 1884TIP3   OH229846   3.922   2.626  11.609 -0.1601  0.5888 -0.2243
 1884TIP3    H129847   3.914   2.590  11.521 -0.8715  1.9945 -0.7604
 1884TIP3    H229848   3.943   2.718  11.597  1.6172  0.4140  1.1187
 1885TIP3   OH229849   0.257   2.001  11.334 -0.6518  0.0464  0.3597
 1885TIP3    H129850   0.201   1.929  11.362 -1.1899  0.1497 -0.4113
 1885TIP3    H229851   0.218   2.079  11.374 -1.6023  0.2338 -0.9039
 1886TIP3   OH229852   2.085   1.080   9.800  0.2632 -0.4970  0.0589
 1886TIP3    H129853   2.124   1.093   9.714  1.5690  0.3272  0.7341
 1886TIP3    H229854   2.071   1.169   9.833  0.2388 -0.7995  0.8844
 1887TIP3   OH229855   3.685   1.434  10.059  0.4247  0.0073  0.0451
 1887TIP3    H129856   3.616   1.385  10.104 -0.8799  2.0015  0.3376
 1887TIP3    H229857   3.739   1.469  10.130  1.2740 -0.8238 -0.1606
 1888TIP3   OH229858   4.876   5.425   9.727 -0.2792 -0.1259  0.7620
 1888TIP3    H129859   4.922   5.466   9.801  0.5646 -0.9697  0.7179
 1888TIP3    H229860   4.842   5.500   9.677 -1.8475  0.4604  2.5632
 1889TIP3   OH229861   1.608   1.485   9.416 -0.4071  0.0994 -0.3709
 1889TIP3    H129862   1.567   1.456   9.498 -1.2408  0.2930 -0.7104
 1889TIP3    H229863   1.686   1.430   9.408  0.3231  0.8397  1.1303
 1890TIP3   OH229864   3.303   5.901   9.664  0.1124  0.0930 -0.8742
 1890TIP3    H129865   3.279   5.986   9.702  0.9165 -0.1538  0.2284
 1890TIP3    H229866   3.252   5.837   9.714  0.8737 -0.2088 -0.4741
 1891TIP3   OH229867   5.169   4.028  10.946 -0.3336 -0.5783  0.2796
 1891TIP3    H129868   5.177   4.112  10.991  1.6004  0.9878 -2.6820
 1891TIP3    H229869   5.253   4.016  10.902 -1.7469 -2.3440 -2.1799
 1892TIP3   OH229870   0.517   0.581  10.472 -0.2588 -0.2843  0.0604
 1892TIP3    H129871   0.514   0.512  10.406 -1.9488 -1.3474  1.1686
 1892TIP3    H229872   0.610   0.603  10.479  0.2034 -1.6635 -1.1017
 1893TIP3   OH229873   1.514   5.516  10.800  0.0437 -0.0044 -0.7769
 1893TIP3    H129874   1.482   5.445  10.856  1.2716  0.1063  0.1134
 1893TIP3    H229875   1.503   5.595  10.852  1.3294  0.0852 -0.5979
 1894TIP3   OH229876   0.213   4.676   8.833  0.3405  0.3873  0.1223
 1894TIP3    H129877   0.301   4.646   8.857  0.3118  0.8300  0.8178
 1894TIP3    H229878   0.194   4.632   8.750  1.1320  0.1261  0.0727
 1895TIP3   OH229879   4.375   3.223  10.499 -0.7090 -0.2035 -0.2773
 1895TIP3    H129880   4.402   3.186  10.583  0.5101  0.1309 -0.5077
 1895TIP3    H229881   4.279   3.228  10.505 -0.5871  1.0559  1.6375
 1896TIP3   OH229882   3.955   0.005  11.951  0.4443  0.0337  0.2088
 1896TIP3    H129883   4.042   0.043  11.960  0.6448 -0.7368  2.2057
 1896TIP3    H229884   3.968  -0.088  11.968 -0.6339 -0.2592 -0.4774
 1897TIP3   OH229885   2.053   4.568  10.990  0.6087 -0.1194 -0.1292
 1897TIP3    H129886   2.124   4.525  11.038  0.4774  0.2044  0.3570
 1897TIP3    H229887   2.094   4.646  10.951  0.6869 -0.3189 -0.4534
 1898TIP3   OH229888   2.225   2.885  11.394 -0.1460 -0.6582 -0.2775
 1898TIP3    H129889   2.194   2.809  11.345 -1.4266 -1.0628  1.0992
 1898TIP3    H229890   2.316   2.864  11.415  0.3332 -0.6221 -2.1215
 1899TIP3   OH229891   4.659   1.528   9.472 -0.1473  0.6835 -0.5592
 1899TIP3    H129892   4.639   1.527   9.566  0.3808 -1.4552 -0.4105
 1899TIP3    H229893   4.573   1.521   9.429 -0.2931 -0.0315 -0.1690
 1900TIP3   OH229894   1.403   4.207   9.204  0.1649 -0.3239  0.0726
 1900TIP3    H129895   1.494   4.185   9.184  0.3416  0.7862 -0.3862
 1900TIP3    H229896   1.354   4.126   9.187  0.9643 -0.7227 -0.3556
 1901TIP3   OH229897   4.863   1.914  10.539  0.4703  0.0102  0.0238
 1901TIP3    H129898   4.850   2.001  10.577 -1.3803 -0.0902 -0.2927
 1901TIP3    H229899   4.900   1.930  10.453 -0.6563  0.5517 -0.3760
 1902TIP3   OH229900   6.750   3.692   9.553 -0.5443 -0.3825 -0.7235
 1902TIP3    H129901   6.827   3.658   9.507 -0.5936 -1.7923  0.1982
 1902TIP3    H229902   6.721   3.620   9.609 -1.7467  0.5812 -0.0578
 1903TIP3   OH229903   3.445   5.957   9.963 -0.0025  0.6297  0.9700
 1903TIP3    H129904   3.498   6.030   9.932  0.1582  0.0019 -0.2764
 1903TIP3    H229905   3.507   5.895   9.999 -0.1087  0.9398  1.6989
 1904TIP3   OH229906   3.489   0.536  10.465  0.2388 -0.0281  0.3152
 1904TIP3    H129907   3.491   0.598  10.538  0.4839 -0.4567  0.6760
 1904TIP3    H229908   3.396   0.531  10.440  0.0727 -0.3134  0.9718
 1905TIP3   OH229909   3.211   1.972  11.173 -0.0681 -0.2530 -0.7653
 1905TIP3    H129910   3.286   1.991  11.115 -0.3857 -0.6400 -1.3184
 1905TIP3    H229911   3.240   1.898  11.225 -0.2474 -0.7551 -1.3587
 1906TIP3   OH229912   5.843   0.523   9.910 -0.3813 -0.0505  0.5607
 1906TIP3    H129913   5.881   0.448   9.956 -2.0821  0.1674  2.4714
 1906TIP3    H229914   5.750   0.501   9.902 -0.7047  1.3617  0.1134
 1907TIP3   OH229915   6.230   3.296  10.989  0.3651 -0.9044  0.0997
 1907TIP3    H129916   6.242   3.213  10.943 -0.0771 -0.6486 -0.4930
 1907TIP3    H229917   6.136   3.313  10.984  0.4045 -0.5368  0.5210
 1908TIP3   OH229918   4.600   0.597   9.859 -0.5471  0.3425 -0.0374
 1908TIP3    H129919   4.615   0.587   9.765  1.9359  1.6479  0.1422
 1908TIP3    H229920   4.599   0.692   9.872  0.1885  0.1751  1.3827
 1909TIP3   OH229921   4.528   0.234   9.777  0.0585  0.1784 -0.2389
 1909TIP3    H129922   4.458   0.169   9.787 -0.4208  0.3907 -1.8318
 1909TIP3    H229923   4.562   0.247   9.865 -0.5765 -1.4131  0.2740
 1910TIP3   OH229924   3.292   6.208  11.521 -0.7416  0.6659  0.9057
 1910TIP3    H129925   3.303   6.114  11.507 -0.9419  0.7678  0.0358
 1910TIP3    H229926   3.199   6.220  11.537 -1.0786  0.9539 -1.0476
 1911TIP3   OH229927   2.875   3.044  10.993  0.3349 -0.2741  0.4605
 1911TIP3    H129928   2.963   3.011  11.011  0.6740  0.7364  0.7116
 1911TIP3    H229929   2.889   3.126  10.945 -0.4895 -0.5977 -0.3568
 1912TIP3   OH229930   1.960   0.186   9.648  0.4211  0.6631  0.1872
 1912TIP3    H129931   2.043   0.140   9.635 -0.4198 -1.8833  2.7603
 1912TIP3    H229932   1.978   0.246   9.721 -0.4915 -1.9605  2.8018
 1913TIP3   OH229933   3.789   2.980   8.769 -0.5683 -0.5736 -0.3225
 1913TIP3    H129934   3.781   3.018   8.856 -1.4855 -1.6780  0.1011
 1913TIP3    H229935   3.874   3.008   8.738 -0.8627  1.1116  0.3038
 1914TIP3   OH229936   0.435   3.474  10.193  0.1854  0.6014  0.3056
 1914TIP3    H129937   0.516   3.460  10.144  1.1921 -0.6094  2.1680
 1914TIP3    H229938   0.380   3.400  10.170 -0.3686  1.3625 -0.8714
 1915TIP3   OH229939   3.808   0.378  10.038 -0.0048  1.2342 -0.2938
 1915TIP3    H129940   3.714   0.363  10.033  0.2582 -0.2283 -2.3726
 1915TIP3    H229941   3.832   0.356  10.128 -1.0243 -2.8623 -0.8365
 1916TIP3   OH229942   4.931   5.089  10.907 -0.0477 -0.1852  0.8678
 1916TIP3    H129943   4.925   5.047  10.822  0.9977  0.1350  0.6262
 1916TIP3    H229944   4.844   5.079  10.945 -1.4503  2.1354 -1.3957
 1917TIP3   OH229945   2.339   0.572  10.870  0.2943 -0.1909  0.0988
 1917TIP3    H129946   2.251   0.542  10.892  0.3065  0.0018  0.4031
 1917TIP3    H229947   2.354   0.649  10.925  0.1990  0.4916 -0.8094
 1918TIP3   OH229948   5.839   1.098   8.135 -0.1413 -0.2866 -0.2202
 1918TIP3    H129949   5.793   1.021   8.170 -0.1114  0.1668  0.8597
 1918TIP3    H229950   5.932   1.077   8.144 -0.1242 -0.5690 -0.9681
 1919TIP3   OH229951   4.678   2.036  11.298 -0.0041  0.3980 -0.0441
 1919TIP3    H129952   4.717   2.121  11.318  0.8102  0.2150 -0.7903
 1919TIP3    H229953   4.701   1.981  11.373 -3.2076  1.6003  2.0120
 1920TIP3   OH229954   1.428   6.429  11.802 -0.1178 -0.6571 -0.3321
 1920TIP3    H129955   1.397   6.478  11.726 -1.0631  0.0927  0.5170
 1920TIP3    H229956   1.523   6.433  11.796 -0.1523  1.6478 -0.0790
 1921TIP3   OH229957   0.408   2.740  10.730  0.2803  0.3196  0.0564
 1921TIP3    H129958   0.483   2.717  10.675 -0.1938  1.1783 -0.9942
 1921TIP3    H229959   0.416   2.684  10.807  0.3725 -1.7371 -1.3701
 1922TIP3   OH229960   1.037   0.124  10.437  0.2651  0.3569  0.7586
 1922TIP3    H129961   0.961   0.153  10.388  0.5307  0.4841  0.4142
 1922TIP3    H229962   1.007   0.048  10.486 -0.0722  0.3885  0.6034
 1923TIP3   OH229963   6.121   4.247   7.743 -0.1998 -0.0068  1.0175
 1923TIP3    H129964   6.105   4.327   7.692  1.0430 -0.6305 -0.4203
 1923TIP3    H229965   6.182   4.274   7.811  0.8721  0.1162  0.0256
 1924TIP3   OH229966   2.973   6.499   9.013  0.1628 -0.0750 -0.2324
 1924TIP3    H129967   3.068   6.506   9.027  0.2949 -1.2278 -0.4215
 1924TIP3    H229968   2.960   6.407   8.987 -0.8562  0.3822 -1.3991
 1925TIP3   OH229969   6.090   0.759  10.992  0.1449  0.0131  0.1159
 1925TIP3    H129970   6.101   0.670  10.957  0.0469 -0.6454  1.6825
 1925TIP3    H229971   6.012   0.792  10.948  0.9169 -0.1535 -1.4554
 1926TIP3   OH229972   6.054   5.835   8.781 -0.4359 -0.0611  0.3316
 1926TIP3    H129973   6.015   5.764   8.730  0.0830 -1.1151  1.3487
 1926TIP3    H229974   6.142   5.845   8.744 -0.4302 -0.0972  0.3358
 1927TIP3   OH229975   5.698   4.578  10.539 -0.7980  0.2032  0.3424
 1927TIP3    H129976   5.656   4.639  10.479 -0.7403 -1.1526 -1.1552
 1927TIP3    H229977   5.626   4.530  10.580 -0.8114 -0.8411 -0.8370
 1928TIP3   OH229978   2.030   1.240  11.738 -0.1371  0.0428 -0.6207
 1928TIP3    H129979   2.061   1.209  11.652  1.9051  1.0788 -0.3276
 1928TIP3    H229980   2.031   1.335  11.731 -2.0946  0.1462 -0.1049
 1929TIP3   OH229981   0.666   6.372  11.205 -0.2732 -0.4531  0.2407
 1929TIP3    H129982   0.651   6.394  11.297  1.9561 -1.4931  0.9199
 1929TIP3    H229983   0.650   6.278  11.200  0.3677 -0.5372 -0.2656
 1930TIP3   OH229984   1.612   0.884   8.456 -0.2421 -0.2283 -0.2034
 1930TIP3    H129985   1.671   0.956   8.435  0.3230 -1.0514 -1.5703
 1930TIP3    H229986   1.601   0.837   8.374 -0.5229 -1.7555  0.6671
 1931TIP3   OH229987   5.008   6.766  10.219  0.5877 -0.3246  0.1434
 1931TIP3    H129988   5.012   6.769  10.314 -1.6126  1.0662  0.2593
 1931TIP3    H229989   5.007   6.858  10.192  0.9211 -0.7010 -1.2299
 1932TIP3   OH229990   5.877   2.632   9.243  0.0982 -0.1618  0.5685
 1932TIP3    H129991   5.888   2.584   9.161 -1.1666  0.9558 -0.2928
 1932TIP3    H229992   5.819   2.704   9.222  1.5686  1.5370  1.9107
 1933TIP3   OH229993   5.416   6.153   9.369  0.3632  0.5313 -0.2122
 1933TIP3    H129994   5.417   6.108   9.453  4.4322 -0.7726 -0.7434
 1933TIP3    H229995   5.389   6.085   9.306 -0.3475  0.8534 -0.2693
 1934TIP3   OH229996   6.144   4.455  11.544 -0.3489  0.0147 -0.2423
 1934TIP3    H129997   6.069   4.473  11.487  0.5493  0.8185 -1.2040
 1934TIP3    H229998   6.150   4.533  11.599 -0.5896 -0.3246  0.2756
 1935TIP3   OH229999   3.376   4.584  11.255 -0.2753 -0.4937 -0.6064
 1935TIP3    H130000   3.338   4.643  11.320 -0.1823 -0.2702 -0.7534
 1935TIP3    H230001   3.301   4.537  11.218 -0.2849 -0.9790  0.0045
 1936TIP3   OH230002   3.700   1.977  10.102 -0.1843  0.1339  0.2963
 1936TIP3    H130003   3.750   2.052  10.134  0.3464 -0.3747  0.6616
 1936TIP3    H230004   3.684   1.997  10.009  0.7923  0.2492  0.1486
 1937TIP3   OH230005   4.471   1.748  10.862 -0.5126  0.3137  0.4368
 1937TIP3    H130006   4.462   1.671  10.805 -1.1950  0.7525 -0.0733
 1937TIP3    H230007   4.524   1.809  10.811  0.4004  0.0310  1.0191
 1938TIP3   OH230008   4.196   0.419   8.538 -0.0517 -0.2058  0.2386
 1938TIP3    H130009   4.171   0.391   8.450 -0.1728 -1.9595  0.7926
 1938TIP3    H230010   4.220   0.511   8.528  2.5839 -1.0214 -2.1638
 1939TIP3   OH230011   0.825   0.747  11.307  0.1018  0.8647  0.3944
 1939TIP3    H130012   0.859   0.714  11.224 -0.3734  0.5713  0.3121
 1939TIP3    H230013   0.889   0.813  11.335  0.2834  0.9405 -0.1842
 1940TIP3   OH230014   2.403   1.931  11.281  0.4939  0.0017  0.5838
 1940TIP3    H130015   2.409   1.909  11.374  0.6317 -0.1920  0.5313
 1940TIP3    H230016   2.431   2.022  11.276  1.2746 -0.2236  0.6354
 1941TIP3   OH230017   5.814   1.534  10.113  0.0749 -0.2789 -0.0928
 1941TIP3    H130018   5.794   1.489  10.031 -1.2712 -0.7899  0.4905
 1941TIP3    H230019   5.907   1.515  10.129  0.6440  0.6472 -1.9710
 1942TIP3   OH230020   6.113   1.292   8.722  0.3050 -0.0238  0.6716
 1942TIP3    H130021   6.105   1.387   8.716 -1.9663 -0.1994  0.3177
 1942TIP3    H230022   6.159   1.278   8.805  0.2613  1.3604  0.9549
 1943TIP3   OH230023   4.415   4.972   9.344  0.6323  0.7206  0.0596
 1943TIP3    H130024   4.446   4.939   9.429  0.0554 -2.4707 -0.8528
 1943TIP3    H230025   4.446   4.908   9.281 -2.2970  0.8634 -1.6622
 1944TIP3   OH230026   0.900   2.151   9.673  0.4420 -0.3103  0.1451
 1944TIP3    H130027   0.976   2.092   9.674 -0.1209 -1.0844  2.1357
 1944TIP3    H230028   0.828   2.098   9.639  0.1596 -0.4925  1.0018
 1945TIP3   OH230029   0.577   6.069  10.208  0.4521 -0.4007 -0.3659
 1945TIP3    H130030   0.535   5.983  10.215 -0.4143 -0.0704 -1.2684
 1945TIP3    H230031   0.526   6.125  10.267  0.4514 -0.3034 -0.4579
 1946TIP3   OH230032   1.408   2.102   8.030 -0.0267  0.1543 -0.2104
 1946TIP3    H130033   1.333   2.160   8.013 -0.1470 -0.8323 -4.0844
 1946TIP3    H230034   1.452   2.096   7.945  2.2572 -2.3329  1.0239
 1947TIP3   OH230035   0.672   3.417  10.093  1.3303  0.3537 -0.2103
 1947TIP3    H130036   0.683   3.338  10.041  0.3922  0.3133 -0.3598
 1947TIP3    H230037   0.713   3.396  10.177 -2.0032 -1.7008  1.1080
 1948TIP3   OH230038   5.791   4.318  10.445  0.2305  0.6066 -0.3429
 1948TIP3    H130039   5.761   4.405  10.473  0.4639  0.4929  0.2717
 1948TIP3    H230040   5.712   4.276  10.410 -0.2400  0.4982  0.7812
 1949TIP3   OH230041   1.883   6.266  10.673  0.4415  0.1736  0.0290
 1949TIP3    H130042   1.893   6.291  10.765 -0.7544 -0.0100  0.2141
 1949TIP3    H230043   1.844   6.179  10.676 -1.0745  0.8093 -0.6505
 1950TIP3   OH230044   6.592   5.636   9.807 -0.0309  0.1585  0.4689
 1950TIP3    H130045   6.659   5.580   9.766 -0.4649  1.6001 -2.4707
 1950TIP3    H230046   6.638   5.680   9.877  1.4015 -0.8216  0.1978
 1951TIP3   OH230047   4.770   2.600  10.256  0.1775 -0.2002  0.2212
 1951TIP3    H130048   4.735   2.670  10.200  0.5080 -0.6861 -0.6241
 1951TIP3    H230049   4.740   2.519  10.215  0.2839 -0.5680  0.8568
 1952TIP3   OH230050   0.622   3.048  10.069 -0.1192 -0.1457  0.0561
 1952TIP3    H130051   0.633   3.081   9.979 -0.0632 -1.8464 -0.5986
 1952TIP3    H230052   0.704   3.070  10.113  0.4531 -0.5762 -0.7573
 1953TIP3   OH230053   5.987   3.876   8.389 -0.4269 -0.3511  0.3318
 1953TIP3    H130054   5.921   3.907   8.326  0.0797  1.2989  0.5566
 1953TIP3    H230055   5.982   3.781   8.385 -1.5205 -0.2616 -1.0241
 1954TIP3   OH230056   3.813   2.529  11.863 -0.1532 -0.1385  0.7362
 1954TIP3    H130057   3.864   2.588  11.806 -0.9468 -0.1131  0.0266
 1954TIP3    H230058   3.861   2.529  11.946  0.9487 -0.0452  0.1286
 1955TIP3   OH230059   0.736   1.092   9.320  0.1253  0.7204 -0.2983
 1955TIP3    H130060   0.752   1.023   9.256 -0.7563  2.0718 -2.0526
 1955TIP3    H230061   0.641   1.090   9.335  0.4329 -0.3294  1.9202
 1956TIP3   OH230062   6.043   4.786   7.721 -0.4090 -0.3398 -0.6110
 1956TIP3    H130063   6.115   4.839   7.755 -1.0090 -1.1712  2.2728
 1956TIP3    H230064   6.066   4.770   7.629  1.3703  2.1562 -0.7089
 1957TIP3   OH230065   3.021   2.418  11.215 -0.2374 -0.0513  0.0424
 1957TIP3    H130066   3.083   2.427  11.143 -1.0271 -0.0903 -0.6580
 1957TIP3    H230067   3.047   2.339  11.261  0.5662  0.2376  0.0964
 1958TIP3   OH230068   0.473   2.230   8.368 -0.4263  0.3564 -0.3333
 1958TIP3    H130069   0.561   2.210   8.337 -1.1981 -2.6414 -0.8730
 1958TIP3    H230070   0.439   2.294   8.305  1.4832  2.0363  0.2246
 1959TIP3   OH230071   1.928   4.318   9.454  0.0671 -0.3871  0.1145
 1959TIP3    H130072   1.843   4.280   9.431  0.2940 -1.0550  0.3507
 1959TIP3    H230073   1.954   4.368   9.377 -0.1444 -0.8837 -0.2801
 1960TIP3   OH230074   1.521   5.834   9.637 -0.1603 -0.0491  0.0575
 1960TIP3    H130075   1.578   5.847   9.713  1.6769 -0.5685 -1.1824
 1960TIP3    H230076   1.487   5.921   9.617  0.3000  0.2984  0.7399
 1961TIP3   OH230077   2.374   1.420  10.023 -0.2004 -0.0638  0.3765
 1961TIP3    H130078   2.279   1.407  10.012 -0.1198 -1.6453  1.2994
 1961TIP3    H230079   2.408   1.333  10.044  1.5299  0.4081 -0.2731
 1962TIP3   OH230080   2.532   0.804   9.325  0.6640  0.2443 -0.1784
 1962TIP3    H130081   2.518   0.816   9.231  0.3042 -0.0148 -0.1601
 1962TIP3    H230082   2.578   0.884   9.353 -1.1462  1.3192 -0.1650
 1963TIP3   OH230083   3.421   5.065   9.776  0.2833  0.2723 -0.3514
 1963TIP3    H130084   3.449   5.016   9.699  0.4827  1.2196 -0.8899
 1963TIP3    H230085   3.340   5.108   9.749  1.6871  2.7256 -0.9484
 1964TIP3   OH230086   4.970   5.013  11.171  0.4770  0.3690  0.6573
 1964TIP3    H130087   5.010   5.081  11.225  1.0809  1.7836 -1.4517
 1964TIP3    H230088   4.993   5.037  11.081  1.3860 -3.0756 -0.1629
 1965TIP3   OH230089   4.579   1.151  10.306  0.2824  0.5501  0.5053
 1965TIP3    H130090   4.583   1.200  10.224 -2.4244  1.3353  0.7602
 1965TIP3    H230091   4.611   1.064  10.283  0.7924  1.1255 -1.0674
 1966TIP3   OH230092   1.447   1.076   9.978 -0.2568 -0.2726 -0.1401
 1966TIP3    H130093   1.369   1.131   9.986  0.2143  0.3211  0.5598
 1966TIP3    H230094   1.412   0.987   9.969 -1.0357 -0.1622  1.3334
 1967TIP3   OH230095   6.654   3.406  10.214  0.2585  0.6165 -0.1429
 1967TIP3    H130096   6.640   3.484  10.267 -1.2343 -2.1774  4.2012
 1967TIP3    H230097   6.567   3.371  10.200  0.9522 -1.3251  0.0278
 1968TIP3   OH230098   0.417   5.850   9.714 -0.0805 -0.3963 -0.3378
 1968TIP3    H130099   0.396   5.834   9.622  0.1044 -1.5351 -0.1968
 1968TIP3    H230100   0.414   5.945   9.723  4.2208  0.2317 -2.5826
 1969TIP3   OH230101   5.697   3.290   8.921  0.4244 -0.3142  0.3940
 1969TIP3    H130102   5.645   3.349   8.866 -0.3433 -0.9312  0.4431
 1969TIP3    H230103   5.677   3.203   8.888  1.5914 -0.5601  0.2860
 1970TIP3   OH230104   3.446   4.025  11.269 -0.3202  0.3918 -0.0373
 1970TIP3    H130105   3.465   3.966  11.196  1.6062  0.8138  0.0580
 1970TIP3    H230106   3.375   3.982  11.317  0.7527 -1.6922 -0.1878
 1971TIP3   OH230107   2.257   3.295   9.512 -0.6548 -0.3772  0.2658
 1971TIP3    H130108   2.209   3.235   9.456  0.8049 -1.6853  0.3310
 1971TIP3    H230109   2.274   3.245   9.592 -0.7161  0.6633  0.9542
 1972TIP3   OH230110   1.802   4.997  10.807  0.5950 -0.2758 -0.2512
 1972TIP3    H130111   1.752   4.919  10.830 -1.3765  1.2333  0.8275
 1972TIP3    H230112   1.736   5.062  10.783  2.1199  1.4006 -0.1110
 1973TIP3   OH230113   0.903   4.310  10.353 -0.0179  0.0308  1.2514
 1973TIP3    H130114   0.824   4.363  10.365 -0.6815 -0.2168 -1.4050
 1973TIP3    H230115   0.975   4.370  10.369 -0.7384  0.8484  1.5159
 1974TIP3   OH230116   0.656   3.227  11.057  0.1782 -0.4093  0.5227
 1974TIP3    H130117   0.637   3.210  11.149  0.6655  0.1566  0.7336
 1974TIP3    H230118   0.617   3.313  11.040  1.1519  0.0535  0.5445
 1975TIP3   OH230119   4.145   3.540   9.416  0.3379  0.1944  0.2794
 1975TIP3    H130120   4.217   3.570   9.361 -0.3347  2.5803  0.5752
 1975TIP3    H230121   4.187   3.500   9.491  1.2984 -0.8232 -0.7639
 1976TIP3   OH230122   2.975   0.695  10.247  0.3265  0.9984  0.0223
 1976TIP3    H130123   2.984   0.705  10.152 -0.1792  0.1098 -0.1365
 1976TIP3    H230124   2.964   0.785  10.280  0.9138  1.3475 -0.7049
 1977TIP3   OH230125   2.974   2.893   9.690 -0.0273  0.3096  0.2515
 1977TIP3    H130126   3.033   2.832   9.647 -0.7911 -2.1423  2.4352
 1977TIP3    H230127   2.886   2.867   9.662 -0.4070 -0.1627  1.7406
 1978TIP3   OH230128   6.546   1.161   8.233  0.2311  0.0260 -0.2539
 1978TIP3    H130129   6.641   1.164   8.238  0.2264 -0.6669  0.5288
 1978TIP3    H230130   6.521   1.245   8.196  1.2574 -0.6274 -2.5667
 1979TIP3   OH230131   2.116   1.073  11.532  0.8500  0.2983  0.5515
 1979TIP3    H130132   2.093   0.989  11.573 -0.2763  1.2805  2.0273
 1979TIP3    H230133   2.210   1.065  11.512  0.9657 -0.9854  1.4720
 1980TIP3   OH230134   4.268   5.326  11.271 -0.6321  0.2083  0.4306
 1980TIP3    H130135   4.337   5.328  11.337 -0.6977 -0.3488  0.5227
 1980TIP3    H230136   4.212   5.253  11.298  0.9730 -2.0120 -1.8600
 1981TIP3   OH230137   2.302   4.861   9.409 -0.0221  0.1137  0.2924
 1981TIP3    H130138   2.275   4.797   9.343 -1.6698  0.0930  0.9413
 1981TIP3    H230139   2.223   4.878   9.460  1.6414 -1.9355  4.0398
 1982TIP3   OH230140   0.159   6.570  10.216 -0.1750  0.8010  0.2233
 1982TIP3    H130141   0.190   6.633  10.281  0.3897 -0.0081  0.7552
 1982TIP3    H230142   0.067   6.555  10.239 -0.9825  2.9674 -1.1713
 1983TIP3   OH230143   0.774   0.052  11.726  0.1582  0.3406 -0.3217
 1983TIP3    H130144   0.854   0.020  11.685  1.0710 -0.0881  1.6773
 1983TIP3    H230145   0.733  -0.025  11.765 -0.3437  0.8112  0.1190
 1984TIP3   OH230146   5.647   5.563   9.864  0.3382  0.2717 -0.3944
 1984TIP3    H130147   5.678   5.640   9.913  0.6071 -0.4335  0.5735
 1984TIP3    H230148   5.709   5.494   9.887  0.0279 -0.2699 -1.1665
 1985TIP3   OH230149   6.339   6.490  10.914 -0.0177 -0.3130  0.4828
 1985TIP3    H130150   6.427   6.466  10.884 -0.8485  0.7231 -3.4555
 1985TIP3    H230151   6.345   6.583  10.934 -0.5038  0.3236 -1.9068
 1986TIP3   OH230152   4.846   5.333  10.228 -0.1690  0.2066 -0.3948
 1986TIP3    H130153   4.800   5.350  10.145  0.4864 -1.1541 -1.0697
 1986TIP3    H230154   4.878   5.243  10.220 -0.9042 -0.3043  1.7568
 1987TIP3   OH230155   6.217   4.819  10.758  0.1315  0.0684  0.5982
 1987TIP3    H130156   6.311   4.818  10.740  0.5364  2.2942  2.1262
 1987TIP3    H230157   6.206   4.758  10.831  0.2500 -0.7647 -0.0716
 1988TIP3   OH230158   6.541   6.433  11.354 -0.3283 -0.2734  0.2324
 1988TIP3    H130159   6.596   6.478  11.290  0.1110 -1.1520 -0.0264
 1988TIP3    H230160   6.492   6.503  11.397  0.1036  0.4170 -0.3728
 1989TIP3   OH230161   2.855   3.887  11.372 -0.4117 -0.5647 -0.0414
 1989TIP3    H130162   2.939   3.903  11.328 -0.0688 -1.9104  0.0900
 1989TIP3    H230163   2.822   3.807  11.334 -1.4505 -0.2741  0.2182
 1990TIP3   OH230164   6.438   0.484  11.626 -0.6388 -0.0922  0.1795
 1990TIP3    H130165   6.373   0.439  11.680 -0.5920  0.0662  0.3684
 1990TIP3    H230166   6.387   0.548  11.576 -1.1507 -2.1725 -2.1641
 1991TIP3   OH230167   6.643   3.239   9.552 -0.3566  0.0123 -0.3466
 1991TIP3    H130168   6.683   3.168   9.502 -0.1152  0.0392 -0.1930
 1991TIP3    H230169   6.710   3.264   9.616  0.3831  1.7334 -1.6819
 1992TIP3   OH230170   2.686   2.364   9.530  0.4812  0.7315 -0.2192
 1992TIP3    H130171   2.690   2.459   9.538  0.1275  0.9199 -1.9534
 1992TIP3    H230172   2.681   2.348   9.436 -0.9141 -0.9498  0.0913
 1993TIP3   OH230173   5.642   0.703  11.042  0.0296  0.0163  0.4754
 1993TIP3    H130174   5.639   0.712  11.137  0.7159 -0.1991  0.5197
 1993TIP3    H230175   5.550   0.700  11.015 -0.2111 -2.0584  1.3320
 1994TIP3   OH230176   6.776   2.370  10.246 -0.2389 -0.1239  0.1877
 1994TIP3    H130177   6.864   2.409  10.242 -0.2371 -0.1980 -0.8835
 1994TIP3    H230178   6.720   2.436  10.205 -0.3582 -0.9073 -0.9507
 1995TIP3   OH230179   3.177   0.783   8.982 -0.0851  0.3986  0.3620
 1995TIP3    H130180   3.254   0.838   8.967 -0.0794  0.4867  0.6936
 1995TIP3    H230181   3.211   0.694   8.986  0.3818  0.6172  2.9352
 1996TIP3   OH230182   3.047   5.797  11.841  0.2844  0.2070 -0.0566
 1996TIP3    H130183   2.984   5.859  11.877  1.4256  0.3247  1.8300
 1996TIP3    H230184   3.071   5.741  11.914  2.4490  0.2348 -0.6766
 1997TIP3   OH230185   5.588   4.133  11.617  0.4236 -0.3828 -0.0579
 1997TIP3    H130186   5.542   4.217  11.619  1.4644  0.2182 -0.3256
 1997TIP3    H230187   5.670   4.150  11.664  0.0725 -1.6209  1.0362
 1998TIP3   OH230188   2.102   2.482  10.379 -0.3800  0.5448 -0.3352
 1998TIP3    H130189   2.138   2.560  10.338 -0.8782  0.8397 -0.2151
 1998TIP3    H230190   2.086   2.422  10.306  1.1514  0.0664 -0.3148
 1999TIP3   OH230191   6.188   5.406   8.258 -0.1050 -0.3324 -0.0509
 1999TIP3    H130192   6.140   5.436   8.335 -0.1191  0.4147 -0.3455
 1999TIP3    H230193   6.269   5.370   8.293 -0.5679 -0.9693  0.3942
 2000TIP3   OH230194   4.613   4.208  10.251 -0.7655 -0.4036 -0.1488
 2000TIP3    H130195   4.548   4.180  10.187 -0.3118  0.1861 -0.8711
 2000TIP3    H230196   4.561   4.235  10.327 -1.2707 -2.0697  0.1538
 2001TIP3   OH230197   4.379   3.112  11.075 -0.3087 -0.3874 -0.3474
 2001TIP3    H130198   4.379   3.056  11.153 -1.9390 -1.5688 -1.1201
 2001TIP3    H230199   4.384   3.051  11.002 -1.2189  0.5236 -1.2061
 2002TIP3   OH230200   2.104   6.361   9.153  0.3206  0.3757 -0.5542
 2002TIP3    H130201   2.115   6.353   9.248  2.0891 -1.7932 -0.8455
 2002TIP3    H230202   2.023   6.315   9.134 -1.1963  2.6291  0.0379
 2003TIP3   OH230203   3.299   0.530   9.032 -0.6380 -0.3189 -0.2314
 2003TIP3    H130204   3.313   0.488   8.947  1.0723 -1.5269  0.6002
 2003TIP3    H230205   3.369   0.595   9.039 -0.7845 -0.2051  0.2538
 2004TIP3   OH230206   6.102   1.571   8.717 -0.1302 -0.6493  0.2955
 2004TIP3    H130207   6.020   1.609   8.748 -0.3876  0.0386 -1.1399
 2004TIP3    H230208   6.096   1.575   8.622  1.7873 -0.0997  0.1495
 2005TIP3   OH230209   1.154   1.412  11.254 -0.6810  0.1150 -0.7475
 2005TIP3    H130210   1.115   1.481  11.308 -1.9524 -0.7582 -0.5045
 2005TIP3    H230211   1.114   1.424  11.168 -3.1852 -2.0127 -0.0053
 2006TIP3   OH230212   2.932   0.507   9.232 -0.3025  0.2085  0.1404
 2006TIP3    H130213   2.873   0.526   9.159 -0.7139 -0.7077  0.2282
 2006TIP3    H230214   2.918   0.415   9.251 -0.1249  0.4142  1.3217
 2007TIP3   OH230215   3.825   1.129   9.431  0.4260  0.2879  0.1043
 2007TIP3    H130216   3.748   1.096   9.478  0.8460 -0.1915  0.4621
 2007TIP3    H230217   3.791   1.201   9.378 -0.2322  0.2201  0.4210
 2008TIP3   OH230218   0.623   6.247  11.697  0.0408 -0.4502 -0.0479
 2008TIP3    H130219   0.556   6.179  11.708  0.5902 -0.9560  0.1772
 2008TIP3    H230220   0.608   6.307  11.770 -1.5532  0.6292 -1.2064
 2009TIP3   OH230221   0.633   2.821   9.781  0.0848 -0.3577 -0.2387
 2009TIP3    H130222   0.629   2.895   9.720  0.0490  0.1139  0.3248
 2009TIP3    H230223   0.549   2.822   9.826  1.0613  0.9593  1.7089
 2010TIP3   OH230224   5.101   4.332  10.459 -0.1265  0.7175  0.7467
 2010TIP3    H130225   5.006   4.340  10.469  0.0430  2.2106  1.5649
 2010TIP3    H230226   5.127   4.414  10.416  0.5638 -0.6523 -1.6194
 2011TIP3   OH230227   0.810   0.797  10.174 -0.0328  0.2759  0.7054
 2011TIP3    H130228   0.768   0.732  10.119  1.2777 -0.1626  0.1950
 2011TIP3    H230229   0.785   0.881  10.136  0.7484 -0.0166 -0.4915
 2012TIP3   OH230230   0.531   5.102  10.959 -0.3160  0.3041 -0.5381
 2012TIP3    H130231   0.533   5.006  10.959  3.2041  0.2308 -0.4860
 2012TIP3    H230232   0.444   5.125  10.928 -1.3285 -2.8938 -0.3813
 2013TIP3   OH230233   3.468   5.615  10.233 -0.2278 -0.2443  0.1221
 2013TIP3    H130234   3.562   5.601  10.225 -0.4140 -1.3691 -0.2189
 2013TIP3    H230235   3.451   5.611  10.328 -0.1064 -1.3272  0.1129
 2014TIP3   OH230236   1.081   0.342  10.199 -0.0587 -0.0195 -0.3782
 2014TIP3    H130237   1.127   0.351  10.116 -1.7197 -1.5633 -1.5392
 2014TIP3    H230238   1.014   0.411  10.197  0.1236  0.1639 -0.1628
 2015TIP3   OH230239   5.495   1.379   8.818  0.4368  1.1106 -0.4207
 2015TIP3    H130240   5.482   1.411   8.729 -0.7401 -0.1338 -0.7139
 2015TIP3    H230241   5.588   1.355   8.822  0.4311  0.9161 -1.3933
 2016TIP3   OH230242   3.865   3.324  12.066  0.0199 -0.3347 -0.1689
 2016TIP3    H130243   3.771   3.339  12.074 -0.2685 -1.5780 -0.9377
 2016TIP3    H230244   3.895   3.387  12.001 -0.1073  0.6630  0.7245
 2017TIP3   OH230245   5.438   6.720  10.069 -0.1999 -0.2659  0.6729
 2017TIP3    H130246   5.354   6.685  10.099 -1.6235  0.0375 -2.5410
 2017TIP3    H230247   5.474   6.653  10.012  0.0118  0.9620 -0.7110
 2018TIP3   OH230248   2.455   3.017  11.177  0.1772  0.2475 -0.2308
 2018TIP3    H130249   2.447   2.933  11.221 -0.5336  0.2754 -0.2919
 2018TIP3    H230250   2.499   2.997  11.094 -0.6422 -0.1809 -0.5652
 2019TIP3   OH230251   6.180   4.545  10.344  0.2457  0.0845  0.3018
 2019TIP3    H130252   6.170   4.640  10.349 -0.1983 -0.0168  1.7714
 2019TIP3    H230253   6.263   4.533  10.297 -0.1079  1.1558 -0.6675
 2020TIP3   OH230254   5.651   4.365   8.014  0.2605 -0.4052 -0.7451
 2020TIP3    H130255   5.709   4.295   8.043 -1.9637 -3.0492 -2.2284
 2020TIP3    H230256   5.611   4.398   8.094 -0.7277 -2.8418 -0.1620
 2021TIP3   OH230257   5.572   5.965  10.894  0.4496  0.4852  0.2816
 2021TIP3    H130258   5.538   5.882  10.860  1.8324  0.4201 -1.0619
 2021TIP3    H230259   5.574   6.023  10.818 -1.8108  2.2799  1.4499
 2022TIP3   OH230260   1.134   1.415  11.949 -0.7823 -0.0167 -0.6516
 2022TIP3    H130261   1.078   1.467  12.007 -0.1427 -0.7131  0.6244
 2022TIP3    H230262   1.073   1.365  11.895 -1.3868  0.4715 -0.4308
 2023TIP3   OH230263   2.139   0.152   9.251 -0.1547  0.0091 -0.1166
 2023TIP3    H130264   2.213   0.212   9.243 -0.5109  0.5048  0.2219
 2023TIP3    H230265   2.172   0.068   9.219  0.3574  0.3815 -0.5741
 2024TIP3   OH230266   2.260   6.589  10.073 -0.1096 -0.4855 -0.1051
 2024TIP3    H130267   2.295   6.602   9.985  0.0166 -0.1720 -0.0097
 2024TIP3    H230268   2.172   6.627  10.071 -0.1052 -0.4748 -0.0935
 2025TIP3   OH230269   4.471   4.308   9.877 -0.3303 -0.1471 -0.2078
 2025TIP3    H130270   4.553   4.348   9.849 -0.5486 -0.0327 -0.6866
 2025TIP3    H230271   4.422   4.378   9.919  0.0156 -0.3284  0.5090
 2026TIP3   OH230272   1.195   2.655  10.852 -0.7240  0.0829  0.3855
 2026TIP3    H130273   1.185   2.740  10.808 -1.1888 -0.2096 -0.0685
 2026TIP3    H230274   1.125   2.654  10.917 -0.5560  0.1540  0.5701
 2027TIP3   OH230275   1.366   1.618   7.624 -0.4047  0.1134  0.0317
 2027TIP3    H130276   1.369   1.536   7.574 -0.6218 -0.0055  0.2113
 2027TIP3    H230277   1.337   1.683   7.560 -1.7522 -0.2432  0.2472
 2028TIP3   OH230278   0.240   0.244  11.771  0.3141  0.2238 -0.1116
 2028TIP3    H130279   0.277   0.280  11.851  0.8587 -1.3345  0.3837
 2028TIP3    H230280   0.316   0.217  11.720 -0.0672 -0.1743 -0.4718
 2029TIP3   OH230281   2.226   3.495  11.028  0.0748 -0.4860  0.1051
 2029TIP3    H130282   2.280   3.536  11.096  2.3288  1.0390 -2.4103
 2029TIP3    H230283   2.148   3.551  11.024  1.7494  1.9311 -1.1994
 2030TIP3   OH230284   0.719   5.649  11.881 -0.7342  0.3465  0.3536
 2030TIP3    H130285   0.793   5.632  11.823 -0.1084  2.9568  0.2407
 2030TIP3    H230286   0.759   5.672  11.965 -1.5099 -0.4309  0.9484
 2031TIP3   OH230287   6.499   1.912  10.540 -0.6895  0.2120 -0.2693
 2031TIP3    H130288   6.591   1.912  10.512 -1.3855 -0.0567 -2.7341
 2031TIP3    H230289   6.494   1.838  10.601  0.6485  0.0371 -0.3263
 2032TIP3   OH230290   0.692   3.026  11.924 -0.1390  0.2634 -0.8904
 2032TIP3    H130291   0.738   2.945  11.944  1.8216  1.8401  1.6734
 2032TIP3    H230292   0.762   3.092  11.917 -1.8140  2.3598  0.7039
 2033TIP3   OH230293   0.336   1.808   9.826  0.0145 -0.1587 -0.4360
 2033TIP3    H130294   0.428   1.784   9.840  0.3856  1.4630  0.1884
 2033TIP3    H230295   0.299   1.814   9.913 -0.7317 -0.9469 -0.6954
 2034TIP3   OH230296   6.323   3.522   9.590  0.0603 -0.4737  0.4551
 2034TIP3    H130297   6.386   3.593   9.577  1.3438 -1.7142 -0.3849
 2034TIP3    H230298   6.271   3.550   9.666  0.4301  1.4009  0.0732
 2035TIP3   OH230299   1.905   3.767  10.819 -0.3650 -0.4982  0.3289
 2035TIP3    H130300   1.900   3.736  10.909  0.2955 -1.6076  0.0040
 2035TIP3    H230301   1.825   3.733  10.778 -0.9469  0.4791  0.6152
 2036TIP3   OH230302   2.259   4.797   8.637  0.1552 -0.0354  0.4544
 2036TIP3    H130303   2.257   4.888   8.609 -1.1368  0.7415  2.8206
 2036TIP3    H230304   2.325   4.795   8.706 -1.2841 -0.3828  1.8639
 2037TIP3   OH230305   4.394   2.198  11.691 -0.4144 -0.4842  0.2322
 2037TIP3    H130306   4.419   2.290  11.691 -2.3414  0.0838  0.0536
 2037TIP3    H230307   4.373   2.179  11.599  1.7305 -1.6716 -0.0824
 2038TIP3   OH230308   2.481   1.533   9.411 -0.6246  0.6025  0.0590
 2038TIP3    H130309   2.468   1.578   9.327 -0.1612 -0.8805 -0.8417
 2038TIP3    H230310   2.433   1.451   9.402  1.7362 -0.8708  0.1136
 2039TIP3   OH230311   6.059   3.385   9.231 -0.5055  0.0440 -0.5677
 2039TIP3    H130312   6.140   3.418   9.193  0.5525  0.6851  2.0474
 2039TIP3    H230313   6.012   3.463   9.259 -0.0839 -0.4050  1.5827
 2040TIP3   OH230314   1.662   0.962  11.641  0.5833  0.4658 -0.0109
 2040TIP3    H130315   1.747   0.985  11.677  1.6345  2.0399 -3.0933
 2040TIP3    H230316   1.617   1.046  11.630  0.0293  0.0093 -1.4868
 2041TIP3   OH230317   3.350   6.792  11.844 -0.1311  0.1334 -0.0442
 2041TIP3    H130318   3.363   6.788  11.749  1.8810 -0.0798  0.1866
 2041TIP3    H230319   3.311   6.878  11.860  0.2950  0.5202 -1.0103
 2042TIP3   OH230320   2.644   4.609  10.392  0.2943  0.0393  0.4946
 2042TIP3    H130321   2.549   4.607  10.379  0.1921  0.9493  0.9852
 2042TIP3    H230322   2.675   4.678  10.333  0.7742 -0.8208 -0.2884
 2043TIP3   OH230323   0.030   5.050   9.853  0.0684 -0.6624  0.4310
 2043TIP3    H130324   0.052   5.012   9.768 -0.1953 -1.2794  0.6267
 2043TIP3    H230325  -0.055   5.092   9.840  0.5179  0.1734  0.1266
 2044TIP3   OH230326   6.516   3.213   8.777  0.4269 -0.0454  0.3293
 2044TIP3    H130327   6.576   3.233   8.849  2.5729 -0.7190 -1.1697
 2044TIP3    H230328   6.573   3.199   8.702 -1.6687 -0.4774 -1.2668
 2045TIP3   OH230329   6.493   1.399  10.957 -0.4248  0.3340 -0.1518
 2045TIP3    H130330   6.438   1.321  10.954 -0.9419  0.6995 -0.2478
 2045TIP3    H230331   6.441   1.463  11.006  0.0774  0.5545  0.0980
 2046TIP3   OH230332   1.358   1.999  10.553 -0.6076 -0.1030 -0.0428
 2046TIP3    H130333   1.274   2.035  10.526 -0.0884  0.8277 -0.4715
 2046TIP3    H230334   1.398   2.068  10.606 -0.7417 -1.1259  1.4369
 2047TIP3   OH230335   0.509   1.080  11.496 -0.1543  0.0614  0.2196
 2047TIP3    H130336   0.435   1.138  11.479  0.2044  0.7281  0.8455
 2047TIP3    H230337   0.525   1.035  11.413 -0.2171  1.1304 -0.3866
 2048TIP3   OH230338   2.546   0.294   9.879 -0.1168  0.1809 -0.5899
 2048TIP3    H130339   2.568   0.203   9.896 -1.0097 -0.3283 -1.9326
 2048TIP3    H230340   2.451   0.294   9.868 -0.1884  1.3660 -0.1489
 2049TIP3   OH230341   1.962   0.072   8.530  0.3184 -0.0831  0.2768
 2049TIP3    H130342   1.922   0.020   8.599  0.2164  0.3629  0.5576
 2049TIP3    H230343   1.910   0.054   8.452 -1.6126  1.8846  1.0172
 2050TIP3   OH230344   3.475   4.372  11.379 -0.1528 -0.2575 -0.4291
 2050TIP3    H130345   3.463   4.447  11.321  0.4124  0.1453 -0.0401
 2050TIP3    H230346   3.565   4.342  11.362  0.9040  1.2981  1.8165
 2051TIP3   OH230347   2.920   2.581  10.279 -0.3547 -0.0665 -0.4095
 2051TIP3    H130348   2.960   2.495  10.265 -0.9118 -0.4626  0.3248
 2051TIP3    H230349   2.981   2.627  10.336 -0.9701 -0.7288  0.8411
 2052TIP3   OH230350   4.836   6.649  11.464  0.1016 -0.0442 -0.2973
 2052TIP3    H130351   4.802   6.564  11.434 -0.1436  0.4904 -1.5940
 2052TIP3    H230352   4.864   6.633  11.554  2.0466 -2.0552 -1.1826
 2053TIP3   OH230353   4.684   0.735   8.914 -0.7652 -0.3906  0.8615
 2053TIP3    H130354   4.668   0.760   8.823 -0.0635 -1.1360  0.5141
 2053TIP3    H230355   4.721   0.646   8.908  1.2431  0.3144  1.7104
 2054TIP3   OH230356   1.424   3.196  10.385 -0.1489 -0.1192  0.0018
 2054TIP3    H130357   1.499   3.168  10.332  0.5762  0.2487  0.8326
 2054TIP3    H230358   1.357   3.218  10.320  1.6140  2.9921 -0.9391
 2055TIP3   OH230359   2.473   2.125   9.866 -0.0391  0.0822  0.2980
 2055TIP3    H130360   2.392   2.146   9.913 -0.1364  1.7110 -0.5283
 2055TIP3    H230361   2.444   2.087   9.783  0.1188 -1.5527  0.9443
 2056TIP3   OH230362   5.281   6.358  10.834  0.9501 -0.1897  0.1801
 2056TIP3    H130363   5.328   6.347  10.751 -0.0477 -1.0428 -0.3058
 2056TIP3    H230364   5.205   6.300  10.826 -0.5696  1.6413  0.6575
 2057TIP3   OH230365   3.063   5.010  10.151  0.2191 -0.0542 -0.3781
 2057TIP3    H130366   2.972   5.033  10.169 -0.3811 -3.9462  3.3618
 2057TIP3    H230367   3.112   5.091  10.163 -2.3360  1.2404  2.6899
 2058TIP3   OH230368   1.162   6.525  10.568  0.6934  0.2075 -0.2413
 2058TIP3    H130369   1.232   6.464  10.546  0.7119  0.1797 -0.1067
 2058TIP3    H230370   1.207   6.600  10.608  0.5351 -0.3874  1.0814
 2059TIP3   OH230371   2.957   0.618  11.313 -0.1952 -0.2453 -0.3000
 2059TIP3    H130372   3.045   0.647  11.337  0.4200 -0.4274 -2.1942
 2059TIP3    H230373   2.917   0.693  11.270 -0.2303 -0.7624 -1.2021
 2060TIP3   OH230374   4.904   0.307  11.175  0.3062  0.3010 -0.1264
 2060TIP3    H130375   4.836   0.245  11.202  0.9957 -0.6521 -0.5257
 2060TIP3    H230376   4.957   0.259  11.113 -0.1223  1.8517 -1.7884
 2061TIP3   OH230377   6.691   0.990   9.327 -0.3253  0.1717  0.0428
 2061TIP3    H130378   6.758   1.002   9.259 -0.0333  2.2249  0.6079
 2061TIP3    H230379   6.728   0.925   9.386  0.2375 -0.2743 -0.7828
 2062TIP3   OH230380   5.741   4.525   8.956  0.0131 -0.0405 -0.0925
 2062TIP3    H130381   5.770   4.561   8.872 -0.2567  1.0434  0.2642
 2062TIP3    H230382   5.653   4.559   8.968  0.2813  0.3453  0.9231
 2063TIP3   OH230383   1.295   1.192  11.814 -0.0956 -0.0748  0.4348
 2063TIP3    H130384   1.227   1.130  11.790 -0.1213  0.6169 -1.5117
 2063TIP3    H230385   1.251   1.276  11.819  0.4752  0.2691 -0.1194
 2064TIP3   OH230386   1.751   2.102  11.139  0.2911  0.4661 -0.0549
 2064TIP3    H130387   1.664   2.088  11.101  0.5840 -0.9168 -0.2832
 2064TIP3    H230388   1.779   2.015  11.166  1.6422  0.8772 -0.0720
 2065TIP3   OH230389   3.551   0.036  12.046 -0.2870 -0.3693  0.1311
 2065TIP3    H130390   3.513  -0.035  12.099 -3.4329  1.8144  1.1313
 2065TIP3    H230391   3.481   0.059  11.986  1.2613  0.8581 -1.2626
 2066TIP3   OH230392   0.661   4.130  11.837 -0.2357 -0.1535  0.1169
 2066TIP3    H130393   0.605   4.198  11.873 -2.2270 -0.9864 -1.2316
 2066TIP3    H230394   0.616   4.101  11.757  2.5717 -0.2409 -1.5810
 2067TIP3   OH230395   3.236   0.228   9.776 -0.5441  0.1101 -0.0619
 2067TIP3    H130396   3.144   0.254   9.779 -1.3912 -2.7016  1.2018
 2067TIP3    H230397   3.283   0.306   9.807 -2.5580  1.2619  0.3305
 2068TIP3   OH230398   4.703   2.669   9.088 -0.1048 -0.1924 -0.5571
 2068TIP3    H130399   4.788   2.639   9.058 -0.2542 -2.4478  1.0470
 2068TIP3    H230400   4.719   2.707   9.175 -0.7151 -0.6559 -0.2309
 2069TIP3   OH230401   1.268   3.096   9.206 -0.1375  0.1397  0.0600
 2069TIP3    H130402   1.202   3.034   9.238  0.3044 -1.4541 -1.8965
 2069TIP3    H230403   1.343   3.042   9.184 -0.0567  1.1932 -2.5870
 2070TIP3   OH230404   3.945   5.019   9.732 -0.2790 -0.6299 -0.7928
 2070TIP3    H130405   3.951   5.086   9.663 -2.2463  0.0075 -0.4081
 2070TIP3    H230406   3.906   5.065   9.806 -3.1599 -2.5003 -1.0011
 2071TIP3   OH230407   6.522   1.699  10.285  0.7768 -0.1558 -0.3661
 2071TIP3    H130408   6.510   1.666  10.196 -1.1629  0.1145 -0.2639
 2071TIP3    H230409   6.433   1.700  10.321  0.5981  4.7481 -0.2535
 2072TIP3   OH230410   0.865   6.472   8.764  0.7100  0.3040  0.1433
 2072TIP3    H130411   0.945   6.447   8.718  0.9847 -0.6167  1.0971
 2072TIP3    H230412   0.892   6.542   8.823  0.6055  0.6377 -0.1962
 2073TIP3   OH230413   2.865   5.408   9.681  0.1737  0.2278 -0.4958
 2073TIP3    H130414   2.905   5.379   9.599  0.4675 -0.6944 -0.0310
 2073TIP3    H230415   2.920   5.482   9.709 -0.7830  1.4927 -1.8562
 2074TIP3   OH230416   5.677   6.560  11.471 -0.2357  0.2930  0.2689
 2074TIP3    H130417   5.679   6.489  11.536 -0.4330 -0.2283 -0.2865
 2074TIP3    H230418   5.617   6.529  11.404 -0.3674  1.0202  0.0457
 2075TIP3   OH230419   1.763   0.545   9.690  0.0826 -0.4445  0.1818
 2075TIP3    H130420   1.773   0.521   9.598  0.1825 -1.4633  0.4471
 2075TIP3    H230421   1.750   0.640   9.689 -1.1722 -0.6049 -0.9763
 2076TIP3   OH230422   1.278   0.873  11.189 -0.8685  0.4639  0.0645
 2076TIP3    H130423   1.293   0.858  11.283  1.2856  1.0397 -0.1257
 2076TIP3    H230424   1.204   0.818  11.167  0.0951 -1.5673  1.6078
 2077TIP3   OH230425   5.036   1.269   8.756  0.0239  0.7254 -0.4067
 2077TIP3    H130426   5.070   1.350   8.717 -0.6613  0.6889 -1.1161
 2077TIP3    H230427   4.960   1.247   8.701 -0.3470  0.1052  0.3419
 2078TIP3   OH230428   0.728   2.265  10.161 -0.6077 -0.7479 -0.3351
 2078TIP3    H130429   0.644   2.305  10.183 -2.0296 -3.7304  0.1527
 2078TIP3    H230430   0.721   2.245  10.068 -0.1599 -0.4118 -0.4419
 2079TIP3   OH230431   5.506   1.588   9.018 -0.0281  0.0140  0.0177
 2079TIP3    H130432   5.445   1.657   8.992 -0.7637 -0.7396 -0.2946
 2079TIP3    H230433   5.504   1.525   8.946  0.1081 -0.6723  0.5992
 2080TIP3   OH230434   4.860   0.497   8.895 -0.5331 -0.7067  0.1615
 2080TIP3    H130435   4.941   0.510   8.944 -1.0336  0.2084  0.7907
 2080TIP3    H230436   4.813   0.430   8.944 -0.3641 -0.8917  0.0711
 2081TIP3   OH230437   0.690   1.489   9.739  0.3170 -0.7049  0.5098
 2081TIP3    H130438   0.685   1.564   9.798 -0.8283 -0.5584  0.2393
 2081TIP3    H230439   0.678   1.526   9.651  1.9207 -0.9303  0.1474
 2082TIP3   OH230440   1.170   4.725   9.347  0.7884 -0.1208  0.0672
 2082TIP3    H130441   1.115   4.647   9.342 -1.2634  1.2424  0.3363
 2082TIP3    H230442   1.160   4.756   9.437  0.4867  1.1940 -0.3992
 2083TIP3   OH230443   1.156   5.739  10.852 -0.7684 -0.0116  0.5356
 2083TIP3    H130444   1.153   5.751  10.947 -1.6162  0.6662  0.4340
 2083TIP3    H230445   1.094   5.804  10.817 -1.5717 -1.2237 -0.3831
 2084TIP3   OH230446   0.963   6.789  11.035  0.1624 -0.6127 -0.4849
 2084TIP3    H130447   0.907   6.728  11.082 -1.0008  0.2083 -0.7551
 2084TIP3    H230448   0.913   6.810  10.956  0.6897  0.4118 -0.5559
 2085TIP3   OH230449   4.258   2.597  10.731  0.0215 -0.2996  0.1702
 2085TIP3    H130450   4.190   2.563  10.790 -0.5948  0.1101 -0.2882
 2085TIP3    H230451   4.281   2.522  10.676 -1.0006 -0.1203 -0.5327
 2086TIP3   OH230452   3.573   1.158   9.927  0.1860 -0.3229 -0.5057
 2086TIP3    H130453   3.590   1.076   9.972 -0.4522 -0.4651 -0.5130
 2086TIP3    H230454   3.572   1.224   9.997 -1.3794 -0.6197 -0.1932
 2087TIP3   OH230455   6.169   5.159   9.458 -0.0782  0.3049  0.0188
 2087TIP3    H130456   6.228   5.233   9.468  0.3523 -0.0137 -0.1603
 2087TIP3    H230457   6.094   5.181   9.513  0.0282  0.8910 -0.0644
 2088TIP3   OH230458   1.805   2.708  10.325 -0.0674  0.1979  0.1579
 2088TIP3    H130459   1.863   2.761  10.270  3.1264 -0.9826  2.0989
 2088TIP3    H230460   1.775   2.768  10.394  0.2745  0.4341  0.1039
 2089TIP3   OH230461   2.872   3.800   9.448  0.0154  0.7592 -0.1358
 2089TIP3    H130462   2.899   3.869   9.387  0.0885 -0.0800 -1.0658
 2089TIP3    H230463   2.801   3.755   9.403  0.2421 -0.0340  0.2879
 2090TIP3   OH230464   1.166   6.344  11.819  0.1974  0.0556 -0.0832
 2090TIP3    H130465   1.261   6.350  11.824  0.0768  1.3757  1.3005
 2090TIP3    H230466   1.145   6.260  11.860  0.6797  0.4227  0.9215
 2091TIP3   OH230467   6.479   5.086  10.196 -0.0616 -0.0713  0.2352
 2091TIP3    H130468   6.564   5.048  10.174 -0.6855 -0.4089 -1.7710
 2091TIP3    H230469   6.501   5.165  10.247  1.3764 -0.9725  1.0818
 2092TIP3   OH230470   3.141   3.623  11.492 -0.1611 -0.0410 -0.9836
 2092TIP3    H130471   3.142   3.705  11.540  1.4334  0.1258 -1.2426
 2092TIP3    H230472   3.069   3.573  11.530  1.4190 -0.2247  2.1181
 2093TIP3   OH230473   5.604   2.608  11.452 -0.3473  0.0960 -0.6167
 2093TIP3    H130474   5.648   2.526  11.475  0.5587 -0.2592 -3.1988
 2093TIP3    H230475   5.538   2.620  11.519  1.3260 -1.2793  1.4095
 2094TIP3   OH230476   2.606   2.996  10.962  0.2879  0.3706  0.0198
 2094TIP3    H130477   2.543   2.973  10.893 -0.4053  0.8286  0.4973
 2094TIP3    H230478   2.692   2.976  10.923 -0.1357 -0.1415 -0.6787
 2095TIP3   OH230479   0.884   0.636   8.725  0.6815 -0.0228  0.1079
 2095TIP3    H130480   0.949   0.588   8.777  0.0385 -0.6964  0.3098
 2095TIP3    H230481   0.928   0.652   8.641  1.4957  0.4977  0.6268
 2096TIP3   OH230482   3.215   2.444   9.588 -0.1636 -0.6628  0.1105
 2096TIP3    H130483   3.130   2.402   9.598 -0.3573 -0.1732  0.5291
 2096TIP3    H230484   3.196   2.537   9.579  0.2316 -0.7044 -1.3761
 2097TIP3   OH230485   2.086   1.674  10.235 -0.3559  0.3858 -0.5410
 2097TIP3    H130486   2.055   1.650  10.323 -0.1169 -1.2283 -0.8581
 2097TIP3    H230487   2.096   1.769  10.238 -2.1911  0.5952  0.5812
 2098TIP3   OH230488   6.725   0.545   8.210  0.4298 -0.5703 -0.2155
 2098TIP3    H130489   6.772   0.480   8.262 -0.1308 -0.8776 -0.0835
 2098TIP3    H230490   6.635   0.542   8.243  0.0930 -0.6871 -1.1188
 2099TIP3   OH230491   0.958   5.231   8.803 -0.0538 -0.7646  0.2752
 2099TIP3    H130492   0.867   5.218   8.775 -0.0863 -2.2769  0.9699
 2099TIP3    H230493   0.983   5.147   8.841  1.3384 -0.0719  0.9557
 2100TIP3   OH230494   0.442   2.241   9.679 -0.3677 -0.0526  0.0304
 2100TIP3    H130495   0.412   2.271   9.593 -0.0718  0.7136  0.1883
 2100TIP3    H230496   0.428   2.146   9.677  1.5697 -0.3777 -1.6557
 2101TIP3   OH230497   0.103   4.302   8.470 -0.6768 -0.1904  0.0576
 2101TIP3    H130498   0.140   4.305   8.382  0.4773  0.2255  0.5353
 2101TIP3    H230499   0.121   4.389   8.507 -3.0328  0.4087 -0.0122
 2102TIP3   OH230500   3.608   4.239   8.890  0.3580  0.8825 -0.2510
 2102TIP3    H130501   3.542   4.286   8.940 -0.2135  0.3013 -0.4411
 2102TIP3    H230502   3.678   4.302   8.877 -1.1850  2.3252 -2.1236
 2103TIP3   OH230503   2.198   0.492   8.624  0.1840 -0.7245  0.3744
 2103TIP3    H130504   2.197   0.402   8.589 -0.4552 -0.0544 -1.4824
 2103TIP3    H230505   2.288   0.521   8.614 -0.1363 -0.2617 -1.6513
 2104TIP3   OH230506   6.728   6.527  10.334  0.6598  0.2089  0.0846
 2104TIP3    H130507   6.739   6.547  10.427 -0.3329 -0.8840  0.4621
 2104TIP3    H230508   6.660   6.588  10.304  0.2745 -0.0882  0.3347
 2105TIP3   OH230509   3.120   2.602  10.519  0.0682  0.2167 -0.1103
 2105TIP3    H130510   3.039   2.582  10.565 -1.1861  0.1204 -2.2451
 2105TIP3    H230511   3.178   2.528  10.539 -0.5532 -0.0138  0.9300
 2106TIP3   OH230512   5.738   2.824  10.639  0.2788 -0.2979 -0.3042
 2106TIP3    H130513   5.714   2.734  10.620  0.6072 -0.3472 -0.4871
 2106TIP3    H230514   5.790   2.852  10.564 -1.5311  0.7165 -1.2376
 2107TIP3   OH230515   0.027   6.395  10.950  0.3796  0.7567  0.0311
 2107TIP3    H130516   0.098   6.423  10.892  1.9386  1.2490  2.0549
 2107TIP3    H230517  -0.043   6.369  10.891  2.2164  0.2673 -2.0806
 2108TIP3   OH230518   2.307   0.591  11.228  0.3976 -0.1122  0.3646
 2108TIP3    H130519   2.355   0.606  11.146 -1.9861  0.9022 -0.9537
 2108TIP3    H230520   2.353   0.644  11.293  2.3815 -0.9940 -0.2432
 2109TIP3   OH230521   6.345   3.415   8.802  0.1388 -0.2972  0.4017
 2109TIP3    H130522   6.355   3.450   8.891  1.0965 -0.8058  0.5112
 2109TIP3    H230523   6.404   3.339   8.800  0.5475  0.0289 -0.8322
 2110TIP3   OH230524   0.892   4.622   9.916  0.7961 -0.4306 -0.4415
 2110TIP3    H130525   0.880   4.540   9.963 -0.7400  0.5979  1.0574
 2110TIP3    H230526   0.804   4.647   9.887  1.0765  1.1493 -0.0473
 2111TIP3   OH230527   1.137   3.801   8.938  0.4278  0.6800 -0.0851
 2111TIP3    H130528   1.155   3.895   8.938  1.3254  0.5108  0.0299
 2111TIP3    H230529   1.170   3.769   9.021  1.4786  0.0143 -0.7375
 2112TIP3   OH230530   2.738   4.155  11.428 -0.2396  0.5614 -0.0005
 2112TIP3    H130531   2.697   4.189  11.348 -0.2139  0.6077  0.0060
 2112TIP3    H230532   2.756   4.063  11.408 -0.2715  0.5625 -0.0335
 2113TIP3   OH230533   6.071   3.729  10.826 -0.4419  0.4466 -0.5946
 2113TIP3    H130534   6.068   3.638  10.798  1.1528 -0.3232  1.5379
 2113TIP3    H230535   5.981   3.751  10.848 -0.4948 -1.4856  1.3677
 2114TIP3   OH230536   2.415   6.601   9.345 -0.1787  0.4172 -0.4110
 2114TIP3    H130537   2.384   6.538   9.280 -0.8028 -0.3131  0.5578
 2114TIP3    H230538   2.383   6.686   9.314 -2.9365 -0.2497  0.3495
 2115TIP3   OH230539   0.350   3.814   9.622  0.1373 -0.5555  0.1159
 2115TIP3    H130540   0.424   3.753   9.623 -0.1662 -0.9165  0.7977
 2115TIP3    H230541   0.373   3.878   9.555  0.8011 -0.9987 -0.0863
 2116TIP3   OH230542   0.324   2.897  10.163 -0.8542 -0.0316  0.0483
 2116TIP3    H130543   0.411   2.927  10.187 -0.0777 -1.3911 -0.8894
 2116TIP3    H230544   0.267   2.926  10.235 -0.1568  3.1571 -0.5410
 2117TIP3   OH230545   2.464   6.082  11.503  0.3825  0.3820  0.7551
 2117TIP3    H130546   2.516   6.152  11.465  3.0448 -1.2773  1.1264
 2117TIP3    H230547   2.392   6.069  11.441  1.4021  1.5755 -0.7482
 2118TIP3   OH230548   4.374   3.835  11.295  0.0065  0.4803 -0.1836
 2118TIP3    H130549   4.425   3.809  11.218  1.1292  0.3713  0.5759
 2118TIP3    H230550   4.396   3.927  11.308 -0.0127  0.4404  0.1391
 2119TIP3   OH230551   6.394   4.530  10.167  0.3827 -0.5186  0.3552
 2119TIP3    H130552   6.410   4.623  10.153 -1.1743 -0.3023 -0.0922
 2119TIP3    H230553   6.323   4.508  10.107 -0.7545 -1.4791  1.9667
 2120TIP3   OH230554   3.872   6.104   9.582  0.3744 -0.1015 -0.3652
 2120TIP3    H130555   3.886   6.143   9.496 -0.8454 -0.0758 -0.5651
 2120TIP3    H230556   3.954   6.121   9.629  1.3706 -0.8455 -1.7716
 2121TIP3   OH230557   2.275   0.137  11.196 -0.0121 -0.5177  0.3736
 2121TIP3    H130558   2.189   0.175  11.177  0.1619  0.5043  1.5512
 2121TIP3    H230559   2.255   0.047  11.223 -0.4618 -1.1825 -1.9283
 2122TIP3   OH230560   2.475   3.805  12.098 -0.1148 -0.1260 -0.1869
 2122TIP3    H130561   2.549   3.748  12.077 -1.7903 -2.9832  1.2044
 2122TIP3    H230562   2.516   3.886  12.129  2.3941 -1.2178 -0.4176
 2123TIP3   OH230563   0.435   5.925  10.938  0.7429  0.0520 -0.2219
 2123TIP3    H130564   0.370   5.992  10.955  0.0431 -0.7634  0.4151
 2123TIP3    H230565   0.410   5.888  10.853  0.4809 -0.1346 -0.0645
 2124TIP3   OH230566   5.517   1.479  10.552  0.5101  0.1008 -0.3472
 2124TIP3    H130567   5.528   1.397  10.600  0.5650 -0.5617 -1.4655
 2124TIP3    H230568   5.586   1.478  10.486  0.3940  0.9638 -0.4887
 2125TIP3   OH230569   6.170   0.458  11.745 -0.6381  0.5037  0.7923
 2125TIP3    H130570   6.092   0.476  11.692  0.1329  2.1692  0.1439
 2125TIP3    H230571   6.157   0.507  11.825 -0.4547  0.4097  0.8800
 2126TIP3   OH230572   2.473   1.608  11.465  0.0470 -0.2677 -0.1074
 2126TIP3    H130573   2.442   1.664  11.536 -0.9283 -0.5395 -0.3046
 2126TIP3    H230574   2.551   1.566  11.501 -0.5229 -0.5337  0.8824
 2127TIP3   OH230575   3.977   3.564  10.071 -0.8245 -0.9037  0.0276
 2127TIP3    H130576   3.945   3.592  10.156  0.4971  1.0719 -0.0582
 2127TIP3    H230577   3.969   3.641  10.015  0.6352 -1.3916 -0.9383
 2128TIP3   OH230578   6.449   6.306   9.998  0.0211 -0.3382  0.7034
 2128TIP3    H130579   6.467   6.286  10.089 -2.2151 -0.5331  1.1471
 2128TIP3    H230580   6.372   6.362  10.000 -1.2300 -1.8726 -1.1270
 2129TIP3   OH230581   0.005   4.090  10.228 -1.1464  0.8879  0.1331
 2129TIP3    H130582   0.042   4.042  10.154 -0.9338 -0.8550  1.2958
 2129TIP3    H230583  -0.024   4.173  10.191 -0.0070  0.5404 -1.6626
 2130TIP3   OH230584   6.212   5.040   9.217  0.2877 -0.2488 -0.2868
 2130TIP3    H130585   6.190   5.078   9.302  1.6160 -1.0567  0.4481
 2130TIP3    H230586   6.278   5.099   9.181  1.0325 -0.8538  0.0566
 2131TIP3   OH230587   4.694   4.996  11.044  0.4163  0.0033 -0.0342
 2131TIP3    H130588   4.682   4.918  10.989 -0.6696 -1.2529  1.8826
 2131TIP3    H230589   4.770   4.976  11.098 -1.2908 -0.9460  2.2289
 2132TIP3   OH230590   1.033   3.930  10.175  0.0142  0.7140  0.4067
 2132TIP3    H130591   1.124   3.935  10.148  0.1950 -2.2507  0.1452
 2132TIP3    H230592   0.987   3.893  10.099 -1.0295  0.3223  1.1985
 2133TIP3   OH230593   0.901   3.404   9.256  0.1188  0.2432  0.4034
 2133TIP3    H130594   0.889   3.385   9.163  1.9857  1.2143 -0.0849
 2133TIP3    H230595   0.922   3.497   9.259  2.0884 -0.1724  1.5424
 2134TIP3   OH230596   5.263   2.755  10.264 -0.3320 -0.5935  0.0367
 2134TIP3    H130597   5.268   2.726  10.355  1.6825 -1.2447 -0.2434
 2134TIP3    H230598   5.310   2.688  10.214 -0.1478  0.4927 -1.3095
 2135TIP3   OH230599   2.814   2.112  11.078 -0.9170 -0.2021  0.3307
 2135TIP3    H130600   2.758   2.056  11.025  0.1317 -0.2271 -0.8112
 2135TIP3    H230601   2.879   2.146  11.016  1.4860 -1.6467  1.8510
 2136TIP3   OH230602   6.448   5.444  11.691 -0.1476 -0.1483  0.0187
 2136TIP3    H130603   6.392   5.472  11.619 -0.2528  2.1897  0.9438
 2136TIP3    H230604   6.491   5.365  11.658 -4.0772 -2.2375 -0.6483
 2137TIP3   OH230605   2.359   0.344  11.360  0.0704  0.8728 -0.6116
 2137TIP3    H130606   2.338   0.424  11.313  2.7014  0.8635 -1.9313
 2137TIP3    H230607   2.343   0.274  11.297  1.3827  0.6690 -0.7330
 2138TIP3   OH230608   3.837   3.032  10.510  0.5598  0.6305  0.6658
 2138TIP3    H130609   3.812   3.109  10.458  2.5459  0.0279 -1.3639
 2138TIP3    H230610   3.772   2.966  10.487  0.7267  0.7403 -0.1625
 2139TIP3   OH230611   6.444   5.008  11.133  0.0150  1.0318  0.0010
 2139TIP3    H130612   6.398   4.989  11.052  0.4880  0.3003 -0.1002
 2139TIP3    H230613   6.394   4.963  11.201 -0.1589  1.3220  0.0674
 2140TIP3   OH230614   3.716   3.447  10.568  0.3519 -0.0758 -0.4917
 2140TIP3    H130615   3.806   3.449  10.602  0.0624  0.5559  0.2671
 2140TIP3    H230616   3.689   3.539  10.568 -0.4909 -0.3181 -0.1803
 2141TIP3   OH230617   6.297   1.576   9.069 -0.1230  0.0702 -0.3744
 2141TIP3    H130618   6.384   1.611   9.092  0.2025 -0.9694  0.0411
 2141TIP3    H230619   6.237   1.647   9.091  0.6727  1.0911 -1.3689
 2142TIP3   OH230620   5.714   4.464  10.110 -0.1067 -0.1972  0.0046
 2142TIP3    H130621   5.781   4.518  10.151  0.6322 -0.2436 -1.1098
 2142TIP3    H230622   5.761   4.413  10.045 -0.5346 -3.1879  1.8579
 2143TIP3   OH230623   1.467   3.310  10.830 -0.2865  0.2447  0.6593
 2143TIP3    H130624   1.471   3.233  10.886 -1.0286  0.5100  1.0879
 2143TIP3    H230625   1.392   3.359  10.862 -0.1733  0.8550  0.0110
 2144TIP3   OH230626   3.839   3.917   9.373 -0.0681  0.1533 -0.0638
 2144TIP3    H130627   3.799   3.886   9.454 -0.8872 -0.9093 -0.8394
 2144TIP3    H230628   3.863   3.837   9.327  2.7839  0.7429  0.2513
 2145TIP3   OH230629   4.508   4.090  11.654 -0.4014 -0.4904 -0.0297
 2145TIP3    H130630   4.428   4.137  11.628  1.0202  1.4276 -1.2465
 2145TIP3    H230631   4.479   4.029  11.721 -2.8181  0.4363 -0.1189
 2146TIP3   OH230632   4.442   6.665   9.463 -0.1303  0.3249  0.5648
 2146TIP3    H130633   4.384   6.659   9.538  0.7436  0.3550  1.2572
 2146TIP3    H230634   4.412   6.743   9.416 -1.6617 -0.5581  0.0063
 2147TIP3   OH230635   0.428   5.904  10.648  0.5935 -0.6617 -0.1498
 2147TIP3    H130636   0.479   5.877  10.572  0.5858 -0.2936 -0.2891
 2147TIP3    H230637   0.337   5.895  10.620  0.5869 -1.0140 -0.0106
 2148TIP3   OH230638   3.547   3.359   9.321  0.0696 -0.0959 -0.7644
 2148TIP3    H130639   3.605   3.355   9.398 -0.6333  0.4423 -0.1901
 2148TIP3    H230640   3.527   3.267   9.302 -1.2324 -0.2088  0.8678
 2149TIP3   OH230641   4.274   6.778  10.905 -0.5572  0.0440  0.5022
 2149TIP3    H130642   4.215   6.753  10.976  1.1262  0.1191  2.0042
 2149TIP3    H230643   4.284   6.873  10.915  0.5483 -0.1042  0.8690
 2150TIP3   OH230644   4.045   6.352   9.564 -0.3091 -0.0154 -0.1048
 2150TIP3    H130645   3.993   6.417   9.612  0.4403  0.5194 -0.0028
 2150TIP3    H230646   4.124   6.340   9.617  0.4358  0.4237 -1.0812
 2151TIP3   OH230647   0.066   5.291  11.220  0.1053 -0.2698 -0.2651
 2151TIP3    H130648   0.117   5.262  11.295 -0.5745 -0.0919  0.2793
 2151TIP3    H230649  -0.025   5.276  11.246 -0.1359 -0.2139 -1.0591
 2152TIP3   OH230650   3.554   3.046   9.313  0.1022 -0.0234 -0.5935
 2152TIP3    H130651   3.471   3.000   9.309  0.2326 -0.2286 -0.9998
 2152TIP3    H230652   3.580   3.056   9.221 -0.3773  1.6654 -0.5777
 2153TIP3   OH230653   2.345   5.819   9.797 -0.4601 -0.0465 -0.6914
 2153TIP3    H130654   2.424   5.816   9.744  0.0244  1.2444 -0.0924
 2153TIP3    H230655   2.309   5.907   9.781 -2.5494 -1.0487 -2.0164
 2154TIP3   OH230656   4.613   3.313  10.695  0.3931  0.7495  0.2860
 2154TIP3    H130657   4.691   3.269  10.661 -0.3360 -0.1442 -0.3030
 2154TIP3    H230658   4.624   3.310  10.790  0.0833 -1.3436  0.3046
 2155TIP3   OH230659   6.112   1.120   8.380 -0.4273 -0.2735  0.2769
 2155TIP3    H130660   6.104   1.096   8.288  0.2759 -1.2582  0.4610
 2155TIP3    H230661   6.205   1.108   8.400 -0.1439  1.9449  0.5779
 2156TIP3   OH230662   3.252   3.440  10.333 -0.0920  0.2954 -0.1391
 2156TIP3    H130663   3.184   3.487  10.381 -0.4357 -0.7803  0.4494
 2156TIP3    H230664   3.205   3.398  10.261  0.0124 -0.1346  0.0439
 2157TIP3   OH230665   1.903   5.448  11.811 -0.0529  0.0850 -0.1890
 2157TIP3    H130666   1.945   5.533  11.799  0.1796  0.1674  1.0911
 2157TIP3    H230667   1.975   5.385  11.809 -0.2950 -0.2049 -1.9286
 2158TIP3   OH230668   4.986   2.854   9.945  0.3985 -0.0344 -0.0214
 2158TIP3    H130669   4.958   2.801  10.019  1.0371  0.5217  0.6433
 2158TIP3    H230670   4.905   2.894   9.913  0.1545  0.0130  0.6202
 2159TIP3   OH230671   0.122   2.692   8.884  0.2625  0.7323  0.4046
 2159TIP3    H130672   0.186   2.627   8.854 -0.5786  0.8579 -1.9151
 2159TIP3    H230673   0.049   2.639   8.916  1.2033  0.5909  2.4463
 2160TIP3   OH230674   2.285   3.033   9.332 -0.5509  0.2738 -0.5119
 2160TIP3    H130675   2.263   3.002   9.244 -1.8192 -0.1666 -0.0739
 2160TIP3    H230676   2.211   3.003   9.386 -0.4651  1.7092  0.4432
 2161TIP3   OH230677   3.604   6.733  11.495  0.3284 -0.3552  0.0510
 2161TIP3    H130678   3.545   6.687  11.436  0.8488  0.3371 -1.0517
 2161TIP3    H230679   3.550   6.801  11.536  0.2849  0.1259 -0.7767
 2162TIP3   OH230680   5.387   2.842   9.633  0.1396 -0.1056  0.5084
 2162TIP3    H130681   5.293   2.829   9.645  0.1380 -0.2380  0.3494
 2162TIP3    H230682   5.405   2.925   9.678 -0.3855  0.8860 -1.0202
 2163TIP3   OH230683   4.665   3.061   9.590  0.5221  0.7158  0.0989
 2163TIP3    H130684   4.755   3.089   9.601  1.2868 -1.2677 -0.6144
 2163TIP3    H230685   4.613   3.129   9.633  2.5328 -0.4909  5.0065
 2164TIP3   OH230686   1.123   4.348  11.573  0.1266 -0.5859 -0.4903
 2164TIP3    H130687   1.141   4.364  11.480 -1.9786 -1.8424 -1.1723
 2164TIP3    H230688   1.033   4.378  11.586 -0.1270 -1.8009  0.7889
 2165TIP3   OH230689   0.297   4.973   9.221  0.0732 -0.2118 -0.5027
 2165TIP3    H130690   0.257   5.043   9.272  1.7496  1.2831 -1.1329
 2165TIP3    H230691   0.360   4.932   9.280  0.7370  0.3453 -0.8126
 2166TIP3   OH230692   4.429   3.662   9.899 -0.6391  0.0099  0.2445
 2166TIP3    H130693   4.356   3.603   9.918 -1.6550  0.4447 -1.9686
 2166TIP3    H230694   4.503   3.604   9.880 -1.1847 -0.5209 -0.2958
 2167TIP3   OH230695   3.510   1.092   9.382  0.2188  0.4305  0.2751
 2167TIP3    H130696   3.449   1.022   9.404 -0.1857  1.1275  1.5116
 2167TIP3    H230697   3.463   1.145   9.317  0.7064 -0.6640 -1.0053
 2168TIP3   OH230698   0.358   4.774   9.055  0.1238  0.0043 -0.2463
 2168TIP3    H130699   0.327   4.838   9.119 -2.7983 -1.8531  0.3892
 2168TIP3    H230700   0.293   4.778   8.984  1.2352 -0.6171 -1.3391
 2169TIP3   OH230701   1.164   3.108  10.503 -0.3410  0.1099  0.1512
 2169TIP3    H130702   1.124   3.167  10.439 -0.3429  0.8959  0.8557
 2169TIP3    H230703   1.253   3.142  10.514 -0.5723  0.4579  1.1071
 2170TIP3   OH230704   2.776   6.176  10.222  0.1505  0.3593  0.3686
 2170TIP3    H130705   2.834   6.215  10.287 -0.0120  0.6270  0.3584
 2170TIP3    H230706   2.716   6.121  10.273  0.8106 -0.4165  0.3096
 2171TIP3   OH230707   3.914   1.938  11.633 -0.1520 -0.3946  0.1636
 2171TIP3    H130708   3.883   1.976  11.551  0.0823 -0.9087 -0.1732
 2171TIP3    H230709   3.846   1.875  11.658 -0.8106  0.6285  1.0166
 2172TIP3   OH230710   3.903   5.864  11.731  0.3322  0.0306 -0.2863
 2172TIP3    H130711   3.847   5.817  11.669 -1.1892  1.2025  0.1106
 2172TIP3    H230712   3.956   5.796  11.772 -0.9111 -1.1932 -0.6117
 2173TIP3   OH230713   0.306   6.310  11.851 -0.4014 -0.2002 -0.3023
 2173TIP3    H130714   0.331   6.239  11.910  1.6450  0.5232 -0.2366
 2173TIP3    H230715   0.255   6.267  11.782 -0.6205 -1.4514  0.5960
 2174TIP3   OH230716   3.207   4.947  11.760 -1.1213  0.1244 -0.3639
 2174TIP3    H130717   3.189   5.012  11.692  0.5813 -0.1860 -1.1619
 2174TIP3    H230718   3.218   4.999  11.840 -0.3059  0.7936 -0.8878
 2175TIP3   OH230719   6.248   4.868   9.480  0.1322 -0.1657  0.3911
 2175TIP3    H130720   6.197   4.789   9.459 -0.6915  0.6469 -0.8063
 2175TIP3    H230721   6.184   4.939   9.476  0.8790  0.5844  1.3762
 2176TIP3   OH230722   1.514   5.505  11.227  0.5090  0.1272  0.3643
 2176TIP3    H130723   1.524   5.416  11.261 -0.0226  0.1319  0.5455
 2176TIP3    H230724   1.583   5.555  11.269  0.1208  0.0391  1.1166
 2177TIP3   OH230725   0.914   3.313  11.273  0.0331 -0.3348 -0.8570
 2177TIP3    H130726   0.993   3.327  11.221 -0.3605  2.0300 -0.9287
 2177TIP3    H230727   0.872   3.399  11.276 -1.4712 -1.0698  0.9213
 2178TIP3   OH230728   0.924   5.590   9.990  0.1604 -0.0912  0.0669
 2178TIP3    H130729   0.894   5.537  10.064  1.0465  0.1094  0.5860
 2178TIP3    H230730   1.020   5.582   9.992  0.2566  0.8329 -0.3641
 2179TIP3   OH230731   6.116   0.307  11.218 -0.4007 -0.1349 -0.0048
 2179TIP3    H130732   6.023   0.295  11.195 -0.0329 -2.4859 -0.5131
 2179TIP3    H230733   6.154   0.220  11.209  1.7322  0.6445  0.8982
 2180TIP3   OH230734   6.728   2.991   8.672 -0.4131  0.6170 -0.0084
 2180TIP3    H130735   6.675   3.053   8.622  0.7116  1.4616 -0.1866
 2180TIP3    H230736   6.810   3.037   8.688  1.2576 -1.5140 -1.8711
 2181TIP3   OH230737   1.142   1.071   8.993 -0.3910  0.2170  0.2366
 2181TIP3    H130738   1.170   1.069   9.084 -0.4559 -1.3026  0.2460
 2181TIP3    H230739   1.126   1.164   8.975 -0.0445  0.5776  1.6571
 2182TIP3   OH230740   2.600   6.299  11.389 -0.1256 -0.3369 -0.0726
 2182TIP3    H130741   2.624   6.342  11.307  1.7750  2.7874  1.9105
 2182TIP3    H230742   2.511   6.330  11.407  0.7777  2.0842  0.7203
 2183TIP3   OH230743   4.702   6.642  11.900  0.5586 -0.5865  0.1787
 2183TIP3    H130744   4.722   6.733  11.921  1.5481 -1.1178  1.7006
 2183TIP3    H230745   4.777   6.612  11.849 -0.0272 -0.4286 -0.8211
 2184TIP3   OH230746   4.728   4.909   9.846 -0.3652 -0.3409 -0.1723
 2184TIP3    H130747   4.789   4.844   9.813  0.3353 -0.2635  0.9247
 2184TIP3    H230748   4.731   4.900   9.941 -0.2948  1.2351  0.0093
 2185TIP3   OH230749   5.657   1.211   9.276  0.3291  0.5300  0.8500
 2185TIP3    H130750   5.590   1.272   9.244  0.4931  1.2536  1.8434
 2185TIP3    H230751   5.632   1.126   9.237  0.2677  1.2585 -0.7876
 2186TIP3   OH230752   1.857   4.504  11.604 -0.2357 -0.2501 -0.9169
 2186TIP3    H130753   1.831   4.528  11.515  0.6433  0.8599 -0.8964
 2186TIP3    H230754   1.821   4.416  11.616 -1.8513  0.2538 -1.7370
 2187TIP3   OH230755   4.337   3.762   9.165 -0.0925  0.0214 -0.0469
 2187TIP3    H130756   4.367   3.684   9.211  0.5266  0.8609  1.0378
 2187TIP3    H230757   4.371   3.752   9.076  2.2599  0.2409  0.7533
 2188TIP3   OH230758   6.353   0.050   9.171 -0.1570  0.0060 -0.7582
 2188TIP3    H130759   6.277   0.102   9.198 -0.8874 -1.3036 -0.1994
 2188TIP3    H230760   6.420   0.115   9.148 -1.5294  1.2009 -1.5370
 2189TIP3   OH230761   3.604   0.076  10.013 -0.4725 -0.2779 -0.4437
 2189TIP3    H130762   3.568  -0.013  10.020  1.1133 -0.9408 -0.1655
 2189TIP3    H230763   3.689   0.063   9.970  0.2700  0.9661  0.6065
 2190TIP3   OH230764   3.135   3.620  11.211 -0.3254  0.1199 -0.2888
 2190TIP3    H130765   3.150   3.636  11.304 -0.1487  1.7834 -0.5765
 2190TIP3    H230766   3.203   3.558  11.186 -0.0356  0.0788  0.5775
 2191TIP3   OH230767   6.612   1.466   9.122 -0.1309 -0.5960 -0.1361
 2191TIP3    H130768   6.644   1.441   9.035  0.1261  0.0283 -0.2276
 2191TIP3    H230769   6.559   1.392   9.150  1.2157 -1.5785 -0.0690
 2192TIP3   OH230770   6.546   4.406   9.049  0.0214 -0.0495  0.1545
 2192TIP3    H130771   6.468   4.378   9.000 -1.2484 -0.1015  2.0839
 2192TIP3    H230772   6.584   4.325   9.081  1.9566 -0.1832 -2.1676
 2193TIP3   OH230773   5.883   5.744  11.857  0.6617 -0.4015 -0.4634
 2193TIP3    H130774   5.854   5.832  11.881 -0.0696 -1.2650  2.1822
 2193TIP3    H230775   5.975   5.740  11.885 -0.2318 -1.4567  2.7617
 2194TIP3   OH230776   5.072   4.472  11.443  0.2099  0.0515  0.0293
 2194TIP3    H130777   5.108   4.384  11.455  0.9066  0.3221 -0.0214
 2194TIP3    H230778   5.149   4.527  11.426 -0.3508  0.3964 -1.5508
 2195TIP3   OH230779   2.036   3.094  11.444  0.5231 -0.5679 -0.1760
 2195TIP3    H130780   2.086   3.136  11.514  0.0883 -0.7699  0.2616
 2195TIP3    H230781   2.098   3.035  11.402  0.8589 -0.2485 -0.1373
 2196TIP3   OH230782   2.822   2.787   8.714  0.0397  0.1117  0.2229
 2196TIP3    H130783   2.804   2.881   8.721 -0.0499  0.0557  0.7773
 2196TIP3    H230784   2.869   2.778   8.631 -1.8516  0.3436 -0.9408
 2197TIP3   OH230785   4.416   3.808  10.181  0.4996  0.1652 -0.1979
 2197TIP3    H130786   4.423   3.774  10.270  3.8762  1.7587  0.3043
 2197TIP3    H230787   4.471   3.750  10.128  1.5725  1.3824 -0.4595
 2198TIP3   OH230788   5.971   2.834   9.871 -0.5093  0.1125  0.3768
 2198TIP3    H130789   6.014   2.864   9.950 -0.1400  0.7389 -0.0615
 2198TIP3    H230790   6.038   2.838   9.803 -0.9406  0.0030 -0.0638
 2199TIP3   OH230791   6.240   4.372  11.046 -0.7518  0.4066  0.4963
 2199TIP3    H130792   6.151   4.358  11.012  0.1273 -1.2171 -1.2713
 2199TIP3    H230793   6.298   4.340  10.977  1.2514  1.6975  1.4829
 2200TIP3   OH230794   5.820   3.048   9.320  0.0074 -0.1763 -0.0047
 2200TIP3    H130795   5.858   3.024   9.405 -0.5064  0.5874  0.4499
 2200TIP3    H230796   5.823   3.144   9.318 -0.6399 -0.1588 -0.5423
 2201TIP3   OH230797   1.930   0.423   8.578  0.2014 -0.1472  0.2319
 2201TIP3    H130798   2.018   0.456   8.595 -0.7419  2.0432  1.2059
 2201TIP3    H230799   1.884   0.496   8.538 -1.6647 -0.6187  1.3753
 2202TIP3   OH230800   1.591   5.731  10.937  0.8651 -0.2477  0.1416
 2202TIP3    H130801   1.555   5.813  10.905 -0.0090  0.1158  1.9065
 2202TIP3    H230802   1.672   5.756  10.983  1.2122 -0.5334 -0.3047
 2203TIP3   OH230803   0.666   4.961   9.928  0.4734  0.5411 -0.2847
 2203TIP3    H130804   0.622   4.974  10.012  0.2437 -0.1607 -0.2951
 2203TIP3    H230805   0.670   5.049   9.890 -0.9496  0.6225 -0.2943
 2204TIP3   OH230806   2.823   5.109  10.267 -0.0635  0.1021 -0.0610
 2204TIP3    H130807   2.865   5.177  10.319 -0.5268 -0.6400  1.3499
 2204TIP3    H230808   2.731   5.133  10.265  0.0360  0.4462 -1.0871
 2205TIP3   OH230809   4.547   2.950   8.272  0.2879  0.5415 -1.0777
 2205TIP3    H130810   4.551   3.031   8.222 -0.5223  1.5948  0.5113
 2205TIP3    H230811   4.458   2.918   8.257  0.8034 -0.4600 -2.2373
 2206TIP3   OH230812   5.839   1.099  10.175 -0.3982 -0.1812 -0.5141
 2206TIP3    H130813   5.823   1.138  10.261 -0.2254  3.3341 -1.9470
 2206TIP3    H230814   5.861   1.008  10.195 -1.6974  0.0976  3.0340
 2207TIP3   OH230815   1.088   0.490   8.839  0.2628 -0.6688 -0.5810
 2207TIP3    H130816   1.148   0.555   8.875 -1.0710 -0.4619  1.4303
 2207TIP3    H230817   1.143   0.417   8.814  1.8202  1.1296 -2.8436
 2208TIP3   OH230818   1.914   1.094  10.362 -0.0456  0.5689  0.4164
 2208TIP3    H130819   1.881   1.011  10.329 -0.8918  0.3914  1.6464
 2208TIP3    H230820   1.838   1.135  10.405  0.9012  0.9351  1.8020
 2209TIP3   OH230821   1.898   3.599  11.765  0.5319  1.0689 -0.2885
 2209TIP3    H130822   1.872   3.682  11.803  2.4948  2.3987 -1.6197
 2209TIP3    H230823   1.987   3.584  11.799  0.4843 -0.1049 -0.6368
 2210TIP3   OH230824   4.308   3.205   9.192 -0.0169  0.3305  0.3151
 2210TIP3    H130825   4.327   3.291   9.228 -1.0641 -0.1015  1.9723
 2210TIP3    H230826   4.362   3.145   9.244  2.0636  0.0592 -1.9465
 2211TIP3   OH230827   2.528   6.568  11.784  0.4670 -1.0529 -0.0654
 2211TIP3    H130828   2.489   6.601  11.703 -2.2770  0.0311  1.5514
 2211TIP3    H230829   2.558   6.646  11.831  1.7225 -1.6374  0.1462
 2212TIP3   OH230830   2.758   1.590  10.300  0.1364 -0.0910  0.3201
 2212TIP3    H130831   2.686   1.533  10.325 -0.4967  0.4460 -0.2395
 2212TIP3    H230832   2.767   1.578  10.206  0.1128  0.5942  0.2248
 2213TIP3   OH230833   2.960   5.874  10.307 -0.3017  0.2471  0.5394
 2213TIP3    H130834   3.007   5.957  10.300 -1.3332  0.7968 -0.0890
 2213TIP3    H230835   2.873   5.898  10.339 -1.9882 -0.0300 -3.3201
 2214TIP3   OH230836   6.142   0.186   8.835  0.1694  0.0982 -0.0771
 2214TIP3    H130837   6.103   0.132   8.904 -0.6181  1.4715  0.5899
 2214TIP3    H230838   6.099   0.157   8.755 -0.1676 -0.3193  0.2498
 2215TIP3   OH230839   4.022   2.722  10.615  0.1700  0.4777 -0.2765
 2215TIP3    H130840   3.978   2.644  10.648  1.1232 -0.4346 -1.0760
 2215TIP3    H230841   4.115   2.706  10.631  0.2696  2.3013  1.2469
 2216TIP3   OH230842   1.680   0.491  10.017  0.5485 -0.6552  0.4182
 2216TIP3    H130843   1.641   0.528  10.095  1.9080  2.6333 -0.2736
 2216TIP3    H230844   1.626   0.524   9.945  2.4506  1.1198 -0.3017
 2217TIP3   OH230845   3.064   0.757   9.221 -0.4727  0.5868  0.0508
 2217TIP3    H130846   3.093   0.758   9.129  0.7294  0.6720  0.4181
 2217TIP3    H230847   3.018   0.673   9.231  0.1766  0.1715 -0.3952
 2218TIP3   OH230848   5.317   4.883   9.414 -0.3799  0.4610  0.3983
 2218TIP3    H130849   5.383   4.952   9.424  1.0638 -1.0357  1.9260
 2218TIP3    H230850   5.237   4.922   9.450 -0.5702  2.4877 -1.9297
 2219TIP3   OH230851   0.449   4.495   8.706  0.4224  0.0810  0.1947
 2219TIP3    H130852   0.452   4.502   8.610 -1.1221  1.4807  0.2026
 2219TIP3    H230853   0.467   4.403   8.723 -0.0964 -0.3808 -1.5068
 2220TIP3   OH230854   4.018   6.430  11.674  0.2547 -0.0844 -0.8467
 2220TIP3    H130855   3.971   6.421  11.592  1.6532 -0.2918 -1.6596
 2220TIP3    H230856   4.068   6.512  11.665 -1.5431  1.3087  0.8605
 2221TIP3   OH230857   1.960   2.713  11.459  0.0521  0.0603 -0.2377
 2221TIP3    H130858   1.998   2.727  11.546 -1.9851  0.4752  0.6564
 2221TIP3    H230859   2.033   2.685  11.405  1.3526 -0.3899  1.6533
 2222TIP3   OH230860   4.988   2.924   9.416 -0.3435 -0.1408 -0.8453
 2222TIP3    H130861   4.951   2.997   9.466 -1.1856 -0.6580 -0.6917
 2222TIP3    H230862   4.993   2.852   9.478  2.7371  0.3990 -0.3407
 2223TIP3   OH230863   0.705   1.718  12.048  0.0479  0.1896 -0.1545
 2223TIP3    H130864   0.620   1.674  12.054 -0.3893  0.9245 -0.7916
 2223TIP3    H230865   0.738   1.694  11.962 -0.5072  1.6148 -0.8016
 2224TIP3   OH230866   2.287   5.087   9.166 -0.3404 -0.1490  0.0672
 2224TIP3    H130867   2.342   5.015   9.135 -1.0838 -0.5653 -0.2884
 2224TIP3    H230868   2.208   5.045   9.199 -0.3645  0.4316  0.7871
 2225TIP3   OH230869   6.093   0.117   9.293  0.4483 -0.0572 -0.2501
 2225TIP3    H130870   6.034   0.192   9.295  0.4311 -0.0697 -0.2914
 2225TIP3    H230871   6.039   0.043   9.319  0.3180 -0.1555 -0.8026
 2226TIP3   OH230872   0.905   1.768   9.428 -0.2742  0.5246 -0.0922
 2226TIP3    H130873   0.953   1.696   9.470  1.2134  1.7705  0.4706
 2226TIP3    H230874   0.820   1.769   9.472 -1.1977 -2.1664 -1.5742
 2227TIP3   OH230875   5.424   5.396   9.813 -0.0228  0.5330 -0.1357
 2227TIP3    H130876   5.479   5.471   9.838 -0.0927 -0.4102  3.2231
 2227TIP3    H230877   5.485   5.322   9.812 -0.4275  0.2018 -1.0012
 2228TIP3   OH230878   5.072   6.038  11.056  0.9070  0.1287 -0.0254
 2228TIP3    H130879   5.074   6.046  10.961  1.3956 -1.1522 -0.1409
 2228TIP3    H230880   5.136   6.102  11.087  4.2827 -2.5738 -0.8562
 2229TIP3   OH230881   4.921   0.876   9.093  0.0609 -0.4529  0.8566
 2229TIP3    H130882   4.846   0.821   9.115 -0.2456  0.0164  1.0294
 2229TIP3    H230883   4.894   0.924   9.015 -0.6662  1.2445  2.0701
 2230TIP3   OH230884   3.873   5.505   9.960 -0.1883  0.3535 -0.9162
 2230TIP3    H130885   3.911   5.425   9.996  0.6821  1.4435  0.7033
 2230TIP3    H230886   3.845   5.555  10.037  0.8426  2.3534 -1.7739
 2231TIP3   OH230887   5.312   0.879   8.094  0.2320  0.5118  0.0133
 2231TIP3    H130888   5.376   0.819   8.057 -0.2971 -0.3122  0.4047
 2231TIP3    H230889   5.364   0.942   8.144  0.7414 -0.1681  0.3603
 2232TIP3   OH230890   3.622   2.236  10.304 -0.2343  0.4556 -0.0724
 2232TIP3    H130891   3.635   2.252  10.397  0.5498 -0.4735 -0.0025
 2232TIP3    H230892   3.708   2.210  10.271 -0.4246  1.0865 -1.1289
 2233TIP3   OH230893   5.239   1.588   9.235  0.6609  0.0091 -0.0154
 2233TIP3    H130894   5.227   1.682   9.243 -1.2724 -0.1765 -0.0799
 2233TIP3    H230895   5.228   1.570   9.141 -0.3604 -0.4102  0.1699
 2234TIP3   OH230896   4.782   0.426  10.716  0.1453 -0.0872 -0.3416
 2234TIP3    H130897   4.853   0.371  10.749 -0.2440  0.0999  0.8582
 2234TIP3    H230898   4.709   0.366  10.704  0.4961 -0.2828 -1.5945
 2235TIP3   OH230899   6.558   4.873  11.426  0.0505  0.3317  0.1930
 2235TIP3    H130900   6.468   4.848  11.447  0.1828 -0.5875 -0.3026
 2235TIP3    H230901   6.591   4.913  11.507  0.6766 -3.4596  2.0495
 2236TIP3   OH230902   2.543   1.886   8.829 -0.0014 -0.3194  0.1384
 2236TIP3    H130903   2.461   1.854   8.791 -0.0110 -1.7708  1.2577
 2236TIP3    H230904   2.517   1.959   8.885 -0.5559 -0.8294  0.5589
 2237TIP3   OH230905   5.323   5.587  11.805 -0.0624  0.3687 -0.1540
 2237TIP3    H130906   5.356   5.663  11.756 -1.0616  2.3536  2.0737
 2237TIP3    H230907   5.380   5.514  11.777  1.1632  1.9795 -2.1188
 2238TIP3   OH230908   0.658   6.436  10.064  0.4758  0.1408  0.9938
 2238TIP3    H130909   0.743   6.423  10.105 -0.0001  0.7632  2.2093
 2238TIP3    H230910   0.595   6.407  10.129 -0.2607 -0.0900  0.1948
 2239TIP3   OH230911   3.766   5.958   9.988 -0.7022 -0.0225 -0.4194
 2239TIP3    H130912   3.822   5.892   9.947  0.3879  0.0863  0.8226
 2239TIP3    H230913   3.822   5.999  10.054 -2.2986 -0.0162  0.9928
 2240TIP3   OH230914   4.025   0.974   9.485 -0.0340  1.1000 -0.1095
 2240TIP3    H130915   4.097   1.019   9.439 -0.4894 -0.2857 -2.3475
 2240TIP3    H230916   3.947   1.024   9.460 -0.2800  0.3695 -0.8340
 2241TIP3   OH230917   4.116   5.716  11.276 -0.2472 -0.3381  0.0379
 2241TIP3    H130918   4.187   5.695  11.337 -0.0759 -1.2487 -0.4449
 2241TIP3    H230919   4.064   5.782  11.321  0.4971 -0.1856  0.7033
 2242TIP3   OH230920   3.716   6.212  10.910 -0.4871  0.4573  0.1611
 2242TIP3    H130921   3.767   6.244  10.835  0.8167  0.0035  0.8214
 2242TIP3    H230922   3.641   6.168  10.870  0.8020 -0.8582 -0.9691
 2243TIP3   OH230923   5.287   3.673  11.460 -0.0556 -0.3152 -0.2745
 2243TIP3    H130924   5.364   3.729  11.454  0.3150 -0.8826 -1.0497
 2243TIP3    H230925   5.215   3.726  11.425  0.2458 -0.2418 -0.7866
 2244TIP3   OH230926   0.204   5.389   9.395 -0.0281 -0.4783 -0.1698
 2244TIP3    H130927   0.265   5.380   9.322 -0.6242 -0.1213 -0.7249
 2244TIP3    H230928   0.221   5.313   9.450  0.6632 -0.5718 -0.5028
 2245TIP3   OH230929   5.341   5.216  10.194  0.1632  0.2513  0.0447
 2245TIP3    H130930   5.387   5.155  10.136  0.3280 -0.7263  1.1505
 2245TIP3    H230931   5.253   5.221  10.158 -0.4230 -2.1379  0.9033
 2246TIP3   OH230932   6.029   3.163  10.423 -0.2690  0.8908 -0.6508
 2246TIP3    H130933   6.002   3.238  10.476 -2.4437 -0.3844  0.1431
 2246TIP3    H230934   6.080   3.202  10.352 -0.1411  2.9685  0.4818
 2247TIP3   OH230935   1.572   0.097  11.368 -0.2690  0.0587 -0.2868
 2247TIP3    H130936   1.590   0.025  11.308  0.8964 -0.9060  1.1499
 2247TIP3    H230937   1.575   0.176  11.314  0.4693 -0.7958 -1.5198
 2248TIP3   OH230938   0.472   5.780  10.239  0.7647  0.0015  0.7167
 2248TIP3    H130939   0.480   5.753  10.331 -1.6381  0.5607  1.1549
 2248TIP3    H230940   0.524   5.716  10.191  0.1576 -1.7291  2.2634
 2249TIP3   OH230941   4.067   1.280  11.742 -0.3737  0.7108 -0.5021
 2249TIP3    H130942   4.085   1.340  11.669 -1.5689  0.6758 -0.8379
 2249TIP3    H230943   4.039   1.199  11.700 -1.3462  0.7813 -0.0123
 2250TIP3   OH230944   4.762   3.482   8.730 -0.3830 -0.1262 -0.3670
 2250TIP3    H130945   4.726   3.570   8.740 -1.4527 -0.5033 -0.8169
 2250TIP3    H230946   4.815   3.487   8.650 -2.6145 -0.5435 -1.9619
 2251TIP3   OH230947   4.920   0.859  11.300  0.1656 -0.5473  0.0101
 2251TIP3    H130948   4.862   0.934  11.289 -0.2559 -0.7936  0.5060
 2251TIP3    H230949   4.939   0.857  11.394 -0.3205 -1.4188  0.0997
 2252TIP3   OH230950   2.544   6.412  10.695  0.2207  0.4418  0.6235
 2252TIP3    H130951   2.542   6.464  10.614  0.4126  2.8036  2.0404
 2252TIP3    H230952   2.498   6.331  10.673 -1.2944  1.7432 -1.3583
 2253TIP3   OH230953   1.089   6.121   9.701  0.0938 -0.2225  0.4874
 2253TIP3    H130954   1.097   6.171   9.782 -0.0415  0.0206  0.3521
 2253TIP3    H230955   1.116   6.181   9.633  0.2593 -0.4453  0.3559
 2254TIP3   OH230956   5.481   5.687  11.351  0.3186  0.8581  0.1007
 2254TIP3    H130957   5.520   5.757  11.405  0.8995  0.7818 -0.2031
 2254TIP3    H230958   5.536   5.611  11.368  0.7004  0.9108 -0.8147
 2255TIP3   OH230959   6.032   0.536   9.444 -0.1826 -0.4289 -0.0963
 2255TIP3    H130960   5.967   0.540   9.514  2.1805 -0.0274  2.2296
 2255TIP3    H230961   6.045   0.627   9.418 -0.0314 -0.4343 -0.0406
 2256TIP3   OH230962   0.426   4.477   9.289  0.3965 -0.5438 -0.3615
 2256TIP3    H130963   0.438   4.393   9.243  1.3067  0.5052 -2.1463
 2256TIP3    H230964   0.332   4.480   9.308  0.0332 -1.2069 -1.8691
 2257TIP3   OH230965   3.339   0.067  10.520  0.2943 -0.3241  0.1913
 2257TIP3    H130966   3.421   0.027  10.548  1.1376 -0.4794 -2.2148
 2257TIP3    H230967   3.272   0.002  10.542  1.0615 -1.0356  0.4923
 2258TIP3   OH230968   6.728   6.194   9.928  0.6947  0.0053 -0.2796
 2258TIP3    H130969   6.750   6.231  10.013  0.2666  1.0196 -0.5942
 2258TIP3    H230970   6.648   6.240   9.901 -0.4804 -1.8765 -0.2405
 2259TIP3   OH230971   6.070   5.291  10.689 -0.2157 -0.1903  0.7248
 2259TIP3    H130972   6.090   5.223  10.624  0.1396 -0.0211  0.6544
 2259TIP3    H230973   6.109   5.259  10.770  1.9575  0.9452  0.2095
 2260TIP3   OH230974   2.113   3.567   9.235  0.1622 -0.8360  0.3042
 2260TIP3    H130975   2.129   3.550   9.328  0.9667 -1.4433  0.0653
 2260TIP3    H230976   2.040   3.509   9.213  0.2021 -0.9551  0.4776
 2261TIP3   OH230977   2.985   3.264  11.448  0.4368 -0.2795 -0.2453
 2261TIP3    H130978   3.070   3.232  11.419  0.2054  0.5775 -2.0131
 2261TIP3    H230979   2.958   3.325  11.379 -0.5921  1.1938  1.3681
 2262TIP3   OH230980   1.886   0.871  11.915 -0.2717  0.2500  0.0130
 2262TIP3    H130981   1.933   0.879  11.998 -0.2497  0.3869 -0.0126
 2262TIP3    H230982   1.847   0.957  11.900 -1.6778 -0.2373  0.7117
 2263TIP3   OH230983   0.690   3.974   9.227 -0.0513  0.3365 -0.5920
 2263TIP3    H130984   0.759   3.931   9.176 -1.8769 -1.3297 -1.7950
 2263TIP3    H230985   0.737   4.038   9.281  2.7090 -2.2414  0.3426
 2264TIP3   OH230986   4.706   1.825   9.441 -0.0553 -0.2924 -0.0649
 2264TIP3    H130987   4.702   1.729   9.435 -0.4794 -0.2567 -0.4069
 2264TIP3    H230988   4.683   1.844   9.532  1.0274 -0.5628  0.2814
 2265TIP3   OH230989   0.646   6.018   8.959 -0.2851 -0.2681 -0.1532
 2265TIP3    H130990   0.684   6.089   8.908  0.8074 -0.8240 -0.1352
 2265TIP3    H230991   0.574   5.986   8.906 -0.3798  0.4208 -0.4549
 2266TIP3   OH230992   5.663   4.956  11.292 -0.4547 -0.6123 -0.3611
 2266TIP3    H130993   5.668   5.012  11.369  0.4599 -0.9452 -0.1614
 2266TIP3    H230994   5.699   5.009  11.221  1.3173 -1.2387  0.0215
 2267TIP3   OH230995   6.046   2.519  10.270  0.0336 -0.2332 -0.0604
 2267TIP3    H130996   6.096   2.579  10.325 -0.2725 -0.5054  0.5222
 2267TIP3    H230997   5.986   2.575  10.220 -0.2497 -0.0526  0.4811
 2268TIP3   OH230998   0.709   1.467  11.826 -0.1316 -0.0740  0.1352
 2268TIP3    H130999   0.666   1.518  11.757  0.8931  1.0245  0.2726
 2268TIP3    H231000   0.767   1.407  11.780 -1.2310 -1.0677 -0.0218
 2269TIP3   OH231001   3.392   5.029   9.156  0.1154  0.1092 -0.2201
 2269TIP3    H131002   3.391   4.959   9.222 -1.3064  1.1687  0.9333
 2269TIP3    H231003   3.485   5.050   9.145  0.4555 -0.9504  0.5009
 2270TIP3   OH231004   1.270   6.602  10.169 -0.2451  0.1510  0.5806
 2270TIP3    H131005   1.344   6.602  10.230 -0.8450 -1.2176  1.3865
 2270TIP3    H231006   1.242   6.693  10.165  2.7177  1.1263 -1.3914
 2271TIP3   OH231007   1.624   4.250   9.445 -0.0862 -0.1961 -0.0340
 2271TIP3    H131008   1.579   4.197   9.511 -1.4058  0.0810 -0.6824
 2271TIP3    H231009   1.654   4.187   9.380 -0.1955 -0.3031  0.0199
 2272TIP3   OH231010   4.830   0.036  10.739 -0.0211 -0.0470 -0.2938
 2272TIP3    H131011   4.802   0.015  10.828  1.7987  1.9835  0.8565
 2272TIP3    H231012   4.897   0.104  10.750  0.6054 -0.0519 -3.1987
 2273TIP3   OH231013   5.567   6.116  10.665  0.8010 -0.3349  0.1403
 2273TIP3    H131014   5.503   6.071  10.608  1.2218  0.4481 -0.9928
 2273TIP3    H231015   5.543   6.209  10.659  2.4770  0.0752 -0.9230
 2274TIP3   OH231016   5.317   0.073   9.762 -0.2010  0.1218 -0.0861
 2274TIP3    H131017   5.246   0.045   9.819  0.6875 -0.8740  0.5890
 2274TIP3    H231018   5.379  -0.000   9.765  1.1380  1.2167 -0.1320
 2275TIP3   OH231019   2.271   4.191   9.946  0.3167  0.4158  0.0915
 2275TIP3    H131020   2.271   4.144  10.030  0.8053  1.9821  1.0172
 2275TIP3    H231021   2.179   4.197   9.921  0.2013 -0.4717  0.2537
 2276TIP3   OH231022   4.975   2.035   8.857  0.0275 -0.0639  0.6873
 2276TIP3    H131023   5.038   2.047   8.928  1.5890 -0.0983 -0.6338
 2276TIP3    H231024   4.923   2.115   8.858 -0.2048 -0.2082  2.0612
 2277TIP3   OH231025   5.418   2.833  11.581 -0.2265 -0.4168  0.9631
 2277TIP3    H131026   5.371   2.897  11.528 -0.4529 -1.2167  0.1569
 2277TIP3    H231027   5.450   2.882  11.657 -1.7854  0.3064  1.1983
 2278TIP3   OH231028   0.339   3.275  10.846  0.0466 -0.3118 -0.2529
 2278TIP3    H131029   0.270   3.254  10.784  0.7046 -0.8234 -0.8305
 2278TIP3    H231030   0.409   3.212  10.827  1.1951  0.9876 -0.5412
 2279TIP3   OH231031   5.585   3.963  11.140  0.1640 -0.4015 -0.1583
 2279TIP3    H131032   5.560   3.884  11.189 -0.9617  0.2509  0.3565
 2279TIP3    H231033   5.637   4.014  11.201 -0.1479 -0.1831 -0.0729
 2280TIP3   OH231034   1.454   0.912  11.815 -0.2796 -0.6870  0.4891
 2280TIP3    H131035   1.433   1.005  11.823 -0.5210 -0.3907 -2.4765
 2280TIP3    H231036   1.539   0.910  11.771 -1.5532 -1.7216 -2.1772
 2281TIP3   OH231037   4.687   4.499  10.094 -0.4947  0.1385 -0.0954
 2281TIP3    H131038   4.729   4.417  10.065  0.8929  1.2949 -1.5178
 2281TIP3    H231039   4.606   4.503  10.044 -1.2494 -0.9889  0.9714
 2282TIP3   OH231040   2.937   4.304   9.890  0.5129  0.0105 -0.9147
 2282TIP3    H131041   2.978   4.317   9.975  0.9718 -1.2694 -0.9246
 2282TIP3    H231042   2.993   4.240   9.845 -0.4231 -0.3008 -1.6811
 2283TIP3   OH231043   3.159   4.703  11.432  0.2862  0.1810 -0.2532
 2283TIP3    H131044   3.085   4.743  11.476 -0.8542 -0.9371 -1.0739
 2283TIP3    H231045   3.187   4.633  11.491  1.5955  1.4514  0.6856
 2284TIP3   OH231046   1.605   0.620   9.224  0.0149 -0.4899 -0.1963
 2284TIP3    H131047   1.531   0.623   9.285  1.1225  1.6516  1.2044
 2284TIP3    H231048   1.590   0.694   9.166 -0.5459 -1.9709 -2.0190
 2285TIP3   OH231049   1.486   2.946  11.372  0.0481 -0.1698 -0.0383
 2285TIP3    H131050   1.404   2.989  11.347 -0.4376 -0.9223  0.2340
 2285TIP3    H231051   1.535   3.013  11.419  0.8471  1.2001 -2.6447
 2286TIP3   OH231052   0.497   4.034   8.981 -0.3798  0.9825 -0.7191
 2286TIP3    H131053   0.513   3.958   8.926 -0.5647  0.3286  0.1126
 2286TIP3    H231054   0.584   4.072   8.995 -0.0946  0.1311 -0.0397
 2287TIP3   OH231055   1.513   5.895  11.343 -0.1376 -0.2035 -0.3444
 2287TIP3    H131056   1.586   5.948  11.312  0.2164 -0.8297 -0.6027
 2287TIP3    H231057   1.544   5.854  11.423 -1.2655  1.9028  1.2827
 2288TIP3   OH231058   1.459   4.795  11.462 -0.2550 -0.3086 -0.1830
 2288TIP3    H131059   1.492   4.774  11.549  1.1036  1.5294 -0.1945
 2288TIP3    H231060   1.526   4.761  11.402 -0.9388 -1.1133 -0.5207
 2289TIP3   OH231061   0.659   1.652   9.504  0.2236  0.8280 -0.2344
 2289TIP3    H131062   0.567   1.678   9.514  0.7172  2.4164  0.4437
 2289TIP3    H231063   0.667   1.630   9.411 -0.5888  1.7272 -0.5346
 2290TIP3   OH231064   2.899   4.277  10.477  0.1875  0.0919  0.0990
 2290TIP3    H131065   2.873   4.196  10.435 -2.1814  0.7125  0.2163
 2290TIP3    H231066   2.871   4.346  10.416  0.2481  0.8657  0.9194
 2291TIP3   OH231067   2.100   6.654  10.567 -0.8366 -0.5873 -0.0405
 2291TIP3    H131068   2.117   6.602  10.488 -1.7324 -1.7175  0.4934
 2291TIP3    H231069   2.033   6.717  10.540 -0.2673 -0.1525 -0.4898
 2292TIP3   OH231070   1.807   3.728   9.856  0.2158  0.0262  0.2262
 2292TIP3    H131071   1.887   3.781   9.856  0.6598 -0.6233 -0.3867
 2292TIP3    H231072   1.790   3.709   9.948 -0.3720  1.8335  0.5379
 2293TIP3   OH231073   4.572   0.895   9.348 -0.9539  0.9848 -0.3090
 2293TIP3    H131074   4.571   0.906   9.253  0.8483  1.4202 -0.3200
 2293TIP3    H231075   4.533   0.975   9.383  1.6364  2.5298 -0.6627
 2294TIP3   OH231076   5.648   5.174  10.379 -0.0525 -0.6589 -0.0396
 2294TIP3    H131077   5.604   5.147  10.299  0.2298  1.6222 -1.0609
 2294TIP3    H231078   5.622   5.266  10.391  1.8322 -0.1984  1.0979
 2295TIP3   OH231079   0.218   5.786   9.216 -0.2281 -0.1575 -0.4777
 2295TIP3    H131080   0.165   5.744   9.148 -0.5006 -0.9440  0.2024
 2295TIP3    H231081   0.288   5.723   9.233 -1.4909 -1.0736  1.6358
 2296TIP3   OH231082   1.440   2.892   9.077  0.1217 -0.1736  0.3018
 2296TIP3    H131083   1.462   2.858   8.990  0.5878 -0.3910  0.5009
 2296TIP3    H231084   1.393   2.820   9.120  3.3931 -1.7045  1.6969
 2297TIP3   OH231085   2.094   3.538   9.548 -0.1999  0.2245  0.0575
 2297TIP3    H131086   2.124   3.453   9.516  0.6068 -0.2557  1.9882
 2297TIP3    H231087   2.160   3.566   9.611  0.5366  3.1909 -1.8030
 2298TIP3   OH231088   5.095   4.247  11.884 -0.4712 -0.7420 -0.2678
 2298TIP3    H131089   5.139   4.177  11.836 -0.4357 -1.2969  0.5693
 2298TIP3    H231090   5.002   4.229  11.871 -0.4694 -1.4211  0.6218
 2299TIP3   OH231091   5.907   4.077  10.009 -0.4395  0.0215 -0.7257
 2299TIP3    H131092   5.829   4.098  10.061 -0.3777 -0.9917 -0.1863
 2299TIP3    H231093   5.950   4.008  10.058 -0.9536 -1.7677 -2.6303
 2300TIP3   OH231094   2.671   0.915  12.068  0.0257  0.3403  0.3651
 2300TIP3    H131095   2.666   0.966  11.987 -0.4196 -0.5202 -0.1779
 2300TIP3    H231096   2.584   0.924  12.107 -0.6770 -1.3775 -0.6471
 2301TIP3   OH231097   2.749   2.918  10.732  0.4401 -0.0847 -0.0065
 2301TIP3    H131098   2.749   2.849  10.666  1.6144  0.7698 -0.9390
 2301TIP3    H231099   2.825   2.973  10.710 -0.0895  1.1474  1.0886
 2302TIP3   OH231100   5.502   3.633   9.085  0.1628 -0.1262 -0.1920
 2302TIP3    H131101   5.410   3.655   9.104  0.1867  0.6401 -0.8904
 2302TIP3    H231102   5.505   3.622   8.990  0.4885 -1.7250 -0.0200
 2303TIP3   OH231103   2.166   6.578  11.595  0.0952 -0.1509  0.6717
 2303TIP3    H131104   2.085   6.626  11.576  1.8511  2.4201 -0.9765
 2303TIP3    H231105   2.195   6.613  11.680 -1.1238 -2.0870  1.9601
 2304TIP3   OH231106   6.497   2.408  10.033  0.4646 -0.0138 -0.5950
 2304TIP3    H131107   6.501   2.453  10.117 -1.5142 -0.2935 -0.2918
 2304TIP3    H231108   6.567   2.448   9.981  0.1044  2.0039  0.3480
 2305TIP3   OH231109   4.900   6.026  11.334  0.0629 -0.2123  0.1710
 2305TIP3    H131110   4.965   6.028  11.264 -1.8625  0.2590 -1.7208
 2305TIP3    H231111   4.821   5.990  11.293 -1.1104 -0.0639  2.1484
 2306TIP3   OH231112   3.157   3.650   8.749 -0.2498 -0.7300  0.0118
 2306TIP3    H131113   3.243   3.639   8.710 -0.8243 -2.0946 -0.9442
 2306TIP3    H231114   3.162   3.604   8.832 -0.5304 -2.3504 -0.8213
 2307TIP3   OH231115   2.242   1.256   9.600 -0.3574  0.2865  0.1010
 2307TIP3    H131116   2.226   1.350   9.608 -0.3937  0.1338  2.1500
 2307TIP3    H231117   2.284   1.247   9.514  1.2414  2.3876  0.5885
 2308TIP3   OH231118   3.038   1.812  10.448  0.2974 -0.0264  0.3798
 2308TIP3    H131119   3.122   1.769  10.460  1.2989  1.2034 -1.6804
 2308TIP3    H231120   2.996   1.764  10.376  0.0755  0.4895  0.1526
 2309TIP3   OH231121   1.800   2.994   9.480 -0.2429  0.2481  0.4414
 2309TIP3    H131122   1.733   3.030   9.538 -0.7216 -1.2774  0.8978
 2309TIP3    H231123   1.756   2.986   9.395 -0.4118 -0.0627  0.5564
 2310TIP3   OH231124   5.604   3.706  11.651 -0.5868  0.0506 -1.1724
 2310TIP3    H131125   5.645   3.691  11.736  0.3988  1.2885 -1.3971
 2310TIP3    H231126   5.620   3.626  11.602  1.7701  0.5070 -1.2908
 2311TIP3   OH231127   6.155   5.469  10.059 -0.2968  0.6109 -0.1833
 2311TIP3    H131128   6.154   5.378  10.031  1.6719  0.3724  0.3796
 2311TIP3    H231129   6.209   5.513   9.993  1.2763  0.7555  1.1332
 2312TIP3   OH231130   1.813   2.463  10.120  0.6400 -0.0569  0.2042
 2312TIP3    H131131   1.757   2.395  10.158  0.1355  0.6168  0.7044
 2312TIP3    H231132   1.801   2.538  10.178  0.0864  0.9116 -1.1431
 2313TIP3   OH231133   1.188   4.390   8.628 -0.2340 -0.2243  0.3197
 2313TIP3    H131134   1.159   4.336   8.555 -0.7782  0.0490  0.3248
 2313TIP3    H231135   1.222   4.470   8.587  0.3973 -0.4839  0.3213
 2314TIP3   OH231136   6.391   3.195  11.212  0.0278  0.1985 -0.3344
 2314TIP3    H131137   6.454   3.183  11.141 -1.0573 -1.4255 -1.0774
 2314TIP3    H231138   6.313   3.230  11.170  0.0531  1.2112  0.4171
 2315TIP3   OH231139   0.198   1.702   8.902 -0.1785  0.1046 -0.1912
 2315TIP3    H131140   0.166   1.612   8.900 -0.5571  0.2165  0.4227
 2315TIP3    H231141   0.208   1.726   8.810 -2.0962  0.1498 -0.4340
 2316TIP3   OH231142   2.536   0.507  11.111  0.1741 -0.0082 -0.0685
 2316TIP3    H131143   2.481   0.428  11.108  0.2165 -0.0982 -3.6686
 2316TIP3    H231144   2.602   0.488  11.177  0.6013 -3.3875 -1.2399
 2317TIP3   OH231145   0.554   3.489   9.184 -0.2288  0.4615  0.1671
 2317TIP3    H131146   0.619   3.473   9.116 -0.2662  0.1994  0.1947
 2317TIP3    H231147   0.596   3.554   9.241 -0.1065  0.5099  0.0230
 2318TIP3   OH231148   3.916   4.533  10.641  0.0099 -0.2923  0.4707
 2318TIP3    H131149   3.898   4.483  10.721 -1.1744  2.1383  1.8324
 2318TIP3    H231150   3.830   4.546  10.601  0.3353  0.4186 -0.0100
 2319TIP3   OH231151   5.743   3.715  11.215 -0.0895  0.2718  0.3205
 2319TIP3    H131152   5.780   3.636  11.254 -0.6046  0.9533  2.2964
 2319TIP3    H231153   5.663   3.684  11.172  0.7476 -0.5773 -0.6922
 2320TIP3   OH231154   3.729   2.208  10.806 -0.1146 -0.0783 -0.1720
 2320TIP3    H131155   3.739   2.152  10.883  0.7690 -1.4612 -1.2504
 2320TIP3    H231156   3.770   2.291  10.830  0.4641 -0.6146  0.7124
 2321TIP3   OH231157   2.825   0.507  10.371 -0.3115  0.2613 -0.4928
 2321TIP3    H131158   2.888   0.564  10.326  1.7113 -1.8387 -0.5211
 2321TIP3    H231159   2.842   0.420  10.335 -1.2397 -0.8595  1.6135
 2322TIP3   OH231160   4.799   5.667  11.791  0.1272 -1.1221 -0.4413
 2322TIP3    H131161   4.822   5.579  11.761  2.5586 -0.7366  0.0285
 2322TIP3    H231162   4.859   5.683  11.864 -1.1494  0.4447  0.3286
 2323TIP3   OH231163   1.147   2.139  10.426  0.4669 -0.1637  0.3622
 2323TIP3    H131164   1.070   2.120  10.372 -0.2877 -0.6979  1.5917
 2323TIP3    H231165   1.219   2.145  10.364 -0.5715  0.4356 -0.8316
 2324TIP3   OH231166   4.879   1.519   8.586  0.1308 -0.0888 -1.0999
 2324TIP3    H131167   4.856   1.610   8.606 -0.1576 -0.6094  1.1335
 2324TIP3    H231168   4.847   1.506   8.496 -1.1454  1.5733 -0.9352
 2325TIP3   OH231169   3.822   4.643   9.921 -0.2630  0.3820 -0.4523
 2325TIP3    H131170   3.766   4.609   9.851  0.8646 -1.2155 -0.6281
 2325TIP3    H231171   3.761   4.673   9.988 -1.3368  0.3375 -1.3717
 2326TIP3   OH231172   4.350   5.609  10.210  0.2935 -0.4301 -0.1128
 2326TIP3    H131173   4.436   5.652  10.217  1.3138 -2.4906  1.0252
 2326TIP3    H231174   4.367   5.532  10.156 -1.5607  0.6688 -2.4367
 2327TIP3   OH231175   5.546   4.331   9.185  0.1062 -0.1652  0.3880
 2327TIP3    H131176   5.498   4.359   9.107 -2.4394  1.0178  2.2337
 2327TIP3    H231177   5.494   4.363   9.258  1.0205 -3.3524  2.6507
 2328TIP3   OH231178   2.308   1.384  12.053  0.6791  0.2122  0.7586
 2328TIP3    H131179   2.327   1.476  12.072  1.1752  0.4560 -0.7842
 2328TIP3    H231180   2.218   1.372  12.083  0.9553  0.9050  1.9233
 2329TIP3   OH231181   1.861   5.008  10.065 -0.2501 -0.0871  0.3604
 2329TIP3    H131182   1.876   5.020  10.158  0.2501 -0.5637  0.3480
 2329TIP3    H231183   1.790   4.945  10.059  0.3352 -0.7740  0.4317
 2330TIP3   OH231184   2.967   1.788  10.765 -0.1097 -0.0775 -0.0487
 2330TIP3    H131185   3.059   1.779  10.789 -0.3238 -0.9761  0.4829
 2330TIP3    H231186   2.925   1.821  10.845 -0.3274 -0.1316 -0.1400
 2331TIP3   OH231187   1.096   4.509  10.339  0.0291  0.4153  0.8621
 2331TIP3    H131188   1.138   4.590  10.311 -0.3985  0.8228  1.3613
 2331TIP3    H231189   1.152   4.475  10.409 -0.4412  0.9392  1.5026
 2332TIP3   OH231190   3.177   0.414   9.238 -0.3099 -0.4068 -0.0848
 2332TIP3    H131191   3.229   0.460   9.172 -0.2785 -0.7316 -0.2912
 2332TIP3    H231192   3.100   0.469   9.251  0.6928  0.7595  1.1869
 2333TIP3   OH231193   4.889   6.063  10.125 -0.0036  0.0843 -0.1346
 2333TIP3    H131194   4.899   6.153  10.156 -1.4901  0.0920  0.4051
 2333TIP3    H231195   4.796   6.054  10.107  0.1358 -1.3136 -0.2904
 2334TIP3   OH231196   6.150   2.185  11.219  0.1235 -0.1779 -0.2353
 2334TIP3    H131197   6.087   2.223  11.158 -1.6038 -2.2225  0.1343
 2334TIP3    H231198   6.116   2.097  11.236  0.9770 -0.0161  2.9796
 2335TIP3   OH231199   2.621   2.658   8.839  0.3651  0.2306  0.0714
 2335TIP3    H131200   2.627   2.640   8.933  1.2364  0.9585  0.1652
 2335TIP3    H231201   2.700   2.708   8.819  0.5967 -0.6334 -1.2239
 2336TIP3   OH231202   2.430   2.248   9.423 -0.5720 -0.3998  0.5140
 2336TIP3    H131203   2.481   2.280   9.348 -0.7426  2.3112  1.4799
 2336TIP3    H231204   2.494   2.201   9.476  0.1131 -0.1692 -0.0860
 2337TIP3   OH231205   1.818   1.123  11.814  0.5379 -0.0755  0.3417
 2337TIP3    H131206   1.911   1.142  11.802  0.4001  0.8117  0.5940
 2337TIP3    H231207   1.775   1.209  11.812 -0.5076 -0.5914 -1.6709
 2338TIP3   OH231208   5.719   1.662   9.190 -0.0788 -0.1784 -0.5464
 2338TIP3    H131209   5.646   1.609   9.157 -0.2595  0.1403 -0.6575
 2338TIP3    H231210   5.792   1.600   9.195 -0.0964 -0.2882 -1.3722
 2339TIP3   OH231211   5.498   5.988  11.890 -0.3942 -0.2277 -0.1321
 2339TIP3    H131212   5.441   6.050  11.845 -1.7849 -0.9998  0.4725
 2339TIP3    H231213   5.442   5.950  11.959  1.0874 -0.4776  0.9827
 2340TIP3   OH231214   0.282   4.745  10.185  0.2321  0.5918  0.0791
 2340TIP3    H131215   0.308   4.667  10.235  2.1413  1.8536  1.1678
 2340TIP3    H231216   0.190   4.729  10.162  0.4457 -1.7594  0.6581
 2341TIP3   OH231217   5.065   3.591  11.595 -0.3418  0.1397 -0.0142
 2341TIP3    H131218   5.153   3.579  11.560 -0.3472 -0.6769  0.2453
 2341TIP3    H231219   5.007   3.547  11.533 -0.1800 -3.3235  2.0190
 2342TIP3   OH231220   4.889   6.272   9.851  0.1300  0.4297 -0.2615
 2342TIP3    H131221   4.912   6.179   9.851 -3.0643 -0.4787 -0.3558
 2342TIP3    H231222   4.961   6.314   9.897  1.6073 -2.1058 -0.0549
 2343TIP3   OH231223   5.622   2.819  11.922  0.1582 -0.1650  0.3267
 2343TIP3    H131224   5.637   2.737  11.875 -0.7757 -0.1985  0.0599
 2343TIP3    H231225   5.537   2.807  11.965 -0.8647  1.2766 -1.1489
 2344TIP3   OH231226   5.471   0.581  11.418 -0.2315  0.1580 -0.3640
 2344TIP3    H131227   5.469   0.491  11.386 -0.3236  0.1300 -0.2800
 2344TIP3    H231228   5.548   0.585  11.475 -2.5744 -1.1065  3.2270
 2345TIP3   OH231229   3.506   4.194  11.875  0.1559  0.1260 -0.0054
 2345TIP3    H131230   3.491   4.206  11.781  0.1013  0.3603  0.0307
 2345TIP3    H231231   3.500   4.283  11.911  2.3835  0.3788 -0.0835
 2346TIP3   OH231232   0.406   3.539   9.801 -0.4193  0.6211  0.3744
 2346TIP3    H131233   0.417   3.531   9.896 -0.5849  3.8778  0.7867
 2346TIP3    H231234   0.326   3.490   9.782  0.7527 -1.9226  1.4744
 2347TIP3   OH231235   2.653   1.750   9.022  0.4581 -0.2107  0.5612
 2347TIP3    H131236   2.624   1.801   8.947  0.7046  1.1720  1.3602
 2347TIP3    H231237   2.746   1.733   9.006  1.1201  2.0656  1.5455
 2348TIP3   OH231238   1.771   4.869  10.423 -0.0630 -0.0321 -0.5250
 2348TIP3    H131239   1.817   4.953  10.426 -0.7942  0.3849 -0.6881
 2348TIP3    H231240   1.702   4.882  10.358 -1.7591  0.0874  1.2162
 2349TIP3   OH231241   0.572   5.369   9.374  0.3316 -0.4012  0.0812
 2349TIP3    H131242   0.604   5.279   9.383 -0.6374 -0.6986  0.8015
 2349TIP3    H231243   0.505   5.364   9.306  0.2585 -0.2417  0.1408
 2350TIP3   OH231244   0.868   4.409  11.343 -0.2964  0.4020  0.1067
 2350TIP3    H131245   0.955   4.395  11.305  1.1853  1.0526  2.9760
 2350TIP3    H231246   0.847   4.326  11.386 -0.3026  0.7823  0.8498
 2351TIP3   OH231247   3.085   1.459   9.414  0.4566  0.1205  0.1863
 2351TIP3    H131248   3.065   1.391   9.478 -1.9885 -1.9043 -2.4742
 2351TIP3    H231249   3.019   1.527   9.429  0.6521  0.2402  0.5316
 2352TIP3   OH231250   0.556   2.610   8.991  0.0323  0.0511  0.3020
 2352TIP3    H131251   0.617   2.539   9.012 -2.2791 -2.4941 -0.8992
 2352TIP3    H231252   0.521   2.638   9.076  1.6631  0.4308  0.8673
 2353TIP3   OH231253   5.689   2.025   9.452 -0.1366  0.3614  0.1806
 2353TIP3    H131254   5.781   2.018   9.476  0.2849  0.1646 -1.4218
 2353TIP3    H231255   5.683   2.106   9.402 -1.2919  1.5510  2.1025
 2354TIP3   OH231256   2.601   1.584  10.069 -0.7422 -0.6807 -0.1505
 2354TIP3    H131257   2.535   1.535  10.018 -1.7776 -1.6538  1.9744
 2354TIP3    H231258   2.549   1.639  10.128  0.4210  2.0739 -1.5500
 2355TIP3   OH231259   0.604   1.955  11.648  0.0257  0.2638  0.1251
 2355TIP3    H131260   0.602   2.045  11.616 -0.0221  0.6952  1.2936
 2355TIP3    H231261   0.512   1.931  11.660  0.0120 -0.1679 -0.7643
 2356TIP3   OH231262   4.887   3.130  10.752 -0.3154 -0.2617  0.1284
 2356TIP3    H131263   4.949   3.076  10.800 -0.8495 -0.3618  0.7212
 2356TIP3    H231264   4.894   3.100  10.661 -0.2387 -0.9761  0.3647
 2357TIP3   OH231265   4.554   6.550  11.198  0.0949  0.5826  0.3994
 2357TIP3    H131266   4.463   6.525  11.180  0.7214 -2.6809  1.1091
 2357TIP3    H231267   4.605   6.502  11.132  1.3964  1.2621  0.8770
 2358TIP3   OH231268   3.992   2.144   8.722  0.4422 -0.3377  0.1027
 2358TIP3    H131269   3.923   2.078   8.729 -0.3763  0.2689 -1.6631
 2358TIP3    H231270   4.073   2.094   8.718 -0.2176 -1.3436 -2.1017
 2359TIP3   OH231271   3.710   4.204  10.680  0.2493 -0.3762 -0.4476
 2359TIP3    H131272   3.730   4.263  10.752  2.1982 -0.1756 -1.0837
 2359TIP3    H231273   3.723   4.116  10.717 -1.5959 -0.4169  0.1981
 2360TIP3   OH231274   4.390   0.156  10.228  0.3145  0.1532 -0.4073
 2360TIP3    H131275   4.380   0.170  10.134  0.2981 -0.4546 -0.4998
 2360TIP3    H231276   4.442   0.076  10.236  0.8549  0.5451  0.1017
 2361TIP3   OH231277   5.997   5.076   9.030 -0.1775  0.3732 -0.0003
 2361TIP3    H131278   6.072   5.134   9.016  1.2493 -1.1432  0.9767
 2361TIP3    H231279   6.035   4.990   9.046 -2.2299 -1.0394 -2.0006
 2362TIP3   OH231280   2.166   0.269   8.857 -0.6688  0.4075  0.0142
 2362TIP3    H131281   2.138   0.207   8.924 -1.3175  0.6738 -0.0067
 2362TIP3    H231282   2.129   0.235   8.776 -0.2150  0.3010 -0.1520
 2363TIP3   OH231283   1.634   3.029  10.288  0.3846 -0.2271  0.0932
 2363TIP3    H131284   1.657   2.979  10.209 -0.1813  0.3522 -0.4580
 2363TIP3    H231285   1.715   3.074  10.313  0.7227 -0.8936  0.2034
 2364TIP3   OH231286   5.656   3.347  10.649 -0.3428 -0.2707 -0.3792
 2364TIP3    H131287   5.632   3.278  10.587  1.2645 -0.7667 -0.4903
 2364TIP3    H231288   5.572   3.381  10.681 -1.1720 -1.3207 -1.3722
 2365TIP3   OH231289   3.859   4.048   9.804 -0.5169  0.1110  0.1002
 2365TIP3    H131290   3.851   4.083   9.716 -0.4070 -0.5187 -0.1669
 2365TIP3    H231291   3.879   4.124   9.859  2.7878  0.0755 -0.8914
 2366TIP3   OH231292   4.770   6.390  11.361  0.4051 -0.4827 -0.5455
 2366TIP3    H131293   4.794   6.372  11.270  0.5869 -2.4413 -0.1587
 2366TIP3    H231294   4.699   6.329  11.380  0.8096 -0.5692  0.8044
 2367TIP3   OH231295   6.785   1.376  11.468  0.3970  0.1507 -0.1234
 2367TIP3    H131296   6.871   1.333  11.472  0.6079  0.6473  1.1697
 2367TIP3    H231297   6.765   1.379  11.374  0.3593 -2.7481 -0.2975
 2368TIP3   OH231298   4.329   3.424  11.742 -0.4367  0.0164 -0.0134
 2368TIP3    H131299   4.366   3.427  11.654  1.0971 -2.0914  0.4873
 2368TIP3    H231300   4.386   3.482  11.794 -0.7250  0.4520 -0.1738
 2369TIP3   OH231301   5.111   3.539  11.140 -0.4751  0.0081  0.3761
 2369TIP3    H131302   5.090   3.470  11.202 -1.7741 -0.9980 -1.1121
 2369TIP3    H231303   5.033   3.594  11.137 -1.8873 -1.8895 -2.7722
 2370TIP3   OH231304   5.278   3.824  11.166  0.0009  0.4526 -0.1396
 2370TIP3    H131305   5.214   3.753  11.173 -1.0745  1.5283  1.8708
 2370TIP3    H231306   5.231   3.894  11.121  0.6758  0.2969 -1.0941
 2371TIP3   OH231307   1.286   2.680   9.132  0.6048 -0.3743 -0.5027
 2371TIP3    H131308   1.217   2.658   9.195  0.0602 -0.8644 -1.2493
 2371TIP3    H231309   1.255   2.643   9.050  0.9725  0.8712 -1.2221
 2372TIP3   OH231310   2.588   3.287  11.651  0.2823  0.2717  0.3457
 2372TIP3    H131311   2.681   3.292  11.677 -0.1039  0.1895  1.8731
 2372TIP3    H231312   2.587   3.226  11.578  1.3035 -0.7398  1.1270
 2373TIP3   OH231313   0.953   2.095  11.440 -0.5577  0.6284  0.0037
 2373TIP3    H131314   0.978   2.187  11.449 -0.7435  0.6551  0.2621
 2373TIP3    H231315   0.971   2.074  11.348 -1.3402  1.1713 -0.2894
 2374TIP3   OH231316   4.536   3.100  11.536  0.0358  0.1934 -0.0906
 2374TIP3    H131317   4.477   3.171  11.509 -0.1294 -0.2734 -1.0004
 2374TIP3    H231318   4.506   3.024  11.486  2.3648  0.2836 -1.7881
 2375TIP3   OH231319   3.438   4.664  10.391  0.6903 -0.1983 -0.5283
 2375TIP3    H131320   3.361   4.712  10.358  0.5889 -0.4803 -0.7063
 2375TIP3    H231321   3.405   4.576  10.408  1.1222 -0.5092 -1.2387
 2376TIP3   OH231322   0.845   3.081  11.367 -0.0364 -0.4560 -0.0880
 2376TIP3    H131323   0.887   3.157  11.328  0.0147 -1.1233 -1.4117
 2376TIP3    H231324   0.767   3.066  11.313 -0.1038 -1.2695  0.2155
 2377TIP3   OH231325   1.848   4.432  10.574  0.5244  0.3637 -0.1314
 2377TIP3    H131326   1.839   4.345  10.534  0.1643  0.4866 -0.3121
 2377TIP3    H231327   1.900   4.416  10.653  0.3626 -0.0337 -0.1030
 2378TIP3   OH231328   2.351   4.083  12.011 -0.0106  0.0400 -0.1804
 2378TIP3    H131329   2.429   4.084  12.065 -0.1581  1.3736  0.0264
 2378TIP3    H231330   2.375   4.030  11.934 -0.1912 -2.9865  1.6829
 2379TIP3   OH231331   0.653   2.764   8.798  0.1703  0.3420  0.5349
 2379TIP3    H131332   0.618   2.705   8.864 -2.4383  0.0455 -0.9464
 2379TIP3    H231333   0.691   2.707   8.731 -0.6318  0.3854  0.0178
 2380TIP3   OH231334   3.070   4.191  12.292  0.0090  0.1156 -0.6708
 2380TIP3    H131335   3.092   4.210  12.383 -0.8357  1.3743 -0.7053
 2380TIP3    H231336   2.982   4.228  12.280  0.2345  0.2521 -2.0770
 2381TIP3   OH231337   4.436   3.039  10.683  0.2232 -0.3874  0.1943
 2381TIP3    H131338   4.518   3.067  10.726  1.1376 -2.0822 -0.3785
 2381TIP3    H231339   4.392   2.985  10.749 -0.7450  0.9366  0.6940
 2382TIP3   OH231340   6.143   4.808   9.101 -0.0141 -0.3077 -0.2278
 2382TIP3    H131341   6.183   4.869   9.163 -0.7406 -0.7409  0.6971
 2382TIP3    H231342   6.109   4.737   9.156 -0.0220 -1.0778 -1.1952
 2383TIP3   OH231343   5.248   3.041  11.027 -0.1574  0.3631 -0.2611
 2383TIP3    H131344   5.263   3.133  11.007  2.5119 -0.1376 -0.9173
 2383TIP3    H231345   5.216   3.041  11.117 -0.8814  1.9411 -0.4900
 2384TIP3   OH231346   0.599   2.959  10.487 -0.2524  0.6751 -0.2861
 2384TIP3    H131347   0.587   2.895  10.417  0.5053  0.8827 -0.6163
 2384TIP3    H231348   0.654   2.914  10.551 -0.8304  0.5343  0.1235
 2385TIP3   OH231349   6.387   6.145   9.534 -0.1359 -0.1219 -0.3451
 2385TIP3    H131350   6.382   6.059   9.492  0.2874 -0.9765  1.2760
 2385TIP3    H231351   6.417   6.126   9.623  1.2323  1.8298 -0.3401
 2386TIP3   OH231352   6.561   2.576  10.255  0.3310  0.1391  0.3643
 2386TIP3    H131353   6.576   2.571  10.349 -0.7785  0.0440  0.5503
 2386TIP3    H231354   6.491   2.642  10.245  0.3296  0.0361 -0.3749
 2387TIP3   OH231355   2.073   0.229  11.816 -0.2309  0.3868 -0.1331
 2387TIP3    H131356   2.153   0.280  11.806 -0.1209  0.0470 -1.1114
 2387TIP3    H231357   2.004   0.294  11.825  0.2293  0.6899  1.6272
 2388TIP3   OH231358   4.822   1.409   9.808  0.0646 -0.2512 -0.4200
 2388TIP3    H131359   4.837   1.501   9.827 -0.0594 -0.4979  0.9556
 2388TIP3    H231360   4.866   1.362   9.878 -0.8912 -1.1988 -0.4173
 2389TIP3   OH231361   4.734   1.451  10.616  0.4333 -0.2966 -0.4668
 2389TIP3    H131362   4.650   1.433  10.659  0.7639  0.5118  0.5705
 2389TIP3    H231363   4.734   1.395  10.539 -1.3597  0.1716 -0.8506
 2390TIP3   OH231364   0.757   0.403  10.138 -0.1537 -0.3157 -0.1493
 2390TIP3    H131365   0.716   0.466  10.079  0.3626 -1.3384 -1.6421
 2390TIP3    H231366   0.735   0.317  10.101 -0.3421 -1.0148  1.4993
 2391TIP3   OH231367   0.382   2.968   9.146  0.3325  0.1518  0.4026
 2391TIP3    H131368   0.349   2.899   9.204 -1.8160  0.2233 -0.6636
 2391TIP3    H231369   0.319   2.973   9.075  1.7483  1.5654 -0.8466
 2392TIP3   OH231370   6.785   1.951  10.490  0.1766 -0.1075 -0.1690
 2392TIP3    H131371   6.879   1.962  10.476  0.3248  1.5123  1.6273
 2392TIP3    H231372   6.745   1.977  10.407  1.2826 -0.7347 -0.9285
 2393TIP3   OH231373   1.552   2.140   9.830  0.0331 -0.1646  0.0411
 2393TIP3    H131374   1.478   2.170   9.881 -0.7861 -0.1474 -1.1261
 2393TIP3    H231375   1.574   2.054   9.867 -0.7782 -0.3161  0.1715
 2394TIP3   OH231376   0.590   5.967  11.416  0.2407  0.2224 -0.3842
 2394TIP3    H131377   0.536   5.992  11.490  1.4016 -0.7919  0.8591
 2394TIP3    H231378   0.678   5.999  11.438  0.4174  0.7898 -1.7976
 2395TIP3   OH231379   5.556   4.847  10.895  0.0541 -0.5003 -0.1415
 2395TIP3    H131380   5.478   4.793  10.885 -0.2108 -0.4027  1.2236
 2395TIP3    H231381   5.560   4.867  10.988  0.3536  1.5400 -0.5337
 2396TIP3   OH231382   0.436   1.949  10.573 -0.1641  0.0395  0.2249
 2396TIP3    H131383   0.528   1.952  10.547  0.1689 -0.1554  1.3271
 2396TIP3    H231384   0.423   1.859  10.604 -0.4668  0.3352  0.9649
 2397TIP3   OH231385   5.282   5.443  10.316 -0.7176 -0.0785 -0.2000
 2397TIP3    H131386   5.322   5.493  10.387  0.2057  0.5041 -1.0946
 2397TIP3    H231387   5.338   5.365  10.307 -0.4057  0.1960 -0.7301
 2398TIP3   OH231388   3.977   2.486  10.337 -0.0605  0.1803 -0.1330
 2398TIP3    H131389   3.907   2.492  10.402  0.4866 -1.5661  0.6810
 2398TIP3    H231390   4.032   2.415  10.368  0.6379 -0.2211 -2.1387
 2399TIP3   OH231391   3.368   1.340   8.799 -0.7102 -0.0183  0.3985
 2399TIP3    H131392   3.388   1.390   8.878 -3.0495 -0.1673  1.1798
 2399TIP3    H231393   3.293   1.286   8.824  0.7318 -2.7894 -0.8897
 2400TIP3   OH231394   6.322   1.288  11.763  0.3662  0.0599  0.5856
 2400TIP3    H131395   6.359   1.200  11.773  1.1001  0.5495  2.5539
 2400TIP3    H231396   6.395   1.341  11.731  1.1745  0.7877  3.4024
 2401TIP3   OH231397   6.736   5.959   9.490 -0.2055  0.2002  0.3116
 2401TIP3    H131398   6.786   6.017   9.433  1.1942 -0.6826  0.6144
 2401TIP3    H231399   6.769   5.976   9.578 -0.0583 -0.7501  0.4548
 2402TIP3   OH231400   6.056   1.156   9.883  0.5838 -0.3892  0.1584
 2402TIP3    H131401   6.112   1.105   9.943 -2.1202 -1.4938  1.9446
 2402TIP3    H231402   6.025   1.091   9.820 -0.6990 -0.4103  0.7818
 2403TIP3   OH231403   4.809   4.861  11.468  0.3321 -0.0028  0.2554
 2403TIP3    H131404   4.878   4.800  11.495  1.3085  0.7635 -0.4357
 2403TIP3    H231405   4.842   4.900  11.387  0.4891  2.6730  1.5319
 2404TIP3   OH231406   2.967   1.833   9.585  0.0668  0.2960  0.0137
 2404TIP3    H131407   2.954   1.749   9.540 -0.9925  0.7891 -0.6337
 2404TIP3    H231408   2.936   1.817   9.674 -1.2057  0.2911 -0.4108
 2405TIP3   OH231409   4.377   0.705  10.333  0.4565  0.1748  0.0058
 2405TIP3    H131410   4.445   0.649  10.297  0.9659 -0.5559  1.9860
 2405TIP3    H231411   4.420   0.790  10.344  0.6356  0.0874 -0.0111
 2406TIP3   OH231412   5.830   4.548  11.445 -0.2344  0.2801  0.8989
 2406TIP3    H131413   5.781   4.471  11.419  2.3470 -1.7070  1.4493
 2406TIP3    H231414   5.820   4.609  11.372 -3.5717  0.1467  1.0990
 2407TIP3   OH231415   2.392   0.262   9.017  0.0673 -0.2673 -0.1383
 2407TIP3    H131416   2.391   0.357   9.005  2.6839 -0.4257 -2.9298
 2407TIP3    H231417   2.339   0.228   8.945  1.3402 -0.9347 -0.8016
 2408TIP3   OH231418   0.653   4.649   9.742  0.3288  0.9728 -0.3531
 2408TIP3    H131419   0.631   4.698   9.663 -2.5401 -0.1278 -0.3604
 2408TIP3    H231420   0.568   4.630   9.783  1.6696  1.2902  2.9089
 2409TIP3   OH231421   0.569   5.425  11.630  0.9543 -0.0253 -0.0954
 2409TIP3    H131422   0.585   5.476  11.709  2.0627  1.7151 -1.3693
 2409TIP3    H231423   0.608   5.339  11.648 -0.0317 -0.1490  1.7070
 2410TIP3   OH231424   5.487   3.791   9.455 -0.4978  0.0899 -0.2256
 2410TIP3    H131425   5.441   3.857   9.403 -1.2878 -1.4987 -1.6111
 2410TIP3    H231426   5.427   3.773   9.528 -0.2430  0.9087  0.2098
 2411TIP3   OH231427   1.132   2.739  11.360  0.2228  0.4721 -0.0359
 2411TIP3    H131428   1.163   2.806  11.422 -0.3499  0.8677 -0.1712
 2411TIP3    H231429   1.089   2.674  11.416  1.6926 -0.3410  0.2098
 2412TIP3   OH231430   3.988   2.901  10.180  0.0423  0.2024  0.2566
 2412TIP3    H131431   4.075   2.931  10.152  0.4749  0.7949  2.0731
 2412TIP3    H231432   3.935   2.981  10.180  0.4864  0.5546  2.5559
 2413TIP3   OH231433   6.031   0.977   8.672 -0.2318 -0.1553  0.0047
 2413TIP3    H131434   6.108   0.969   8.729  0.3097 -2.8552 -0.9336
 2413TIP3    H231435   5.959   0.941   8.724 -0.3694  0.1827  0.0495
 2414TIP3   OH231436   4.746   2.968   9.858 -0.0165 -0.3346 -0.2074
 2414TIP3    H131437   4.687   2.976   9.784  0.1481 -1.0381 -0.4239
 2414TIP3    H231438   4.775   3.057   9.875 -0.0184 -0.1681 -1.0236
 2415TIP3   OH231439   0.153   2.551   9.244  0.2055 -0.6646  0.0113
 2415TIP3    H131440   0.177   2.484   9.181  0.9281 -1.8447  1.4696
 2415TIP3    H231441   0.070   2.520   9.281 -0.6630  0.4551 -0.9260
 2416TIP3   OH231442   0.151   3.223   8.936 -0.5025  0.5605 -0.0596
 2416TIP3    H131443   0.225   3.276   8.965 -0.2988  0.0285  0.4064
 2416TIP3    H231444   0.184   3.133   8.937 -1.1437  0.3206  0.1241
 2417TIP3   OH231445   2.240   3.975  11.244 -0.5014  0.3827  0.3789
 2417TIP3    H131446   2.266   4.054  11.291 -1.4710  0.2364  1.1843
 2417TIP3    H231447   2.149   3.992  11.217  0.0108  0.4760 -1.4865
 2418TIP3   OH231448   2.952   3.179   9.713  0.4043 -0.8176 -0.1040
 2418TIP3    H131449   2.936   3.194   9.619  0.5135 -1.2703 -0.1977
 2418TIP3    H231450   2.951   3.084   9.722  0.6056 -0.7795  0.3213
 2419TIP3   OH231451   1.808   2.578   9.860  0.0084  0.3661  0.0522
 2419TIP3    H131452   1.782   2.509   9.800 -0.8440  0.5972  0.1457
 2419TIP3    H231453   1.814   2.536   9.946 -1.2864  0.5565  0.2530
 2420TIP3   OH231454   2.149   6.312  11.356 -0.5925 -0.1519 -0.1607
 2420TIP3    H131455   2.214   6.325  11.425 -1.3975 -0.8936  0.7664
 2420TIP3    H231456   2.136   6.217  11.353 -2.5399  0.0376  0.5633
 2421TIP3   OH231457   0.855   1.562   8.635  0.1271 -0.7072  0.4292
 2421TIP3    H131458   0.932   1.524   8.678  0.4898  0.0463  0.4775
 2421TIP3    H231459   0.826   1.630   8.696  0.6699  0.4066 -0.5023
 2422TIP3   OH231460   6.454   2.171  10.459  0.3364  0.2661  0.3707
 2422TIP3    H131461   6.475   2.106  10.525 -0.2051 -0.1072  0.1873
 2422TIP3    H231462   6.434   2.250  10.509  1.5161  0.4463  0.5672
 2423TIP3   OH231463   2.264   1.524   9.651 -0.8779  0.1882 -0.1411
 2423TIP3    H131464   2.331   1.529   9.719 -1.4348 -0.2429  0.4489
 2423TIP3    H231465   2.305   1.564   9.575  0.5805 -1.3620 -0.2295
 2424TIP3   OH231466   1.612   4.606  10.605  0.4488 -0.6253  0.2175
 2424TIP3    H131467   1.555   4.643  10.672 -0.5076 -1.3859 -0.1620
 2424TIP3    H231468   1.620   4.513  10.628  0.0253 -0.9184 -0.7644
 2425TIP3   OH231469   5.326   3.227   9.908  0.1854  0.3118  0.0022
 2425TIP3    H131470   5.366   3.294   9.965  0.9675  0.3890 -0.6261
 2425TIP3    H231471   5.312   3.152   9.966  2.5524 -0.2319 -0.0266
 2426TIP3   OH231472   3.328   3.897   8.601 -0.1620  0.2841 -0.2423
 2426TIP3    H131473   3.377   3.815   8.595 -0.1421  0.3182 -0.5574
 2426TIP3    H231474   3.395   3.964   8.615 -0.2590  0.1304  1.0430
 2427TIP3   OH231475   4.970   1.309  10.019 -0.4237 -0.4270  0.0831
 2427TIP3    H131476   4.996   1.241  10.081  1.0444 -1.9259 -2.0235
 2427TIP3    H231477   5.053   1.343   9.986 -1.0846  3.0617  1.6134
 2428TIP3   OH231478   6.395   3.972   9.294 -0.3956  0.1174 -0.2238
 2428TIP3    H131479   6.449   4.016   9.359 -2.4121 -0.7239  2.1379
 2428TIP3    H231480   6.370   4.041   9.232  3.1990  0.5597 -1.4532
 2429TIP3   OH231481   5.721   3.440  10.992  0.3348  0.5909  0.1026
 2429TIP3    H131482   5.693   3.370  10.932 -0.5939  1.5760 -0.6378
 2429TIP3    H231483   5.695   3.521  10.949  1.5108  1.4239  0.8979
 2430TIP3   OH231484   3.192   4.149  10.775 -0.0467 -0.0116  0.0567
 2430TIP3    H131485   3.121   4.113  10.828  0.5798 -3.6462 -1.2623
 2430TIP3    H231486   3.240   4.206  10.835 -2.2189  0.0551  1.8723
 2431TIP3   OH231487   0.992   3.855  11.979  0.0635 -0.3647  0.6027
 2431TIP3    H131488   1.083   3.854  12.008  0.0598  2.1013  0.9178
 2431TIP3    H231489   0.964   3.947  11.990 -1.7819 -0.5844 -1.5903
 2432TIP3   OH231490   1.012   6.237  11.608 -1.2277 -0.2539 -0.2072
 2432TIP3    H131491   1.026   6.318  11.559  1.0260 -0.1495  0.4583
 2432TIP3    H231492   1.016   6.265  11.700 -1.7207 -0.9354  0.0197
 2433TIP3   OH231493   2.614   0.185  11.067  0.2460 -0.1831  0.4112
 2433TIP3    H131494   2.656   0.271  11.062 -0.0811 -0.0843 -1.9203
 2433TIP3    H231495   2.525   0.200  11.035  0.8149 -1.7063 -2.1751
 2434TIP3   OH231496   6.553   5.302  10.716  0.3484 -0.0138 -0.4394
 2434TIP3    H131497   6.581   5.356  10.642  0.1694  1.7847  0.7356
 2434TIP3    H231498   6.496   5.236  10.678 -1.1925  1.9519 -1.7244
 2435TIP3   OH231499   2.705   2.574  12.108  0.2835 -0.5350 -0.2770
 2435TIP3    H131500   2.720   2.668  12.116  1.1504 -0.6888 -0.0266
 2435TIP3    H231501   2.771   2.544  12.046 -1.4236 -0.6409 -2.1608
 2436TIP3   OH231502   0.638   1.060  11.844  0.3375 -0.6119  0.3376
 2436TIP3    H131503   0.580   1.006  11.790  1.0105  1.5403 -2.7613
 2436TIP3    H231504   0.587   1.140  11.861  1.4581  0.2845 -0.3598
 2437TIP3   OH231505   2.507   0.752  10.084 -0.3832 -0.4780 -0.2375
 2437TIP3    H131506   2.582   0.693  10.085  0.3146  0.4050  0.5241
 2437TIP3    H231507   2.450   0.720  10.153  0.9117  0.8422  1.5495
 2438TIP3   OH231508   5.375   0.799   9.130  1.1873 -0.0193  0.1836
 2438TIP3    H131509   5.381   0.707   9.105 -0.7873  0.2632 -1.6322
 2438TIP3    H231510   5.313   0.800   9.203  1.6783 -0.1613  0.6118
 2439TIP3   OH231511   4.397   6.159   9.286  0.5750 -0.1144  0.0963
 2439TIP3    H131512   4.307   6.127   9.300  0.6109 -1.3530 -2.0335
 2439TIP3    H231513   4.449   6.112   9.351 -0.3027  0.6577  1.3887
 2440TIP3   OH231514   1.654   0.828   9.711  0.1665 -0.4987 -0.6422
 2440TIP3    H131515   1.569   0.789   9.732 -0.7746  1.9774  0.4553
 2440TIP3    H231516   1.652   0.839   9.616 -0.2375 -1.5192 -0.7653
 2441TIP3   OH231517   0.804   2.496  11.704  0.3362 -0.5745  0.1595
 2441TIP3    H131518   0.790   2.427  11.769  0.7148 -0.6110  0.2075
 2441TIP3    H231519   0.716   2.526  11.681  0.2109 -0.2818  0.9874
 2442TIP3   OH231520   1.507   0.830  10.334  0.0020 -0.6932  0.4536
 2442TIP3    H131521   1.414   0.851  10.328  0.0459 -0.8190 -1.1094
 2442TIP3    H231522   1.511   0.760  10.399 -1.0974 -1.1824  0.0277
 2443TIP3   OH231523   6.704   4.689  10.347 -0.2214  0.2145  0.4196
 2443TIP3    H131524   6.707   4.596  10.323  1.9296  0.0886  0.9422
 2443TIP3    H231525   6.612   4.705  10.367 -1.0637 -1.1770 -1.9428
 2444TIP3   OH231526   3.066   0.830   9.907  0.7296  0.3660 -0.5384
 2444TIP3    H131527   3.043   0.737   9.910 -0.2201  0.6032  1.8166
 2444TIP3    H231528   3.157   0.833   9.936  1.2120  0.0963 -1.9492
 2445TIP3   OH231529   4.101   4.054  11.087 -0.0768 -0.1355  0.9605
 2445TIP3    H131530   4.090   3.974  11.138  0.5268 -1.7159 -1.2580
 2445TIP3    H231531   4.190   4.050  11.053 -1.0209 -0.2290 -1.8154
 2446TIP3   OH231532   4.014   1.273   9.929 -0.1810 -0.0577 -0.2201
 2446TIP3    H131533   3.973   1.262   9.844 -0.2550 -0.1933 -0.1676
 2446TIP3    H231534   3.980   1.356   9.963 -0.5669 -0.2699 -0.0877
 2447TIP3   OH231535   2.271   4.419  10.692 -0.4044  0.0399 -0.2896
 2447TIP3    H131536   2.299   4.366  10.617  0.4674 -1.2477  0.8846
 2447TIP3    H231537   2.177   4.404  10.699 -0.6291  0.7383 -1.5200
 2448TIP3   OH231538   0.405   6.492  11.554 -0.7637 -0.0975  0.2203
 2448TIP3    H131539   0.331   6.543  11.521  0.5145  1.6916 -0.0563
 2448TIP3    H231540   0.437   6.543  11.629  1.4141  0.3360 -0.9230
 2449TIP3   OH231541   1.924   0.031  10.888  0.2992 -0.5502  0.3339
 2449TIP3    H131542   1.873   0.026  10.807 -0.3837 -0.5486  0.7546
 2449TIP3    H231543   1.956  -0.058  10.901  0.3507 -0.5676  0.1021
 2450TIP3   OH231544   1.707   5.276  10.528 -0.2310 -0.5570 -0.1386
 2450TIP3    H131545   1.693   5.254  10.620 -0.8661  1.8217  0.4025
 2450TIP3    H231546   1.633   5.333  10.505  0.9842  0.5450 -1.5070
 2451TIP3   OH231547   5.349   2.520  11.998 -0.0888  0.5697  0.7359
 2451TIP3    H131548   5.311   2.603  12.025 -2.1237 -0.5091  1.3982
 2451TIP3    H231549   5.281   2.477  11.947  0.6889 -0.9385  0.8948
 2452TIP3   OH231550   5.081   0.740  10.858 -0.7534  0.7747 -0.5183
 2452TIP3    H131551   5.073   0.713  10.949 -0.3110  1.1318 -0.3708
 2452TIP3    H231552   4.994   0.723  10.821 -0.7622  0.0774 -0.1876
 2453TIP3   OH231553   4.674   5.372  10.028  0.3369 -0.1811  0.1763
 2453TIP3    H131554   4.671   5.291   9.976 -0.2800 -0.2291  0.2861
 2453TIP3    H231555   4.665   5.442   9.964 -0.9260 -0.2543  0.2583
 2454TIP3   OH231556   0.273   3.715  11.033 -0.0075 -0.0439 -0.2668
 2454TIP3    H131557   0.184   3.751  11.038  0.5563  1.2959  1.0358
 2454TIP3    H231558   0.269   3.634  11.084 -0.5436 -0.1501 -0.4698
 2455TIP3   OH231559   5.463   4.679   9.516 -0.1221  0.2960  0.1550
 2455TIP3    H131560   5.426   4.678   9.604  0.1106  0.5517  0.2569
 2455TIP3    H231561   5.404   4.735   9.466  0.8070  1.7316  0.6226
 2456TIP3   OH231562   6.438   0.745  10.245 -0.0905 -0.4570 -0.3030
 2456TIP3    H131563   6.483   0.675  10.197  1.4223  0.7609 -0.7349
 2456TIP3    H231564   6.451   0.724  10.337  0.7079 -0.5431 -0.4277
 2457TIP3   OH231565   3.061   1.237  11.601 -0.2263 -0.0769 -0.1547
 2457TIP3    H131566   3.066   1.162  11.660 -2.0734  0.9903  1.4624
 2457TIP3    H231567   3.108   1.307  11.647  0.5132  0.0993 -1.1407
 2458TIP3   OH231568   1.046   3.727  10.674  0.8657 -0.0885 -0.3227
 2458TIP3    H131569   1.011   3.646  10.710 -0.1827  1.0066  1.2372
 2458TIP3    H231570   1.031   3.720  10.579  1.4296 -1.9708 -0.3153
 2459TIP3   OH231571   4.902   6.607   9.464  0.7547 -0.3062 -0.7199
 2459TIP3    H131572   4.935   6.542   9.526  1.6639 -1.2150 -2.1025
 2459TIP3    H231573   4.879   6.557   9.386 -2.5635  0.4854 -0.3883
 2460TIP3   OH231574   1.812   3.521   8.939  0.1977 -0.0250  0.3364
 2460TIP3    H131575   1.791   3.509   8.847  2.3357 -0.9438 -0.0885
 2460TIP3    H231576   1.898   3.562   8.939 -0.7905  2.2570  1.9583
 2461TIP3   OH231577   5.007   0.071   9.622  0.2576  0.1035  0.6039
 2461TIP3    H131578   4.926   0.114   9.649 -0.0001  0.8229 -1.1967
 2461TIP3    H231579   4.980   0.005   9.559  0.9564 -0.5687  0.9955
 2462TIP3   OH231580   1.974   4.148  10.936  0.5867  0.4841 -0.1682
 2462TIP3    H131581   1.986   4.134  11.030 -1.9998  0.2996  0.2069
 2462TIP3    H231582   2.001   4.065  10.896 -1.2985 -0.6376  0.7520
 2463TIP3   OH231583   6.250   5.049  11.697  0.1882 -0.7340 -0.0768
 2463TIP3    H131584   6.186   5.082  11.634 -1.2229  0.6335  1.9387
 2463TIP3    H231585   6.200   5.036  11.778  1.8236 -2.8402  0.6918
 2464TIP3   OH231586   4.213   3.197  11.339  0.0005  0.1212  0.5440
 2464TIP3    H131587   4.197   3.185  11.245  0.1852 -2.7866  0.7759
 2464TIP3    H231588   4.132   3.235  11.373 -0.0122  1.3553 -0.7914
 2465TIP3   OH231589   4.253   2.307   9.242 -0.0790  0.0341 -0.4912
 2465TIP3    H131590   4.227   2.398   9.225  0.8628  0.5271  0.5722
 2465TIP3    H231591   4.327   2.292   9.184  0.1750  0.1649 -0.2027
 2466TIP3   OH231592   3.577   0.037   9.114  0.1740  0.4747  0.2314
 2466TIP3    H131593   3.661   0.072   9.086  0.4431  1.0141  1.6275
 2466TIP3    H231594   3.599  -0.034   9.175 -0.3827 -0.2902 -0.4369
 2467TIP3   OH231595   5.211   4.305  11.048 -0.2065 -0.3885  0.4129
 2467TIP3    H131596   5.278   4.264  11.104 -0.9103 -0.1644  1.4452
 2467TIP3    H231597   5.260   4.337  10.973  1.0312  0.6169  1.5818
 2468TIP3   OH231598   5.949   1.752  10.432  0.2946 -0.0804 -0.0854
 2468TIP3    H131599   6.011   1.795  10.490  1.9433 -0.7184 -1.2936
 2468TIP3    H231600   5.963   1.659  10.446 -0.2464 -0.2382 -0.5451
 2469TIP3   OH231601   2.089   1.739  11.351 -0.0338 -0.6848 -0.0273
 2469TIP3    H131602   2.055   1.785  11.428 -1.3625 -0.1769 -0.8854
 2469TIP3    H231603   2.147   1.671  11.387  0.9635  0.8091  1.3273
 2470TIP3   OH231604   2.822   4.209   9.447  0.0082  0.3462  0.3094
 2470TIP3    H131605   2.749   4.149   9.461  0.1293 -0.6419 -2.5905
 2470TIP3    H231606   2.899   4.152   9.439  0.4646  1.0444 -0.4393
 2471TIP3   OH231607   3.192   5.511  11.346  0.0919 -0.0991 -0.7524
 2471TIP3    H131608   3.258   5.580  11.339  1.1832 -0.7671  1.8446
 2471TIP3    H231609   3.138   5.536  11.421 -0.3510 -1.3540 -0.6255
 2472TIP3   OH231610   2.793   1.265  11.525  0.0052 -0.1500  0.0333
 2472TIP3    H131611   2.799   1.269  11.430 -1.0585  0.1825 -0.0314
 2472TIP3    H231612   2.879   1.232  11.553  0.6445  0.6086 -0.9668
 2473TIP3   OH231613   0.512   6.316   9.845 -0.0528 -0.1311  0.3029
 2473TIP3    H131614   0.430   6.365   9.853  1.0214  1.9663 -0.7930
 2473TIP3    H231615   0.571   6.358   9.908  1.3117  0.9876 -1.6426
 2474TIP3   OH231616   6.155   1.804   9.123  0.3540  0.0229  0.1879
 2474TIP3    H131617   6.114   1.791   9.209  1.0209  0.2429  0.5431
 2474TIP3    H231618   6.083   1.792   9.061  0.0198 -0.9226  0.7288
 2475TIP3   OH231619   1.708   1.912  10.806 -0.2435 -0.1471  0.2663
 2475TIP3    H131620   1.767   1.856  10.856 -0.0532  1.8159  2.4048
 2475TIP3    H231621   1.646   1.945  10.871 -0.5065  1.8814 -0.9504
 2476TIP3   OH231622   1.295   2.933  11.701  0.2464  1.1979  0.0734
 2476TIP3    H131623   1.255   3.002  11.754  0.3074  1.9736 -0.8544
 2476TIP3    H231624   1.388   2.954  11.701  0.2728  1.0869 -0.1696
 2477TIP3   OH231625   4.740   4.654   9.299 -0.1918 -0.3588 -0.3658
 2477TIP3    H131626   4.661   4.691   9.260 -2.4434 -3.9583  0.3363
 2477TIP3    H231627   4.785   4.612   9.225  2.1686  2.9267 -1.0871
 2478TIP3   OH231628   6.340   0.219  10.116  0.4827 -0.0644 -0.4868
 2478TIP3    H131629   6.408   0.201  10.052 -1.0574 -0.4115 -2.1166
 2478TIP3    H231630   6.272   0.154  10.098 -0.4333  0.4655  0.8572
 2479TIP3   OH231631   5.540   5.411  10.473  0.1630  0.1475 -0.1759
 2479TIP3    H131632   5.626   5.410  10.514  0.4250  0.1259 -0.7247
 2479TIP3    H231633   5.507   5.500  10.488 -0.0707 -0.0819  0.7446
 2480TIP3   OH231634   1.060   5.228  10.921 -0.2432  0.0927 -0.7576
 2480TIP3    H131635   1.076   5.204  10.830 -1.5865  0.0451 -0.9937
 2480TIP3    H231636   0.965   5.222  10.932 -0.1608  0.6709  0.4868
 2481TIP3   OH231637   5.654   6.776   9.228 -0.2563 -0.0746 -0.7316
 2481TIP3    H131638   5.652   6.793   9.323 -1.0484 -1.8910 -0.3803
 2481TIP3    H231639   5.725   6.712   9.218  0.9070  1.2976 -1.6284
 2482TIP3   OH231640   1.283   2.861   9.426 -0.0026 -0.1791  0.0666
 2482TIP3    H131641   1.305   2.813   9.507 -0.5743  1.3844  1.1997
 2482TIP3    H231642   1.188   2.851   9.417 -0.0901  0.4908  0.1711
 2483TIP3   OH231643   4.031   5.755   9.944 -0.2314  0.4348 -0.3579
 2483TIP3    H131644   4.052   5.693  10.014  2.6316  1.0179 -0.5538
 2483TIP3    H231645   4.051   5.709   9.863  1.5100  1.3605 -0.5196
 2484TIP3   OH231646   1.426   5.064  11.493  1.0862  0.3847 -0.1744
 2484TIP3    H131647   1.452   5.084  11.583 -0.8700 -0.6687  0.6833
 2484TIP3    H231648   1.456   4.974  11.479 -0.3902 -0.1951  0.1928
 2485TIP3   OH231649   3.548   4.222  11.602  0.3137  0.2547 -0.3449
 2485TIP3    H131650   3.506   4.271  11.532  1.4459 -0.4376 -1.5504
 2485TIP3    H231651   3.641   4.225  11.582  0.6934  0.2232  1.2633
 2486TIP3   OH231652   4.761   2.178   9.910  0.5735 -0.1185 -0.6439
 2486TIP3    H131653   4.791   2.223   9.830  0.7874  2.1879  0.6472
 2486TIP3    H231654   4.682   2.226   9.935 -0.3580 -1.7919 -0.2634
 2487TIP3   OH231655   3.746   6.432   9.632 -0.5044 -0.4536  0.2549
 2487TIP3    H131656   3.802   6.509   9.624  0.8891 -1.5565 -1.1096
 2487TIP3    H231657   3.697   6.447   9.713  1.6502  0.6380  1.4592
 2488TIP3   OH231658   6.286   5.830   9.942  0.1032  0.1836 -0.2846
 2488TIP3    H131659   6.350   5.893   9.974 -0.0579  0.2033  0.0028
 2488TIP3    H231660   6.214   5.835  10.005 -0.3965  0.5184 -0.8796
 2489TIP3   OH231661   1.755   2.627   9.075  0.4188  0.0900 -0.3343
 2489TIP3    H131662   1.663   2.648   9.061  1.0799  1.9242 -2.6753
 2489TIP3    H231663   1.778   2.674   9.155 -0.4041  0.5955 -0.3776
 2490TIP3   OH231664   1.368   1.470   8.662 -0.0278  0.2272  0.0912
 2490TIP3    H131665   1.368   1.475   8.757 -0.2901 -1.0354  0.1797
 2490TIP3    H231666   1.282   1.502   8.636 -1.1856 -2.2613  0.5262
 2491TIP3   OH231667   1.465   4.408  10.384  0.9622  0.0328 -0.0842
 2491TIP3    H131668   1.413   4.462  10.444  0.2391 -0.8217  0.0877
 2491TIP3    H231669   1.480   4.463  10.308 -1.5918 -0.2037 -0.8406
 2492TIP3   OH231670   6.105   1.913   9.710  0.0634  0.2700 -1.0639
 2492TIP3    H131671   6.143   1.936   9.795 -0.2011  2.2162 -1.4359
 2492TIP3    H231672   6.165   1.848   9.674  0.5889 -0.0212  0.2633
 2493TIP3   OH231673   6.171   2.186  11.696  0.8162 -0.1568 -0.2662
 2493TIP3    H131674   6.101   2.127  11.670  0.7136  0.8017 -2.3932
 2493TIP3    H231675   6.128   2.270  11.709  1.5003  0.4380 -1.5700
 2494TIP3   OH231676   6.319   2.326  11.953 -0.6406  0.4893  0.1209
 2494TIP3    H131677   6.228   2.355  11.951 -0.7124  0.2265 -0.5086
 2494TIP3    H231678   6.314   2.231  11.958 -0.4086  0.4095 -0.9551
 2495TIP3   OH231679   5.658   1.508  10.320 -0.1372  0.6184  0.1746
 2495TIP3    H131680   5.672   1.602  10.335  3.6190 -0.0241  1.7310
 2495TIP3    H231681   5.713   1.488  10.244  1.4724 -0.7347  1.6057
 2496TIP3   OH231682   0.980   1.631  11.347 -0.2802 -0.5684 -0.1396
 2496TIP3    H131683   0.903   1.685  11.369  0.6681  0.2627  1.3099
 2496TIP3    H231684   1.027   1.683  11.281 -1.2218 -1.3490 -1.4736
 2497TIP3   OH231685   3.047   6.525  10.711 -0.0677 -0.1771 -0.1419
 2497TIP3    H131686   3.093   6.545  10.630  0.5721  0.9475  0.4903
 2497TIP3    H231687   2.986   6.455  10.686  0.7510 -0.4856 -1.3756
 2498TIP3   OH231688   6.219   1.244  10.963  0.3778 -0.0117 -0.0192
 2498TIP3    H131689   6.147   1.302  10.938 -0.0556 -0.9966 -1.1792
 2498TIP3    H231690   6.176   1.174  11.012  0.9736  0.9140  1.8957
 2499TIP3   OH231691   6.536   6.183  11.606  0.1220  0.4894  0.4932
 2499TIP3    H131692   6.540   6.276  11.628 -1.0090  0.7689 -0.3638
 2499TIP3    H231693   6.551   6.180  11.511 -1.3680 -0.0274  0.2437
 2500TIP3   OH231694   6.055   1.176   9.027  0.2123 -0.3745 -0.4398
 2500TIP3    H131695   6.038   1.267   9.001  1.3298  0.3755  1.2537
 2500TIP3    H231696   5.988   1.158   9.094  1.5987  0.1538  1.1414
 2501TIP3   OH231697   5.139   4.598  11.154  0.4562 -0.2060  0.2391
 2501TIP3    H131698   5.088   4.656  11.098  0.9681 -1.0273 -1.1069
 2501TIP3    H231699   5.104   4.511  11.136 -0.5009 -0.3493  2.4492
 2502TIP3   OH231700   0.419   3.916  11.553  0.2053 -0.1369  0.4598
 2502TIP3    H131701   0.509   3.910  11.586  0.9224  1.2766 -1.0392
 2502TIP3    H231702   0.419   3.862  11.474 -0.2597 -0.1521  0.4680
 2503TIP3   OH231703   0.585   5.844   9.197 -0.3903 -0.1273  0.4904
 2503TIP3    H131704   0.632   5.882   9.271  2.2698 -1.6294 -0.2704
 2503TIP3    H231705   0.616   5.894   9.121 -1.8704  0.3760  0.1981
 2504TIP3   OH231706   0.391   0.211  11.020 -0.2206  0.4872 -0.0178
 2504TIP3    H131707   0.438   0.128  11.007 -0.8036  0.4954 -2.6363
 2504TIP3    H231708   0.460   0.278  11.017 -0.0446  0.2820 -0.6311
 2505TIP3   OH231709   5.777   6.367  11.668  0.4491 -0.4276  0.5866
 2505TIP3    H131710   5.853   6.344  11.614 -0.0322  0.8967 -0.7502
 2505TIP3    H231711   5.732   6.284  11.683  0.9170 -0.9147 -0.5830
 2506TIP3   OH231712   4.770   1.560  11.144 -0.5339  0.0739  0.0445
 2506TIP3    H131713   4.797   1.478  11.185 -0.3144 -0.4837 -1.1525
 2506TIP3    H231714   4.823   1.564  11.064  0.0088  1.7652  0.4551
 2507TIP3   OH231715   3.301   3.695  12.163 -0.3010 -0.6517 -0.0911
 2507TIP3    H131716   3.227   3.665  12.215 -0.5546  0.0638 -0.0294
 2507TIP3    H231717   3.275   3.677  12.073  0.0330 -1.6601  0.0037
 2508TIP3   OH231718   0.595   3.116   9.056  0.4998 -0.5653 -0.5014
 2508TIP3    H131719   0.541   3.043   9.086  1.7998 -0.7245  1.6827
 2508TIP3    H231720   0.665   3.075   9.006  1.5194 -0.9450  1.1541
 2509TIP3   OH231721   0.231   1.675  10.560  0.4761 -0.8005 -0.1647
 2509TIP3    H131722   0.296   1.690  10.629  1.1282 -0.8490 -0.7580
 2509TIP3    H231723   0.273   1.705  10.480 -0.0945 -1.1854 -0.6198
 2510TIP3   OH231724   6.602   3.658  10.806  0.8115 -0.0851  0.1803
 2510TIP3    H131725   6.529   3.600  10.825  2.1426 -2.4053 -1.2349
 2510TIP3    H231726   6.663   3.645  10.878  1.9160 -1.9881 -1.0071
 2511TIP3   OH231727   3.153   3.710   9.938 -0.3016  0.0054  0.1981
 2511TIP3    H131728   3.134   3.706   9.845  0.5773  0.9063 -0.0425
 2511TIP3    H231729   3.231   3.655   9.949 -0.2330  0.1321  0.3478
 2512TIP3   OH231730   2.473   3.462  10.402  0.0305  0.3008 -0.4488
 2512TIP3    H131731   2.447   3.400  10.334  0.1272  0.6153 -0.7779
 2512TIP3    H231732   2.531   3.523  10.357 -0.9930  1.3220 -0.3976
 2513TIP3   OH231733   2.321   3.327  11.910 -0.5218  0.3589  0.5268
 2513TIP3    H131734   2.372   3.401  11.877  2.0456 -1.2451  0.6803
 2513TIP3    H231735   2.250   3.368  11.959 -1.0377  2.7500 -1.9083
 2514TIP3   OH231736   2.644   1.287   8.495 -0.5193 -0.3649  0.0638
 2514TIP3    H131737   2.657   1.365   8.441  1.3926 -0.1475  0.7637
 2514TIP3    H231738   2.566   1.307   8.547 -0.6586  0.6465 -0.5020
 2515TIP3   OH231739   2.041   1.902  11.590  0.5562 -0.1702  0.3989
 2515TIP3    H131740   2.011   1.992  11.601 -0.9822 -0.7281  1.0698
 2515TIP3    H231741   2.019   1.859  11.672  0.2868 -1.4213 -0.3047
 2516TIP3   OH231742   0.830   4.185  10.697  0.2790  0.7433 -0.8189
 2516TIP3    H131743   0.797   4.175  10.608 -0.6178 -1.4385 -0.3035
 2516TIP3    H231744   0.884   4.108  10.711  1.0248  1.4393  0.2955
 2517TIP3   OH231745   6.480   5.345   9.208 -0.4239  0.4016 -0.4239
 2517TIP3    H131746   6.544   5.353   9.278 -1.6906 -1.5591  1.0769
 2517TIP3    H231747   6.474   5.250   9.192 -1.8338  0.6451 -1.5653
 2518TIP3   OH231748   5.556   5.947   9.009 -0.5727  0.0070 -0.8070
 2518TIP3    H131749   5.505   6.025   8.986  1.4664  1.6592 -0.1519
 2518TIP3    H231750   5.601   5.923   8.928  1.7048  1.9410 -0.2540
 2519TIP3   OH231751   5.002   2.158  10.674 -0.9087 -0.3975  0.4883
 2519TIP3    H131752   4.926   2.138  10.729 -0.4444 -0.1786  1.2326
 2519TIP3    H231753   5.060   2.208  10.732 -0.9319  0.8880 -0.5602
 2520TIP3   OH231754   0.391   1.019   9.889 -0.7463 -1.0569  0.6382
 2520TIP3    H131755   0.336   1.061   9.954 -0.0265  2.1202 -0.5954
 2520TIP3    H231756   0.461   1.082   9.873  0.1290 -2.5155 -1.8498
 2521TIP3   OH231757   2.131   1.563  10.956 -0.1527  0.0414 -0.4870
 2521TIP3    H131758   2.134   1.646  11.004 -2.6963  1.1123 -2.0110
 2521TIP3    H231759   2.071   1.508  11.006 -0.6404  0.1477 -0.9495
 2522TIP3   OH231760   4.139   4.510   9.882 -0.6850  0.4896  0.3989
 2522TIP3    H131761   4.138   4.443   9.815 -0.8977  0.3976  0.4915
 2522TIP3    H231762   4.054   4.553   9.874 -1.1722 -0.2556  1.3358
 2523TIP3   OH231763   2.548   0.669  11.896  0.1014  0.7572 -0.0291
 2523TIP3    H131764   2.573   0.716  11.976  1.0055 -1.1946  0.9027
 2523TIP3    H231765   2.608   0.702  11.829  0.3760  1.3041  0.4777
 2524TIP3   OH231766   6.195   3.708   8.615 -0.2129 -0.4651 -0.1111
 2524TIP3    H131767   6.267   3.647   8.627  0.7164  0.5222 -0.5297
 2524TIP3    H231768   6.147   3.675   8.539 -0.2148 -1.1258  0.1751
 2525TIP3   OH231769   5.217   5.458   9.055 -0.2970 -0.4231  0.1325
 2525TIP3    H131770   5.150   5.495   8.998 -1.4719 -1.2157  0.9429
 2525TIP3    H231771   5.300   5.491   9.020 -1.1795  1.8845  0.0470
 2526TIP3   OH231772   2.319   6.340  11.578 -0.1098  0.8125  0.6098
 2526TIP3    H131773   2.411   6.351  11.600 -0.1706  2.4774  0.1273
 2526TIP3    H231774   2.276   6.417  11.615 -1.3491  0.0158  0.9195
 2527TIP3   OH231775   0.786   4.185   9.364 -1.0359  0.2752 -0.5608
 2527TIP3    H131776   0.746   4.251   9.421 -0.6400  0.2067 -0.1940
 2527TIP3    H231777   0.880   4.190   9.384 -1.0565 -0.7857 -0.1042
 2528TIP3   OH231778   3.363   1.280   9.779 -0.0762  0.0676  0.1527
 2528TIP3    H131779   3.435   1.235   9.823 -1.9029 -1.5101  1.7017
 2528TIP3    H231780   3.341   1.354   9.836 -0.6598 -0.3551  0.4825
 2529TIP3   OH231781   2.566   2.351  12.189 -0.8185  0.0044  0.1446
 2529TIP3    H131782   2.500   2.362  12.121 -2.8867  1.2313  2.2162
 2529TIP3    H231783   2.600   2.440  12.204  0.5480 -0.4429 -0.1250
 2530TIP3   OH231784   2.400   6.782  10.417 -0.1124  0.0929 -0.2451
 2530TIP3    H131785   2.423   6.874  10.409  1.1274 -0.2005 -0.2492
 2530TIP3    H231786   2.334   6.779  10.486 -1.7535  1.2041 -1.6722
 2531TIP3   OH231787   6.037   2.923   9.212 -0.2189  0.0816  0.5049
 2531TIP3    H131788   6.047   2.997   9.152 -0.5390  1.8013  2.4672
 2531TIP3    H231789   5.945   2.926   9.239 -0.2595 -1.1062  0.5532
 2532TIP3   OH231790   1.728   5.432  10.192  0.1193  0.3853  0.4481
 2532TIP3    H131791   1.707   5.515  10.235  1.8134 -0.5732  3.4162
 2532TIP3    H231792   1.817   5.412  10.219  0.3774 -1.6397 -1.5522
 2533TIP3   OH231793   1.459   2.972  10.526  0.7210 -0.5657  0.1547
 2533TIP3    H131794   1.550   2.945  10.537  0.6698 -1.6195 -1.6150
 2533TIP3    H231795   1.461   3.033  10.452 -0.0170 -0.5742  0.1215
 2534TIP3   OH231796   5.132   5.049  10.000  0.1335  0.5673 -0.7658
 2534TIP3    H131797   5.173   5.134   9.984  1.0558 -0.0837 -2.0154
 2534TIP3    H231798   5.195   4.985   9.967 -0.7151 -0.5992 -0.2215
 2535TIP3   OH231799   5.575   4.800   8.603  0.5486 -0.1006 -0.2823
 2535TIP3    H131800   5.567   4.763   8.515  1.0068  0.6411 -0.6484
 2535TIP3    H231801   5.628   4.879   8.591  0.3035  0.2129  0.6033
 2536TIP3   OH231802   4.041   3.276   8.442 -0.3054  0.1200  0.0637
 2536TIP3    H131803   4.000   3.215   8.380  1.3720  0.9367 -1.9838
 2536TIP3    H231804   4.112   3.227   8.482 -0.1043  0.1875 -0.2093
 2537TIP3   OH231805   4.992   3.453   9.412 -0.1221 -0.4809 -0.0411
 2537TIP3    H131806   4.906   3.458   9.453  0.5550  0.9058  1.2952
 2537TIP3    H231807   5.050   3.424   9.482  0.6536 -0.5095 -0.6885
 2538TIP3   OH231808   2.316   0.378   9.351  0.6002 -0.4896  0.4709
 2538TIP3    H131809   2.393   0.392   9.295  0.1417  0.2998  0.0024
 2538TIP3    H231810   2.339   0.306   9.408  1.1489 -1.2207 -0.6507
 2539TIP3   OH231811   1.734   0.151   9.006 -0.0457 -0.1827 -0.3133
 2539TIP3    H131812   1.728   0.200   9.088  0.6094 -0.8964  0.1833
 2539TIP3    H231813   1.647   0.112   8.995 -0.2468  0.2157 -0.1534
 2540TIP3   OH231814   5.361   1.580   8.253 -0.1038 -0.1446  0.0211
 2540TIP3    H131815   5.442   1.532   8.270 -0.3236 -0.2140  0.9335
 2540TIP3    H231816   5.320   1.533   8.180 -1.6518 -3.1210  2.5806
 2541TIP3   OH231817   4.902   4.493  11.858  0.0785 -0.0378 -0.0452
 2541TIP3    H131818   4.985   4.481  11.905 -0.7795 -0.3076  1.4418
 2541TIP3    H231819   4.866   4.405  11.849 -1.0033  0.2595  1.1389
 2542TIP3   OH231820   5.162   1.213   8.985 -0.1642  0.1825 -0.0736
 2542TIP3    H131821   5.086   1.223   9.042  0.2154  0.5128  0.3837
 2542TIP3    H231822   5.126   1.212   8.896 -0.6873  0.4523  0.1334
 2543TIP3   OH231823   3.398   2.366   9.899  0.7640  0.4027  0.0934
 2543TIP3    H131824   3.421   2.389   9.989 -0.5802  0.7474  0.3712
 2543TIP3    H231825   3.303   2.353   9.901  0.8879 -0.8345 -1.0191
 2544TIP3   OH231826   3.488   5.559  11.382 -0.1182 -0.0815  0.7244
 2544TIP3    H131827   3.534   5.636  11.347  1.4050 -0.6708  1.3273
 2544TIP3    H231828   3.526   5.485  11.336 -0.0642 -0.6382  1.6434
 2545TIP3   OH231829   6.754   4.985  10.107 -0.1009 -0.3083  0.0839
 2545TIP3    H131830   6.798   5.018  10.185  1.2592 -1.3197 -0.2025
 2545TIP3    H231831   6.803   5.025  10.034 -1.8215  1.2284 -0.2961
 2546TIP3   OH231832   3.550   5.414   8.892 -0.1891  0.1425  0.3007
 2546TIP3    H131833   3.547   5.491   8.835  0.3997 -1.4888 -2.0892
 2546TIP3    H231834   3.463   5.411   8.932 -0.6079  1.4031 -0.4502
 2547TIP3   OH231835   0.999   3.665  11.781  0.2997 -0.6899  0.6090
 2547TIP3    H131836   0.974   3.714  11.860  3.2559 -0.4014  1.4738
 2547TIP3    H231837   1.072   3.714  11.745  0.1588 -1.8429 -1.3257
 2548TIP3   OH231838   5.803   6.008  10.568 -0.0717  0.4319 -0.3202
 2548TIP3    H131839   5.819   5.918  10.595  1.0160  0.1835 -1.7014
 2548TIP3    H231840   5.717   6.029  10.605 -0.6671 -1.4184 -0.5718
 2549TIP3   OH231841   4.089   0.565  10.013  0.4058 -0.4252  0.0319
 2549TIP3    H131842   4.023   0.508   9.974 -1.7974  1.1675  1.2314
 2549TIP3    H231843   4.126   0.513  10.085 -1.1205 -0.6146  0.7112
 2550TIP3   OH231844   3.979   1.994   9.887  0.6247 -0.1544  0.0411
 2550TIP3    H131845   3.884   2.000   9.878  0.7073  0.2441 -0.5867
 2550TIP3    H231846   4.014   2.050   9.817  1.3090  0.5494  0.9071
 2551TIP3   OH231847   3.664   3.119  11.676  0.0909 -0.3813  0.1722
 2551TIP3    H131848   3.621   3.197  11.710  2.5661  0.8484  0.7214
 2551TIP3    H231849   3.644   3.118  11.583 -0.3099  0.6969  0.2353
 2552TIP3   OH231850   4.940   0.599   9.937  0.0627 -0.0712 -0.1967
 2552TIP3    H131851   4.920   0.672   9.879 -0.4545  1.1133  1.4261
 2552TIP3    H231852   5.018   0.558   9.897 -0.3396  0.6055 -1.7656
 2553TIP3   OH231853   6.638   3.916   8.682 -0.1689 -0.0272 -0.4104
 2553TIP3    H131854   6.579   3.867   8.625  0.4087 -0.6881 -0.4520
 2553TIP3    H231855   6.651   3.858   8.757 -0.3069  0.5079  0.0338
 2554TIP3   OH231856   1.472   6.598   9.989 -0.7612 -0.2080  0.4415
 2554TIP3    H131857   1.535   6.559  10.049 -1.0920 -1.3532  0.0601
 2554TIP3    H231858   1.386   6.575  10.026 -0.9627 -0.3671 -0.1170
 2555TIP3   OH231859   5.982   6.281  11.500 -0.5827  0.0080  0.3004
 2555TIP3    H131860   5.969   6.288  11.405  0.0278  0.3551  0.2351
 2555TIP3    H231861   6.058   6.337  11.517 -1.6070  1.1519  1.2103
 2556TIP3   OH231862   2.587   5.706  10.390 -0.1208 -0.1256  1.5013
 2556TIP3    H131863   2.544   5.677  10.471  1.8094 -2.3120  1.8407
 2556TIP3    H231864   2.559   5.643  10.324 -1.1925  1.2954  0.5347
 2557TIP3   OH231865   2.101   0.234  10.550  0.4552 -0.0756  0.0470
 2557TIP3    H131866   2.132   0.316  10.512 -0.3966  0.0514 -0.4063
 2557TIP3    H231867   2.180   0.189  10.580  0.8541  1.3707  1.2394
 2558TIP3   OH231868   3.526   3.730   8.694  0.0773  0.5161  0.0725
 2558TIP3    H131869   3.482   3.648   8.670 -0.9332  0.8869  0.6119
 2558TIP3    H231870   3.602   3.734   8.635 -0.7008 -0.0502 -1.0148
 2559TIP3   OH231871   6.161   3.689  10.300  0.1201 -0.3135 -0.1655
 2559TIP3    H131872   6.194   3.761  10.353 -0.6286 -1.1299  1.4987
 2559TIP3    H231873   6.239   3.645  10.267  0.5802  1.1413 -1.0844
 2560TIP3   OH231874   6.430   2.109   9.744  0.1647 -0.0314 -0.0616
 2560TIP3    H131875   6.443   2.197   9.709  0.1864 -0.3349 -0.8401
 2560TIP3    H231876   6.353   2.076   9.698  0.8605 -0.8541 -0.6912
 2561TIP3   OH231877   2.783   5.066   8.869  0.2482  0.3221  0.3963
 2561TIP3    H131878   2.726   5.093   8.797 -2.0876  0.9991  2.3687
 2561TIP3    H231879   2.754   4.978   8.891  1.8562 -0.4159 -0.2935
 2562TIP3   OH231880   1.670   5.362   9.672  0.4096 -0.1921 -0.1884
 2562TIP3    H131881   1.729   5.414   9.618  1.0169 -1.6232 -0.9818
 2562TIP3    H231882   1.715   5.355   9.756  1.3377 -1.1425 -0.7392
 2563TIP3   OH231883   4.069   1.964  10.289  0.0502 -0.0524 -0.1587
 2563TIP3    H131884   4.009   1.959  10.363  0.9238  1.0660  0.6747
 2563TIP3    H231885   4.143   2.014  10.323  0.8180 -0.1941 -1.5735
 2564TIP3   OH231886   0.972   0.236   8.660 -0.1927 -0.0710 -0.4739
 2564TIP3    H131887   0.904   0.175   8.686 -0.1333  0.6563  1.5777
 2564TIP3    H231888   1.051   0.203   8.703  0.3669  0.1154 -1.3318
 2565TIP3   OH231889   1.143   6.341  11.229  0.0564  0.1340  0.1952
 2565TIP3    H131890   1.192   6.406  11.180 -0.0113  0.1187  0.1078
 2565TIP3    H231891   1.165   6.359  11.321  0.3628  0.0130  0.1475
 2566TIP3   OH231892   5.720   4.315   9.628 -0.3912 -0.2701 -0.2082
 2566TIP3    H131893   5.738   4.296   9.536 -1.0528  1.3730 -0.7229
 2566TIP3    H231894   5.628   4.342   9.630 -0.1510  0.5616  0.7789
 2567TIP3   OH231895   2.254   1.783  11.118  1.0629 -0.2853 -0.4974
 2567TIP3    H131896   2.202   1.732  11.180  1.7441  0.6758  0.9293
 2567TIP3    H231897   2.311   1.837  11.173  3.2352 -0.9178 -1.9731
 2568TIP3   OH231898   2.290   5.457   9.525  0.6316  0.1847 -0.1071
 2568TIP3    H131899   2.374   5.498   9.543  0.6586  0.0232  0.1401
 2568TIP3    H231900   2.298   5.369   9.562  0.7881 -0.2587 -1.1636
 2569TIP3   OH231901   4.036   6.513  12.044  0.3009 -0.8037 -0.0435
 2569TIP3    H131902   4.068   6.485  12.129 -1.0316 -0.6685  0.5362
 2569TIP3    H231903   4.005   6.433  12.002 -1.3101 -0.5937  0.6427
 2570TIP3   OH231904   4.774   0.168   9.686  0.2698 -0.2590 -0.6123
 2570TIP3    H131905   4.722   0.097   9.651 -0.7828  0.5928 -0.8239
 2570TIP3    H231906   4.712   0.225   9.732  1.2919 -0.2080  0.7997
 2571TIP3   OH231907   2.981   3.016  10.663 -0.2654  0.2981 -0.3381
 2571TIP3    H131908   3.067   3.028  10.701 -0.4696 -0.1105  0.2610
 2571TIP3    H231909   2.997   3.009  10.569 -0.0033  4.4551 -0.8138
 2572TIP3   OH231910   4.895   3.043  10.261  0.1692  0.0696  0.0859
 2572TIP3    H131911   4.926   3.049  10.352  2.3200 -1.4367 -0.4856
 2572TIP3    H231912   4.917   2.954  10.234 -1.2481  0.2043 -1.6545
 2573TIP3   OH231913   6.192   4.263  10.291 -0.2112  0.1596 -0.1833
 2573TIP3    H131914   6.119   4.230  10.343 -0.1953  0.5033  0.0596
 2573TIP3    H231915   6.183   4.358  10.294 -0.0955  0.1913 -0.6457
 2574TIP3   OH231916   3.324   1.724  10.437 -0.2916  0.0921 -0.1820
 2574TIP3    H131917   3.336   1.630  10.450 -0.9410 -0.3103 -2.2382
 2574TIP3    H231918   3.409   1.762  10.463 -0.3523 -0.8964  1.6519
 2575TIP3   OH231919   5.506   4.523  11.033 -0.2803 -0.3022  0.0683
 2575TIP3    H131920   5.515   4.433  11.064  0.6694  0.1096  1.0248
 2575TIP3    H231921   5.590   4.543  10.992  0.4732  0.9591  2.0868
 2576TIP3   OH231922   2.341   3.368   9.866  0.3611  0.5486 -0.8212
 2576TIP3    H131923   2.311   3.287   9.825  0.3751  1.1368 -2.0444
 2576TIP3    H231924   2.273   3.432   9.846  0.4065  0.8766  0.0337
 2577TIP3   OH231925   0.060   6.035  10.292  0.0178 -0.3499  0.0798
 2577TIP3    H131926   0.073   6.029  10.386 -1.3571 -3.0075  0.2023
 2577TIP3    H231927   0.144   6.009  10.254  0.5431  0.6235  0.5359
 2578TIP3   OH231928   3.084   6.039   9.486  0.3212 -0.0188 -0.1065
 2578TIP3    H131929   2.999   6.032   9.530  0.4206 -0.6444 -0.0111
 2578TIP3    H231930   3.117   5.950   9.484  0.1814 -0.0617 -1.7488
 2579TIP3   OH231931   2.054   6.084  11.121  0.0238 -0.0924  0.4094
 2579TIP3    H131932   1.998   6.021  11.077 -1.5221  1.0094  0.7314
 2579TIP3    H231933   2.091   6.137  11.051 -0.1754 -0.1516  0.2589
 2580TIP3   OH231934   1.930   3.267  10.824  0.1633  0.0638 -0.1848
 2580TIP3    H131935   1.997   3.310  10.772 -0.4483  0.0407 -1.0078
 2580TIP3    H231936   1.973   3.249  10.908  1.0656  0.3704 -0.5667
 2581TIP3   OH231937   4.323   5.637  11.452 -0.5287 -0.4476  0.7628
 2581TIP3    H131938   4.393   5.702  11.445 -1.3237  0.3278 -0.4046
 2581TIP3    H231939   4.362   5.565  11.502  0.6485  0.5438  1.3405
 2582TIP3   OH231940   4.882   1.418   9.342 -0.1626 -0.4900 -0.2118
 2582TIP3    H131941   4.819   1.456   9.403  0.4239 -2.4719  1.7648
 2582TIP3    H231942   4.967   1.450   9.371  0.0151 -0.1952 -1.0168
 2583TIP3   OH231943   0.929   4.903   9.921  0.0727 -0.0080  0.0533
 2583TIP3    H131944   0.955   4.812   9.927  0.0241 -0.0238  0.0218
 2583TIP3    H231945   0.834   4.902   9.934  0.1651  0.1133  0.7959
 2584TIP3   OH231946   6.355   5.910   9.380  0.1974  0.2373  0.2597
 2584TIP3    H131947   6.268   5.935   9.350  0.4448 -1.0571 -1.7564
 2584TIP3    H231948   6.396   5.869   9.303  1.6165 -1.6065  1.8881
 2585TIP3   OH231949   4.971   4.452   9.898  0.5345 -0.5670  1.0209
 2585TIP3    H131950   4.991   4.360   9.884 -0.5218 -0.6286 -0.3081
 2585TIP3    H231951   5.020   4.476   9.976  3.5930 -1.3629 -0.4911
 2586TIP3   OH231952   0.950   2.594   9.943 -0.1734 -0.3920 -0.3389
 2586TIP3    H131953   0.928   2.674   9.991 -0.5223 -0.9247  0.4057
 2586TIP3    H231954   1.045   2.594   9.939 -0.1564 -0.1352  0.0062
 2587TIP3   OH231955   5.190   2.116  10.046 -0.4155  0.0052 -0.0316
 2587TIP3    H131956   5.109   2.069  10.064  0.6931 -1.5488  1.3068
 2587TIP3    H231957   5.248   2.051  10.006  1.1261  0.1847  1.7456
 2588TIP3   OH231958   2.193   4.558   9.468  0.7009  0.2904 -0.2972
 2588TIP3    H131959   2.242   4.478   9.452 -0.1962 -0.7029  1.5879
 2588TIP3    H231960   2.209   4.578   9.560 -1.4257  0.6042  0.0509
 2589TIP3   OH231961   0.090   2.079  10.833  0.1413 -0.0229  0.0683
 2589TIP3    H131962   0.185   2.089  10.840 -0.1663  2.3448  2.4637
 2589TIP3    H231963   0.068   2.016  10.902 -0.1353  0.8214  0.7804
 2590TIP3   OH231964   6.660   5.721   9.432 -0.2145  0.5110 -0.0465
 2590TIP3    H131965   6.663   5.809   9.470  0.2275  1.2693 -1.7370
 2590TIP3    H231966   6.748   5.686   9.446 -0.5638  0.0691  1.1675
 2591TIP3   OH231967   5.315   2.309   9.888  0.0476 -0.3116  0.2797
 2591TIP3    H131968   5.405   2.279   9.874  0.7690  1.1894  1.4271
 2591TIP3    H231969   5.275   2.239   9.940  0.2296 -1.4276 -1.0183
 2592TIP3   OH231970   5.696   5.110  11.519 -0.2901  0.5947 -0.1135
 2592TIP3    H131971   5.729   5.045  11.582  0.5018 -1.3042 -2.3283
 2592TIP3    H231972   5.734   5.193  11.548  2.7946 -0.7496  0.1428
 2593TIP3   OH231973   3.107   2.557  10.851  0.3687 -0.8356 -0.0804
 2593TIP3    H131974   3.091   2.471  10.811  1.1600 -0.4319 -1.3014
 2593TIP3    H231975   3.031   2.571  10.908  0.6919 -2.7566  0.8978
 2594TIP3   OH231976   0.118   6.709   9.935  0.4715 -0.0802  0.2683
 2594TIP3    H131977   0.155   6.677  10.017  1.0086 -2.0414 -0.6809
 2594TIP3    H231978   0.183   6.687   9.869 -0.9265 -0.5688 -0.9880
 2595TIP3   OH231979   0.280   5.159   9.955 -0.5043 -0.0819 -0.0574
 2595TIP3    H131980   0.281   5.213   9.876  2.5891 -4.4542 -3.5694
 2595TIP3    H231981   0.201   5.107   9.947 -0.7244  0.1888  0.3335
 2596TIP3   OH231982   4.948   0.132  11.743  0.3157 -0.8345 -0.1178
 2596TIP3    H131983   4.893   0.163  11.671 -0.5248  0.6288  1.0974
 2596TIP3    H231984   4.887   0.118  11.815  1.1856 -1.9539  0.4395
 2597TIP3   OH231985   1.854   5.895  10.428  0.4416  0.4729  0.0549
 2597TIP3    H131986   1.854   5.800  10.418  1.7565  0.0094  3.2749
 2597TIP3    H231987   1.940   5.915  10.466 -0.0699  2.8644  0.1262
 2598TIP3   OH231988   0.431   3.496  11.327  0.3098 -0.3319  0.2643
 2598TIP3    H131989   0.454   3.460  11.412  0.7031 -0.5655  0.0617
 2598TIP3    H231990   0.350   3.450  11.303  0.7343 -0.9940  0.0691
 2599TIP3   OH231991   2.431   5.414  11.079  0.0039 -0.1600  0.3823
 2599TIP3    H131992   2.404   5.502  11.104  1.3792  0.5387 -0.4879
 2599TIP3    H231993   2.511   5.427  11.027 -0.3222 -1.8421 -0.6131
 2600TIP3   OH231994   6.542   1.388  10.340  0.6597 -0.1867  0.1624
 2600TIP3    H131995   6.601   1.463  10.331  0.1523  0.3721  1.3254
 2600TIP3    H231996   6.454   1.426  10.342  0.2314 -1.0166 -1.5463
 2601TIP3   OH231997   5.771   0.366   7.905 -0.6031 -0.1133 -0.4160
 2601TIP3    H131998   5.824   0.444   7.923 -1.2134  0.4224 -0.8927
 2601TIP3    H231999   5.761   0.365   7.810  1.1261 -1.9414 -0.6306
 2602TIP3   OH232000   0.874   5.622   9.646  0.1745 -0.3264  0.6795
 2602TIP3    H132001   0.864   5.548   9.707 -0.3609  1.0364  2.3397
 2602TIP3    H232002   0.895   5.696   9.703  2.0873  0.5460 -1.0746
 2603TIP3   OH232003   5.106   1.233  11.069  0.9681  0.1853  0.1387
 2603TIP3    H132004   5.100   1.179  10.990  1.6028  0.0355  0.1862
 2603TIP3    H232005   5.086   1.321  11.039 -1.4457 -0.2284  0.3015
 2604TIP3   OH232006   5.339   0.812   9.510 -0.2946 -0.3567 -0.3881
 2604TIP3    H132007   5.265   0.777   9.460 -1.0894  0.8924 -0.1339
 2604TIP3    H232008   5.299   0.867   9.577  0.7683 -1.5861  1.3432
 2605TIP3   OH232009   5.685   4.225  10.916  0.1346  0.0929  0.7367
 2605TIP3    H132010   5.608   4.175  10.942  0.0132 -0.6958 -1.0096
 2605TIP3    H232011   5.665   4.256  10.827  0.0289  3.6569  1.8677
 2606TIP3   OH232012   6.010   2.523   9.822  0.0670  0.0851  0.4663
 2606TIP3    H132013   6.104   2.516   9.840  0.1706 -1.2736 -0.4432
 2606TIP3    H232014   5.990   2.616   9.836  1.7187  0.5707 -0.1537
 2607TIP3   OH232015   4.331   1.947  10.438 -0.4290 -0.4556 -0.2444
 2607TIP3    H132016   4.342   1.999  10.359 -2.1907  0.3684 -0.0160
 2607TIP3    H232017   4.407   1.969  10.492 -0.4574  0.8933 -0.6999
 2608TIP3   OH232018   5.495   0.305  11.449  0.5282 -0.3784 -0.3350
 2608TIP3    H132019   5.543   0.225  11.472 -0.6141 -0.8765  0.4420
 2608TIP3    H232020   5.425   0.309  11.514  0.9699  1.6423  0.0822
 2609TIP3   OH232021   5.171   2.917  12.013  0.6301  0.6443 -0.4060
 2609TIP3    H132022   5.091   2.957  12.048 -0.7231 -0.2257 -2.3358
 2609TIP3    H232023   5.221   2.991  11.978  0.5740  1.1651  0.5694
 2610TIP3   OH232024   6.436   0.221  10.477 -0.2543 -0.0458 -0.4737
 2610TIP3    H132025   6.446   0.258  10.565 -2.1526  0.8514 -0.5843
 2610TIP3    H232026   6.519   0.241  10.433  1.4999 -2.1520  1.6110
 2611TIP3   OH232027   2.735   4.553  11.449  0.5745  0.5422  0.3707
 2611TIP3    H132028   2.720   4.609  11.525  0.7832 -0.2321  1.0024
 2611TIP3    H232029   2.824   4.519  11.461  0.4665  0.1101 -0.0140
 2612TIP3   OH232030   4.791   1.670   9.868  0.4248 -0.3119 -0.6074
 2612TIP3    H132031   4.851   1.722   9.814 -1.4598  1.7133 -0.9356
 2612TIP3    H232032   4.828   1.673   9.956  0.6304  1.2894 -0.7151
 2613TIP3   OH232033   0.393   1.959   8.394 -0.0108  0.6850 -0.1970
 2613TIP3    H132034   0.299   1.971   8.381 -0.0388  1.9395  0.9247
 2613TIP3    H232035   0.429   2.047   8.391  1.0565  0.2595 -0.1246
 2614TIP3   OH232036   5.609   5.934   8.758  0.1242  0.2593  0.4835
 2614TIP3    H132037   5.554   5.947   8.681 -1.1448  1.0599  1.4666
 2614TIP3    H232038   5.655   5.852   8.742 -0.9049 -0.1220 -0.6589
 2615TIP3   OH232039   5.385   4.425   9.418 -0.3526  0.2117  0.2081
 2615TIP3    H132040   5.387   4.501   9.476  0.7524 -0.1600  0.6842
 2615TIP3    H232041   5.300   4.384   9.436  0.1642 -0.1692  1.9388
 2616TIP3   OH232042   3.091   0.402  10.082  0.0302  0.1954 -0.1331
 2616TIP3    H132043   3.153   0.447  10.140 -0.6289 -0.8007  1.4143
 2616TIP3    H232044   3.041   0.473  10.042  0.1279  0.9128  0.9601
 2617TIP3   OH232045   4.138   0.886  11.215  0.0598 -0.3947 -0.1696
 2617TIP3    H132046   4.211   0.861  11.272 -0.0763 -1.6904 -0.5198
 2617TIP3    H232047   4.179   0.912  11.133  0.1568 -0.6289 -0.1972
 2618TIP3   OH232048   5.007   1.499   9.601  0.7657 -0.3744 -0.2486
 2618TIP3    H132049   4.947   1.427   9.618  0.6959 -0.2144  0.2093
 2618TIP3    H232050   5.058   1.507   9.682  0.3870  0.4565 -0.0845
 2619TIP3   OH232051   2.751   3.476   9.652 -0.3174  0.4265  0.0589
 2619TIP3    H132052   2.729   3.465   9.745 -1.1134  0.9014 -0.0589
 2619TIP3    H232053   2.773   3.569   9.643  0.2371  0.2784 -0.1348
 2620TIP3   OH232054   4.360   1.415  11.791 -0.0488 -0.6547 -0.3737
 2620TIP3    H132055   4.350   1.343  11.853  1.5319 -0.2077  0.4772
 2620TIP3    H232056   4.281   1.468  11.801 -0.0034 -0.8195  0.9753
 2621TIP3   OH232057   5.654   1.380   9.719 -0.5130  0.0005  0.3641
 2621TIP3    H132058   5.598   1.363   9.795 -0.8059  0.8457  0.3481
 2621TIP3    H232059   5.733   1.421   9.755 -0.0662 -0.8182  0.3429
 2622TIP3   OH232060   1.486   3.273  11.561  0.2067  0.5758 -0.2005
 2622TIP3    H132061   1.463   3.326  11.485 -0.0792  1.1374  0.2665
 2622TIP3    H232062   1.523   3.335  11.624  0.0206  0.2010  0.2902
 2623TIP3   OH232063   1.210   5.011   9.218 -0.5125  0.1601  0.5286
 2623TIP3    H132064   1.292   5.000   9.267 -0.2138  1.2447  0.2969
 2623TIP3    H232065   1.222   4.957   9.139 -0.3361 -0.2775  0.8472
 2624TIP3   OH232066   6.112   3.204   8.073 -0.2334  0.3174 -0.2630
 2624TIP3    H132067   6.206   3.220   8.071  0.0838 -0.8858  1.9118
 2624TIP3    H232068   6.076   3.279   8.120 -0.0889 -0.1523  0.6169
 2625TIP3   OH232069   0.362   2.089  10.848  0.0207  0.1338 -0.2730
 2625TIP3    H132070   0.379   2.005  10.890  0.3193 -0.3712 -1.3670
 2625TIP3    H232071   0.436   2.102  10.788 -0.8782  0.3526 -1.3642
 2626TIP3   OH232072   6.397   4.630   9.640  0.0832  0.1089  0.1657
 2626TIP3    H132073   6.347   4.689   9.585 -0.3782  0.8230  1.3027
 2626TIP3    H232074   6.420   4.683   9.717  1.9480 -0.4225  0.0212
 2627TIP3   OH232075   6.017   3.323  11.518 -0.9235  0.0165  0.5030
 2627TIP3    H132076   6.111   3.316  11.505 -0.9803 -1.0854  0.5983
 2627TIP3    H232077   5.978   3.275  11.445 -1.4954  2.1717 -0.7032
 2628TIP3   OH232078   2.123   1.604   9.975 -0.5968  0.1191 -0.4765
 2628TIP3    H132079   2.105   1.584  10.067 -0.5829 -0.8041 -0.6718
 2628TIP3    H232080   2.207   1.649   9.976  0.4252 -1.7167 -0.2118
 2629TIP3   OH232081   4.831   2.389  10.502 -0.7024  0.0364  0.1317
 2629TIP3    H132082   4.745   2.392  10.461  0.2764 -0.8386 -2.1750
 2629TIP3    H232083   4.844   2.296  10.522 -0.2035  0.1177  0.1860
 2630TIP3   OH232084   4.220   0.324  10.861 -0.6215  0.0903 -0.0611
 2630TIP3    H132085   4.306   0.364  10.873 -0.5939  0.1782 -0.5215
 2630TIP3    H232086   4.211   0.313  10.766 -0.3848 -1.5537  0.0788
 2631TIP3   OH232087   2.679   2.674   9.496  0.3516 -0.4726  0.1937
 2631TIP3    H132088   2.638   2.742   9.444 -1.0292 -0.9610  0.5779
 2631TIP3    H232089   2.691   2.713   9.582 -0.3441 -0.6505  0.3841
 2632TIP3   OH232090   2.449   1.647   9.146  0.0778  0.0767  0.2303
 2632TIP3    H132091   2.527   1.682   9.102 -1.3038  2.9786 -0.1484
 2632TIP3    H232092   2.434   1.563   9.104  1.6076  0.5600 -1.4324
 2633TIP3   OH232093   5.924   3.422  10.080  0.2323 -0.5556 -0.6959
 2633TIP3    H132094   5.879   3.435   9.996  0.6701 -1.2235 -1.0389
 2633TIP3    H232095   5.907   3.503  10.129 -0.2646 -0.2767 -1.3156
 2634TIP3   OH232096   2.502   4.713   9.517  0.0265 -0.5228 -0.1431
 2634TIP3    H132097   2.465   4.697   9.604 -0.3696 -1.1856 -0.4248
 2634TIP3    H232098   2.434   4.760   9.469  1.0230  1.7200  0.5384
 2635TIP3   OH232099   3.301   1.554  11.960  0.8154 -0.5449 -0.0080
 2635TIP3    H132100   3.241   1.576  11.889 -0.2834 -0.3238  0.9662
 2635TIP3    H232101   3.279   1.464  11.984  1.0640 -0.5563  0.1831
 2636TIP3   OH232102   5.035   6.366   9.592 -0.7895 -0.1275  0.0617
 2636TIP3    H132103   5.049   6.307   9.518 -0.6019  0.0748 -0.0660
 2636TIP3    H232104   4.954   6.335   9.633 -1.0544 -0.0598 -0.4020
 2637TIP3   OH232105   1.373   1.609  10.280  0.1865 -0.5169  0.4863
 2637TIP3    H132106   1.419   1.584  10.360  1.7398  1.9969  0.4880
 2637TIP3    H232107   1.419   1.564  10.210 -0.2389 -1.5436  0.8446
 2638TIP3   OH232108   3.143   1.216  10.589 -0.0178 -0.1537  0.2783
 2638TIP3    H132109   3.066   1.260  10.553 -1.0180 -2.4815 -0.6591
 2638TIP3    H232110   3.113   1.181  10.673  0.6390  0.5627  0.8254
 2639TIP3   OH232111   2.562   5.610  10.666  0.0017  0.2195 -0.2548
 2639TIP3    H132112   2.572   5.517  10.689 -1.3680  0.2763  0.7202
 2639TIP3    H232113   2.636   5.653  10.709 -1.0290 -0.0494  1.9265
 2640TIP3   OH232114   1.466   4.717  10.373 -0.6670  0.4442 -0.1282
 2640TIP3    H132115   1.528   4.671  10.429 -0.6973  0.2001 -0.2971
 2640TIP3    H232116   1.505   4.804  10.359 -0.7470  0.5682  0.4169
 2641TIP3   OH232117   4.773   1.616  10.858  0.3043  0.0509  0.0799
 2641TIP3    H132118   4.765   1.604  10.764  2.0936  3.6817 -0.7186
 2641TIP3    H232119   4.710   1.686  10.878 -0.5638 -1.1484  1.7719
 2642TIP3   OH232120   2.729   3.296   9.264  0.3888  0.2397  0.0723
 2642TIP3    H132121   2.651   3.327   9.218 -0.5849 -0.5812  1.1094
 2642TIP3    H232122   2.772   3.237   9.202 -0.3197 -0.0327 -0.1613
 2643TIP3   OH232123   1.053   6.685   8.718 -0.0253 -0.0880 -0.0267
 2643TIP3    H132124   0.969   6.730   8.723  0.2541  0.3632  0.9251
 2643TIP3    H232125   1.114   6.752   8.686 -0.2692 -0.7989 -2.1279
 2644TIP3   OH232126   4.561   6.639  10.786 -0.0367  0.5071  0.0979
 2644TIP3    H132127   4.615   6.656  10.863 -0.5676  0.9203  0.3848
 2644TIP3    H232128   4.472   6.630  10.821 -0.1955  0.1152 -0.3990
 2645TIP3   OH232129   3.937   3.322   8.702 -0.1892 -0.0086 -0.2354
 2645TIP3    H132130   3.988   3.257   8.751 -1.1736 -0.2162  0.5654
 2645TIP3    H232131   3.979   3.327   8.617  1.5145  0.2558  0.5709
 2646TIP3   OH232132   5.559   3.309  10.355  0.3946 -0.0735 -0.7704
 2646TIP3    H132133   5.611   3.280  10.279  1.7735 -0.5013  0.2954
 2646TIP3    H232134   5.470   3.317  10.321  0.7393 -1.4768 -2.1377
 2647TIP3   OH232135   0.555   4.849  10.612  0.4738  0.7063  1.2167
 2647TIP3    H132136   0.469   4.846  10.654 -0.1648 -1.6858 -0.0272
 2647TIP3    H232137   0.537   4.885  10.525  0.2574 -1.5889  0.2236
 2648TIP3   OH232138   4.938   1.013  11.545 -0.7285 -0.1865 -0.2644
 2648TIP3    H132139   4.866   1.054  11.498 -1.5273  0.1819  1.2211
 2648TIP3    H232140   4.929   1.045  11.635  2.5382  1.5902 -0.4055
 2649TIP3   OH232141   2.396   3.531   9.460 -0.2397  0.0018  0.3964
 2649TIP3    H132142   2.393   3.573   9.546 -0.3483 -0.4946  0.6399
 2649TIP3    H232143   2.356   3.446   9.474  0.1370 -0.2551 -0.0510
 2650TIP3   OH232144   4.883   5.712  11.395 -0.3452  0.0127  0.9119
 2650TIP3    H132145   4.857   5.797  11.431 -1.1580 -0.8307  2.4289
 2650TIP3    H232146   4.916   5.733  11.308  0.3837  1.9910  1.5942
 2651TIP3   OH232147   5.085   6.635  11.318 -0.0924  0.2614  0.1524
 2651TIP3    H132148   5.147   6.689  11.367 -0.8245  2.5471 -1.2669
 2651TIP3    H232149   5.007   6.631  11.373  0.3965 -0.4341  0.8095
 2652TIP3   OH232150   0.390   1.090   8.769  0.3038  0.0661  0.9030
 2652TIP3    H132151   0.299   1.073   8.742  0.1683  0.0622  1.3589
 2652TIP3    H232152   0.433   1.119   8.688  0.2090 -1.1220  0.4157
 2653TIP3   OH232153   6.699   4.028   9.306  0.2794 -0.2967  0.2267
 2653TIP3    H132154   6.702   4.123   9.320 -0.4182 -0.2869  0.3705
 2653TIP3    H232155   6.681   4.018   9.213 -1.4530 -0.2328  0.5079
 2654TIP3   OH232156   1.778   0.873  10.255  0.3851  0.4302 -0.3723
 2654TIP3    H132157   1.786   0.868  10.160  0.9436 -1.4123 -0.2699
 2654TIP3    H232158   1.693   0.834  10.274  1.1779 -1.2456 -0.0277
 2655TIP3   OH232159   6.567   1.665  11.782  0.2261  0.2195  0.2279
 2655TIP3    H132160   6.563   1.604  11.708  1.9208  1.2984 -0.8384
 2655TIP3    H232161   6.653   1.649  11.821  2.0075  3.6523 -1.7963
 2656TIP3   OH232162   0.603   0.933  11.273  0.0217  0.2229 -0.1887
 2656TIP3    H132163   0.655   0.853  11.273 -0.7135 -0.2700  0.2789
 2656TIP3    H232164   0.662   1.000  11.309  0.2198 -0.4065  0.6974
 2657TIP3   OH232165   4.274   0.410   9.737 -0.4121  0.6382 -0.7119
 2657TIP3    H132166   4.287   0.414   9.642  1.5800 -1.7911 -0.6503
 2657TIP3    H232167   4.357   0.441   9.774 -0.0816 -1.1603  0.1427
 2658TIP3   OH232168   0.130   0.130   9.029  0.0038  0.4564  0.2009
 2658TIP3    H132169   0.113   0.069   8.957 -0.8208  1.3599 -0.3841
 2658TIP3    H232170   0.109   0.216   8.993  2.3459  1.2742  0.5930
 2659TIP3   OH232171   0.306   4.523  10.310  0.6688 -0.3507 -0.3666
 2659TIP3    H132172   0.241   4.463  10.346  0.6781 -0.1033  0.0724
 2659TIP3    H232173   0.379   4.466  10.285  0.3495 -0.6097 -0.7178
 2660TIP3   OH232174   0.324   0.704  10.675 -0.6393 -0.3705  0.4807
 2660TIP3    H132175   0.389   0.657  10.623 -0.8460 -1.1535  0.9184
 2660TIP3    H232176   0.368   0.785  10.701 -0.1306 -0.5121  0.0739
 2661TIP3   OH232177   6.586   6.767  11.679  0.8483 -0.3458 -0.1327
 2661TIP3    H132178   6.655   6.754  11.745 -0.3714 -0.5864  1.1249
 2661TIP3    H232179   6.578   6.862  11.672 -1.3655 -0.2100  2.6782
 2662TIP3   OH232180   4.951   2.318   9.249 -0.1559 -0.0385 -0.4990
 2662TIP3    H132181   4.883   2.369   9.293  0.2366  0.7161 -0.7495
 2662TIP3    H232182   5.029   2.373   9.253 -0.0205 -0.0967 -1.8426
 2663TIP3   OH232183   6.683   0.150   9.623  0.0289 -0.7266  0.0449
 2663TIP3    H132184   6.736   0.074   9.645 -1.0795 -1.6016 -0.1890
 2663TIP3    H232185   6.625   0.163   9.698  0.4178  0.0911  0.2161
 2664TIP3   OH232186   3.907   1.472  10.723 -0.3083  0.8968  0.0369
 2664TIP3    H132187   4.001   1.468  10.704 -0.4065  0.5348 -0.3888
 2664TIP3    H232188   3.902   1.511  10.810  0.1723  2.0428 -0.4361
 2665TIP3   OH232189   0.182   6.723  11.567 -0.5075 -0.6438 -0.6285
 2665TIP3    H132190   0.206   6.787  11.500  1.3224 -0.0682  0.5256
 2665TIP3    H232191   0.232   6.749  11.645  0.3498 -3.4901 -0.1179
 2666TIP3   OH232192   0.283   0.624  11.558 -0.4767  0.5388 -0.2985
 2666TIP3    H132193   0.350   0.557  11.543 -0.0529  1.0329 -0.6265
 2666TIP3    H232194   0.303   0.693  11.495 -0.5235  1.2645  0.4653
 2667TIP3   OH232195   6.408   4.534  10.651  0.2664  0.3733  0.1787
 2667TIP3    H132196   6.467   4.516  10.578 -1.1592  0.3783 -1.0118
 2667TIP3    H232197   6.440   4.615  10.689  0.0920  1.2414 -1.4648
 2668TIP3   OH232198   3.571   6.197  10.110  0.8207  0.3255  0.3360
 2668TIP3    H132199   3.651   6.150  10.134  0.8963  0.5747  0.5702
 2668TIP3    H232200   3.504   6.160  10.167  0.4662 -0.8696 -0.8020
 2669TIP3   OH232201   5.543   3.711  10.890 -0.8114  0.1139 -0.7221
 2669TIP3    H132202   5.636   3.707  10.869 -0.7239  1.9762 -0.8635
 2669TIP3    H232203   5.499   3.705  10.806 -0.9105 -1.8579 -0.5755
 2670TIP3   OH232204   0.795   3.509  11.669 -0.6169  0.3067 -0.3871
 2670TIP3    H132205   0.752   3.561  11.600  0.2326  0.2557 -0.9761
 2670TIP3    H232206   0.856   3.570  11.710 -1.4894  0.4791  0.6902
 2671TIP3   OH232207   0.968   4.954   9.636  0.0134  0.0303 -0.2563
 2671TIP3    H132208   0.998   5.045   9.637 -0.6958  0.2727  1.5791
 2671TIP3    H232209   0.964   4.928   9.728 -0.8846 -1.4985 -0.6832
 2672TIP3   OH232210   1.577   6.742  11.093  0.8515  0.3315  0.2366
 2672TIP3    H132211   1.629   6.721  11.016  0.8633  1.0860  0.0267
 2672TIP3    H232212   1.487   6.749  11.060  0.4605 -1.7161  0.7281
 2673TIP3   OH232213   1.982   2.485  11.046 -0.3426  0.1011 -0.4226
 2673TIP3    H132214   2.025   2.402  11.026  0.4635  0.6869 -1.2104
 2673TIP3    H232215   1.904   2.461  11.096 -1.2291 -1.3041 -2.3561
 2674TIP3   OH232216   0.787   2.999   8.883 -0.1415  0.1410 -0.0905
 2674TIP3    H132217   0.735   2.945   8.824 -0.0857 -0.0059 -0.0052
 2674TIP3    H232218   0.815   3.073   8.829  1.1615 -0.7454 -0.6886
 2675TIP3   OH232219   6.245   6.056  10.392  0.2520 -0.1362 -0.4353
 2675TIP3    H132220   6.179   6.083  10.456  2.1681 -1.4240  2.3148
 2675TIP3    H232221   6.303   6.131  10.383  0.0591 -0.0024 -0.5699
 2676TIP3   OH232222   6.223   6.071  11.740  0.6130  0.0611 -0.8849
 2676TIP3    H132223   6.259   5.986  11.767 -1.6499 -0.7938 -0.3684
 2676TIP3    H232224   6.242   6.077  11.647 -1.1692 -2.1122 -1.4587
 2677TIP3   OH232225   5.560   4.730   9.910 -0.1515 -0.0296 -0.3958
 2677TIP3    H132226   5.578   4.647   9.956 -1.6091 -0.0706  0.1498
 2677TIP3    H232227   5.632   4.738   9.847  0.4633 -1.3009  0.0981
 2678TIP3   OH232228   2.936   5.388  11.557 -0.0500  0.1300  0.0834
 2678TIP3    H132229   2.939   5.483  11.558 -0.9130  0.1865  1.9000
 2678TIP3    H232230   2.937   5.365  11.464 -0.1404  1.9042 -0.3977
 2679TIP3   OH232231   3.326   0.859  10.008 -0.1447  0.2125  0.4730
 2679TIP3    H132232   3.385   0.855   9.932 -0.2247  0.5769  0.3890
 2679TIP3    H232233   3.359   0.792  10.068 -0.2077 -0.2213  0.0245
 2680TIP3   OH232234   6.383   0.230  11.444  0.0863 -0.0185 -0.0389
 2680TIP3    H132235   6.365   0.321  11.421 -0.6374 -0.7486 -2.7738
 2680TIP3    H232236   6.326   0.212  11.518 -0.8763  1.3467 -0.4102
 2681TIP3   OH232237   2.193   3.747  10.019 -0.0926  0.0766  0.0490
 2681TIP3    H132238   2.118   3.783   9.971  0.4808  0.9815 -0.1937
 2681TIP3    H232239   2.162   3.742  10.110 -0.3803  0.6676 -0.0069
 2682TIP3   OH232240   4.613   2.951  12.129  0.6113  0.6909  0.0022
 2682TIP3    H132241   4.650   3.005  12.059  1.9420 -0.2179 -0.0368
 2682TIP3    H232242   4.678   2.956  12.200  0.0737  0.2866  0.5291
 2683TIP3   OH232243   2.724   1.761  10.509  0.2473  0.1757 -0.5034
 2683TIP3    H132244   2.737   1.698  10.438  0.2426 -0.0177 -0.3331
 2683TIP3    H232245   2.810   1.801  10.520  0.3900 -0.1919 -0.2447
 2684TIP3   OH232246   4.153   0.719   9.412  0.2594 -0.6002  0.8285
 2684TIP3    H132247   4.109   0.801   9.431  0.3746 -0.6128  1.1578
 2684TIP3    H232248   4.232   0.720   9.467  0.9245 -0.3620 -0.0960
 2685TIP3   OH232249   1.939   5.306  10.770  0.2175 -0.3307 -0.1466
 2685TIP3    H132250   1.869   5.251  10.804  0.6699 -2.5463 -2.4980
 2685TIP3    H232251   1.895   5.385  10.739 -0.7852 -0.3597  1.1230
 2686TIP3   OH232252   5.410   2.536  10.225  0.4815 -0.2233 -0.0069
 2686TIP3    H132253   5.451   2.469  10.281 -1.7392 -2.8845 -1.3411
 2686TIP3    H232254   5.424   2.503  10.136 -1.1051  0.8438 -0.6721
 2687TIP3   OH232255   2.219   2.572  10.927 -0.2463 -0.3895 -0.4514
 2687TIP3    H132256   2.241   2.499  10.869 -1.1703 -1.9560  1.0245
 2687TIP3    H232257   2.123   2.569  10.933 -0.2133  0.0990  0.6513
 2688TIP3   OH232258   3.326   5.330  10.584 -0.0407 -0.0681  0.0606
 2688TIP3    H132259   3.410   5.367  10.558  0.2184 -0.3561  0.4756
 2688TIP3    H232260   3.293   5.388  10.652  1.4104 -1.7270  2.3491
 2689TIP3   OH232261   6.727   1.435  10.829 -0.1512  0.5878  0.4003
 2689TIP3    H132262   6.641   1.446  10.870 -0.6984 -0.2812 -0.4815
 2689TIP3    H232263   6.728   1.344  10.799  0.8780  0.7394 -0.0646
 2690TIP3   OH232264   1.488   5.802  11.652 -0.2198  0.1922 -0.4964
 2690TIP3    H132265   1.403   5.846  11.655  0.0218  0.6476  0.0203
 2690TIP3    H232266   1.469   5.710  11.671 -0.6805  0.1493 -1.1353
 2691TIP3   OH232267   3.127   6.471  10.441  0.2048 -0.2005 -0.7787
 2691TIP3    H132268   3.153   6.407  10.508 -1.8831 -0.1169  0.1870
 2691TIP3    H232269   3.205   6.481  10.386  1.6994 -0.9768  1.0740
 2692TIP3   OH232270   3.359   5.086  10.405 -0.0003  0.6576 -0.3100
 2692TIP3    H132271   3.437   5.048  10.365 -0.0162  0.3507 -0.0542
 2692TIP3    H232272   3.394   5.142  10.475 -0.0461 -1.3627  1.4597
 2693TIP3   OH232273   3.807   5.728  11.297 -0.2152  0.9435  0.2005
 2693TIP3    H132274   3.823   5.769  11.212 -1.1386  0.3374 -0.2831
 2693TIP3    H232275   3.779   5.639  11.276 -1.5963  1.1347  1.0760
 2694TIP3   OH232276   5.153   6.097  10.464 -0.3424 -0.3082 -0.2792
 2694TIP3    H132277   5.166   6.081  10.558  1.0003 -1.8713 -0.6924
 2694TIP3    H232278   5.173   6.190  10.454 -3.5320  0.7064  1.4302
 2695TIP3   OH232279   3.728   1.335   9.206 -0.4003  0.2303 -0.2716
 2695TIP3    H132280   3.718   1.409   9.146 -3.8856  0.8502  0.8663
 2695TIP3    H232281   3.649   1.283   9.194  1.0612 -2.3286  0.3737
 2696TIP3   OH232282   3.219   3.017  10.869  0.3961 -0.3668 -0.4377
 2696TIP3    H132283   3.233   2.946  10.807 -1.5022 -0.7378 -0.4948
 2696TIP3    H232284   3.204   2.974  10.953 -0.4484 -0.0437 -0.4107
 2697TIP3   OH232285   3.488   3.693  11.857 -0.4594  0.3712 -0.0937
 2697TIP3    H132286   3.413   3.636  11.876  0.7845 -1.5282 -0.5245
 2697TIP3    H232287   3.519   3.721  11.944 -0.1869 -0.9107  0.2488
 2698TIP3   OH232288   3.706   2.987   9.049  0.2679 -0.1448 -0.4669
 2698TIP3    H132289   3.746   2.923   9.108 -0.8286  0.2549  0.7678
 2698TIP3    H232290   3.657   2.934   8.986 -0.1996 -0.5374  0.2198
 2699TIP3   OH232291   5.179   0.301  10.003 -0.1700 -0.0486 -0.4570
 2699TIP3    H132292   5.189   0.374   9.943  3.0249 -0.2539 -0.3666
 2699TIP3    H232293   5.166   0.225   9.947 -1.2610  0.2629 -0.6483
 2700TIP3   OH232294   3.015   2.264   9.551 -0.2680 -0.2016  0.3365
 2700TIP3    H132295   2.930   2.303   9.568  1.0213  2.7634  0.5743
 2700TIP3    H232296   3.023   2.266   9.455 -1.1633 -2.2908  0.1602
 2701TIP3   OH232297   4.303   4.805   9.797 -0.2018  0.0996  0.0751
 2701TIP3    H132298   4.218   4.781   9.832 -1.1952  4.4627  1.2141
 2701TIP3    H232299   4.283   4.849   9.714  0.6105  2.7828  1.2012
 2702TIP3   OH232300   3.724   3.694   8.521 -0.0002 -0.2160  0.1253
 2702TIP3    H132301   3.773   3.662   8.597  1.3161  1.3968  0.0153
 2702TIP3    H232302   3.765   3.651   8.446 -0.2341 -0.5677  0.1962
 2703TIP3   OH232303   6.062   6.137  10.204 -0.1120  0.5856  0.2725
 2703TIP3    H132304   6.097   6.225  10.212  2.1529 -0.3383  1.5486
 2703TIP3    H232305   6.113   6.085  10.266 -1.1036 -1.7107 -0.7151
 2704TIP3   OH232306   6.116   5.966   9.263  0.0284  0.2552  0.3001
 2704TIP3    H132307   6.088   5.916   9.186  2.6994 -1.0913  0.0809
 2704TIP3    H232308   6.082   6.054   9.248 -1.0753 -0.4194 -1.4925
 2705TIP3   OH232309   2.742   4.741  11.177 -0.0210  0.1290  0.0130
 2705TIP3    H132310   2.754   4.651  11.206  0.0224 -0.8746 -2.8121
 2705TIP3    H232311   2.829   4.781  11.184  0.1960 -0.3808  0.2206
 2706TIP3   OH232312   3.168   4.589  10.210  0.2009  0.6119 -0.6430
 2706TIP3    H132313   3.134   4.602  10.121  1.4894  0.9767 -1.0992
 2706TIP3    H232314   3.143   4.669  10.256  0.4575  0.8952 -0.9843
 2707TIP3   OH232315   3.253   4.713  10.960 -0.1133  0.0191  0.0389
 2707TIP3    H132316   3.202   4.731  10.881  1.2631  2.3134 -0.4299
 2707TIP3    H232317   3.279   4.799  10.992 -0.4500 -0.8426  2.9412
 2708TIP3   OH232318   6.298   1.488  10.357  0.6584 -0.4895  0.0413
 2708TIP3    H132319   6.238   1.417  10.377  0.6904 -0.2589  0.9710
 2708TIP3    H232320   6.268   1.562  10.410  0.7611  0.1310 -0.7415
 2709TIP3   OH232321   3.475   1.235   9.088 -0.6639  0.0842  0.0385
 2709TIP3    H132322   3.438   1.323   9.083 -0.9823 -0.0823 -0.6260
 2709TIP3    H232323   3.443   1.191   9.009  0.0811 -0.4062  0.0029
 2710TIP3   OH232324   3.135   2.363   9.956  0.3822  0.2626  0.5604
 2710TIP3    H132325   3.122   2.268   9.959  0.0643  0.2775 -0.1285
 2710TIP3    H232326   3.065   2.395   9.900  2.0478  0.6042 -1.4671
 2711TIP3   OH232327   6.610   3.996  11.447 -0.2708 -0.1989 -0.1874
 2711TIP3    H132328   6.619   4.082  11.405 -1.8266  0.1514  0.1285
 2711TIP3    H232329   6.533   4.005  11.504 -0.8302 -1.9695 -0.5959
 2712TIP3   OH232330   1.497   0.773   8.213  0.0247  0.2054 -0.0527
 2712TIP3    H132331   1.481   0.717   8.137  1.3467  1.4277 -1.3070
 2712TIP3    H232332   1.470   0.860   8.183 -0.3482  0.5547  1.2416
 2713TIP3   OH232333   1.680   2.715  11.401 -0.1723  0.2482  0.4839
 2713TIP3    H132334   1.773   2.699  11.418 -0.0987 -0.0400 -0.1731
 2713TIP3    H232335   1.640   2.720  11.488  0.3193 -0.4728  0.7542
 2714TIP3   OH232336   4.010   0.135  11.293  0.7894  0.5739  0.4113
 2714TIP3    H132337   3.932   0.185  11.270  1.2221  0.5581 -1.2357
 2714TIP3    H232338   3.977   0.053  11.329  0.0658  1.1182  1.0080
 2715TIP3   OH232339   2.699   4.195  11.709 -0.0936 -0.0522  0.1715
 2715TIP3    H132340   2.730   4.285  11.701  0.3294 -0.1354  0.8112
 2715TIP3    H232341   2.712   4.157  11.622 -0.0073  0.4158 -0.0246
 2716TIP3   OH232342   2.505   6.723   9.615  0.2673  0.4641  0.5697
 2716TIP3    H132343   2.493   6.655   9.549 -0.3888  3.0682 -2.2620
 2716TIP3    H232344   2.600   6.729   9.627  0.5448  0.9887 -1.4737
 2717TIP3   OH232345   5.998   5.693  11.135  0.1530  0.3287 -0.4210
 2717TIP3    H132346   6.073   5.746  11.108  0.3814  0.6478  0.8011
 2717TIP3    H232347   5.922   5.747  11.116  0.3359  0.7177 -0.0586
 2718TIP3   OH232348   5.871   1.792   9.839  0.6919  0.1596  0.1311
 2718TIP3    H132349   5.950   1.830   9.800  0.3491 -0.3570 -1.1522
 2718TIP3    H232350   5.880   1.808   9.933  1.4295  1.7413 -0.1675
 2719TIP3   OH232351   5.547   3.811  11.406  0.1839  0.3362 -0.4280
 2719TIP3    H132352   5.630   3.797  11.360  0.5416  0.7289  0.0858
 2719TIP3    H232353   5.564   3.784  11.496  0.2507  1.9506  0.0734
 2720TIP3   OH232354   4.684   5.999   9.141  0.2643  0.4152 -0.0434
 2720TIP3    H132355   4.676   6.072   9.202  1.3127  0.9200 -0.5013
 2720TIP3    H232356   4.610   6.010   9.081  1.3646  2.1257 -1.1664
 2721TIP3   OH232357   0.894   4.161  10.131  0.5581  0.2703  0.0550
 2721TIP3    H132358   0.893   4.223  10.204  0.1778  1.1053 -0.6364
 2721TIP3    H232359   0.956   4.093  10.157  0.0074  0.2519  1.3964
 2722TIP3   OH232360   2.480   5.630  11.538  0.1300 -0.6581  0.3431
 2722TIP3    H132361   2.548   5.683  11.580 -0.5460  0.1110  0.4835
 2722TIP3    H232362   2.528   5.571  11.479  0.8181  1.2405 -1.0739
 2723TIP3   OH232363   4.234   2.687   8.840  0.7435 -0.2667 -0.8570
 2723TIP3    H132364   4.307   2.671   8.900  0.0046  0.6899  0.3525
 2723TIP3    H232365   4.260   2.765   8.791  0.0864  0.7774  0.3927
 2724TIP3   OH232366   0.204   6.398   9.257 -0.3170 -0.0604 -0.7224
 2724TIP3    H132367   0.253   6.468   9.300 -1.5424  0.1446  0.4338
 2724TIP3    H232368   0.211   6.417   9.164 -2.6551  3.1447 -0.4509
 2725TIP3   OH232369   4.778   2.947   9.224  0.1142 -0.2582 -0.4615
 2725TIP3    H132370   4.855   2.955   9.279 -0.8230 -3.5203  1.6215
 2725TIP3    H232371   4.812   2.918   9.139  1.4429  3.2649 -1.2973
 2726TIP3   OH232372   4.234   2.366  11.121  0.2249 -0.0573  0.1732
 2726TIP3    H132373   4.184   2.375  11.040  1.0821  1.2411 -0.2342
 2726TIP3    H232374   4.190   2.423  11.184  1.2141  1.1889 -0.2221
 2727TIP3   OH232375   5.155   2.721  11.797 -0.3285 -0.2037  1.0795
 2727TIP3    H132376   5.161   2.809  11.833  0.1293  0.9771 -1.6393
 2727TIP3    H232377   5.079   2.682  11.840 -0.5846  1.5109  2.2862
 2728TIP3   OH232378   6.517   3.747   8.432 -0.2649  0.4814  0.2530
 2728TIP3    H132379   6.480   3.665   8.464 -0.1311  0.0713 -0.6147
 2728TIP3    H232380   6.611   3.739   8.449 -0.2935  0.6020  0.4735
 2729TIP3   OH232381   3.742   0.649  11.154  0.2894  0.0796  0.8470
 2729TIP3    H132382   3.788   0.597  11.220 -1.6837 -0.9187  1.5056
 2729TIP3    H232383   3.742   0.738  11.189  1.3104  0.0308  1.0198
 2730TIP3   OH232384   3.820   6.781  10.778  0.1376 -0.2263  1.0267
 2730TIP3    H132385   3.897   6.743  10.735 -0.3466  0.9454 -1.0233
 2730TIP3    H232386   3.854   6.858  10.824  0.2389  0.2264  0.2143
 2731TIP3   OH232387   3.330   4.913   9.540  0.2438 -0.3126 -0.3643
 2731TIP3    H132388   3.352   4.890   9.450 -1.0696 -0.3061 -0.6968
 2731TIP3    H232389   3.236   4.899   9.547  0.1891  0.4629  0.7764
 2732TIP3   OH232390   5.474   5.710   9.687  0.0022  0.0676  0.4946
 2732TIP3    H132391   5.395   5.660   9.666 -1.2214  1.3533  1.8030
 2732TIP3    H232392   5.525   5.651   9.742  1.2110 -1.6995 -2.3035
 2733TIP3   OH232393   0.820   4.870  11.457  0.0849 -0.5633  0.7811
 2733TIP3    H132394   0.808   4.874  11.362 -0.7141  1.6366  0.9047
 2733TIP3    H232395   0.852   4.957  11.480 -1.3819 -0.4744  2.7162
 2734TIP3   OH232396   5.195   1.282   9.281 -0.6892  0.3159 -0.0328
 2734TIP3    H132397   5.274   1.259   9.232  0.3508 -0.0138  1.6946
 2734TIP3    H232398   5.199   1.377   9.289 -1.2622  0.4515 -1.1842
 2735TIP3   OH232399   3.709   6.106  10.388  0.1518 -0.0864  0.0676
 2735TIP3    H132400   3.630   6.161  10.394  0.9811  1.0538  1.0501
 2735TIP3    H232401   3.755   6.122  10.471  3.0328  1.8250 -1.7577
 2736TIP3   OH232402   1.986   2.197  11.706 -0.1864 -0.3516 -0.1276
 2736TIP3    H132403   1.891   2.199  11.716 -0.1371 -0.4150  0.3515
 2736TIP3    H232404   2.004   2.269  11.644 -0.5514 -0.4168 -0.3179
 2737TIP3   OH232405   6.044   4.802   9.851 -0.2619  0.4332 -0.4136
 2737TIP3    H132406   6.031   4.708   9.839 -0.7539  0.4798 -0.3015
 2737TIP3    H232407   6.027   4.816   9.944  1.1530  0.4334 -0.1368
 2738TIP3   OH232408   5.288   1.757   9.503 -0.2344 -0.0944  0.2048
 2738TIP3    H132409   5.362   1.786   9.449  0.0825  0.5116  0.9453
 2738TIP3    H232410   5.321   1.760   9.593 -0.4995 -1.8553  0.3986
 2739TIP3   OH232411   1.517   5.243  11.313  0.5457  0.7627  0.5275
 2739TIP3    H132412   1.602   5.243  11.357  1.5911  1.5371 -1.3365
 2739TIP3    H232413   1.456   5.206  11.377  2.4660 -0.8010  1.5717
 2740TIP3   OH232414   6.591   5.670  11.771  0.6471 -0.1979 -0.2077
 2740TIP3    H132415   6.587   5.746  11.714  0.3024 -0.5329 -0.6324
 2740TIP3    H232416   6.524   5.610  11.738  0.9578 -0.7166  0.0737
 2741TIP3   OH232417   4.333   6.216  11.056 -0.2135  0.1997  0.2780
 2741TIP3    H132418   4.426   6.239  11.054 -0.3384  0.6982 -0.7443
 2741TIP3    H232419   4.329   6.127  11.023 -0.1761  0.5685 -0.7810
 2742TIP3   OH232420   6.237   4.251   8.665 -0.2997 -0.2003 -0.3186
 2742TIP3    H132421   6.162   4.309   8.680 -0.4438 -0.0382 -1.5397
 2742TIP3    H232422   6.198   4.165   8.651 -0.1094 -0.5399  1.0993
 2743TIP3   OH232423   5.161   0.289   9.560 -0.4357  0.1356  0.3787
 2743TIP3    H132424   5.244   0.249   9.586 -1.1942 -0.5439  1.8958
 2743TIP3    H232425   5.096   0.220   9.575 -1.4098  0.9976  0.2242
 2744TIP3   OH232426   1.696   1.963   9.183  0.9175 -0.3671 -0.1455
 2744TIP3    H132427   1.616   1.970   9.131  0.6980 -0.7950  0.1224
 2744TIP3    H232428   1.666   1.969   9.273  1.4403  1.6489 -0.0713
 2745TIP3   OH232429   2.469   4.364  10.200  0.0872 -0.2112  0.0102
 2745TIP3    H132430   2.509   4.296  10.253 -0.6544 -1.3030 -0.7903
 2745TIP3    H232431   2.524   4.369  10.121  0.5870  0.6758  0.4009
 2746TIP3   OH232432   5.235   3.062  10.323 -0.0807  0.1552 -0.2790
 2746TIP3    H132433   5.238   2.967  10.327  2.6242  0.1407 -0.6186
 2746TIP3    H232434   5.276   3.091  10.405  1.0559  0.9368 -1.0887
 2747TIP3   OH232435   0.692   4.643  11.541 -0.3185 -0.3010  0.8513
 2747TIP3    H132436   0.671   4.597  11.460  0.8864  0.3551  0.1468
 2747TIP3    H232437   0.721   4.729  11.513 -2.2329  0.8340  2.1287
 2748TIP3   OH232438   5.770   0.176   9.452  0.2569  0.1427  0.3803
 2748TIP3    H132439   5.818   0.166   9.535 -0.2316 -1.8608  0.4683
 2748TIP3    H232440   5.679   0.186   9.478 -0.1231 -2.1549  0.0935
 2749TIP3   OH232441   3.301   4.764   9.762  0.6828  0.2399  0.3642
 2749TIP3    H132442   3.323   4.833   9.699  1.4564 -0.1921  0.1515
 2749TIP3    H232443   3.365   4.694   9.746  0.4946 -0.1471  1.1979
 2750TIP3   OH232444   0.885   5.294  11.659 -0.1013 -0.4272 -0.2091
 2750TIP3    H132445   0.891   5.363  11.593  2.4075  0.0304  0.4097
 2750TIP3    H232446   0.975   5.280  11.688 -0.9330 -1.6473  2.0640
 2751TIP3   OH232447   2.082   6.601  10.998 -0.0757  0.2602 -0.4970
 2751TIP3    H132448   2.042   6.536  10.940 -0.5788  1.2498 -1.3033
 2751TIP3    H232449   2.025   6.603  11.074  1.5047 -2.2708  0.8928
 2752TIP3   OH232450   3.125   4.303  10.124  0.2315 -0.3980 -0.1976
 2752TIP3    H132451   3.115   4.380  10.179  0.5590 -1.1824  0.9977
 2752TIP3    H232452   3.218   4.282  10.128  0.2454 -0.5296 -0.9820
 2753TIP3   OH232453   5.857   3.176   9.825  0.1252  0.3507  0.8244
 2753TIP3    H132454   5.929   3.215   9.774 -0.1145 -0.0450  0.1614
 2753TIP3    H232455   5.789   3.158   9.760 -0.3945  0.2929  1.3735
 2754TIP3   OH232456   1.850   1.002  11.356  0.4582  0.0391 -0.2212
 2754TIP3    H132457   1.899   0.994  11.274  0.7737  0.2009 -0.0508
 2754TIP3    H232458   1.903   0.957  11.421  0.6144  0.6245  0.0611
 2755TIP3   OH232459   0.910   0.972  10.762 -0.6505 -0.3554  0.5202
 2755TIP3    H132460   0.842   0.994  10.699  0.5791  0.4997 -0.5539
 2755TIP3    H232461   0.992   0.991  10.717  0.2983 -0.8649  1.9595
 2756TIP3   OH232462   2.691   1.900  10.945  0.0412 -0.0389  0.1987
 2756TIP3    H132463   2.727   1.812  10.952  1.5988  0.6433  1.2170
 2756TIP3    H232464   2.606   1.888  10.902  1.0057 -1.8353 -1.3303
 2757TIP3   OH232465   2.805   5.135  10.633 -0.2641  0.2746 -0.4487
 2757TIP3    H132466   2.804   5.046  10.597 -0.3342 -0.6257  1.6337
 2757TIP3    H232467   2.891   5.169  10.609  0.9811 -1.4863  1.1974
 2758TIP3   OH232468   3.478   3.426   9.749  0.3565  0.2469  0.1887
 2758TIP3    H132469   3.567   3.400   9.724  0.2618  1.6268 -1.8754
 2758TIP3    H232470   3.425   3.348   9.736  1.0296 -0.1883  0.0162
 2759TIP3   OH232471   5.015   3.503  11.867  0.0141 -0.4628  0.3037
 2759TIP3    H132472   4.951   3.570  11.892  0.7152 -0.1739  1.3980
 2759TIP3    H232473   5.040   3.526  11.778 -0.9383 -0.2260  0.0798
 2760TIP3   OH232474   1.288   2.499  10.551  0.9002 -0.2199 -0.3250
 2760TIP3    H132475   1.196   2.477  10.542  1.3344 -2.4801  0.0918
 2760TIP3    H232476   1.293   2.553  10.630 -0.0077 -0.4101 -0.1292
 2761TIP3   OH232477   6.242   1.160  10.502  0.0532 -0.9719 -0.4313
 2761TIP3    H132478   6.176   1.098  10.534  0.8727 -1.2697  0.7464
 2761TIP3    H232479   6.325   1.123  10.531  0.5401  0.9440  0.8360
 2762TIP3   OH232480   4.667   4.522  10.487  0.2875  0.5429 -0.8080
 2762TIP3    H132481   4.640   4.475  10.566  2.2706  0.4822 -0.1370
 2762TIP3    H232482   4.585   4.533  10.438 -0.8425 -0.2224  0.8005
 2763TIP3   OH232483   5.199   5.328   9.993  0.1229 -0.0818  0.7665
 2763TIP3    H132484   5.122   5.373   9.958  0.1024 -0.3201  0.5108
 2763TIP3    H232485   5.273   5.370   9.949  0.1032 -0.2984  0.5223
 2764TIP3   OH232486   4.019   1.265   9.619  0.4780  0.0857  0.0039
 2764TIP3    H132487   3.966   1.344   9.626 -1.3968 -0.8474 -2.4017
 2764TIP3    H232488   3.960   1.193   9.643  1.7693 -0.7265  0.8908
 2765TIP3   OH232489   3.145   0.296  10.478 -0.2110  0.4746 -0.0242
 2765TIP3    H132490   3.226   0.247  10.497  0.0371  1.4118  1.4729
 2765TIP3    H232491   3.077   0.229  10.474  0.3405 -0.1447  0.6364
 2766TIP3   OH232492   5.211   2.041  10.519  0.2491  0.5956 -0.2519
 2766TIP3    H132493   5.126   2.077  10.547 -0.2845 -0.6541 -0.1864
 2766TIP3    H232494   5.211   1.952  10.553  1.9746  0.8279  0.4774
 2767TIP3   OH232495   3.389   5.197  11.853 -0.9205 -0.0349 -0.2563
 2767TIP3    H132496   3.467   5.189  11.907 -1.1846  0.6499  0.2530
 2767TIP3    H232497   3.418   5.176  11.765 -0.3816 -0.7290  0.0820
 2768TIP3   OH232498   2.204   5.129   9.766  0.0945  0.4422 -0.4748
 2768TIP3    H132499   2.211   5.144   9.671  1.3307  1.1765 -0.2900
 2768TIP3    H232500   2.229   5.212   9.805 -2.4589  0.8115  0.5090
 2769TIP3   OH232501   0.723   2.240  11.241  0.6150  0.1816  0.9801
 2769TIP3    H132502   0.772   2.202  11.168 -1.2325  0.9324 -0.7623
 2769TIP3    H232503   0.635   2.204  11.231 -0.3548  2.3374  1.2244
 2770TIP3   OH232504   4.669   2.533  11.213 -0.0847  0.2250 -0.3344
 2770TIP3    H132505   4.649   2.443  11.239  0.1361  1.0093  2.8909
 2770TIP3    H232506   4.622   2.545  11.130 -1.2360 -2.3997 -0.1584
 2771TIP3   OH232507   4.157   5.892  10.775 -0.1567 -0.3435 -0.5064
 2771TIP3    H132508   4.220   5.960  10.751 -0.7565  0.1624 -0.6711
 2771TIP3    H232509   4.210   5.813  10.789  0.5783  0.2341  0.0037
 2772TIP3   OH232510   4.835   0.658   9.273 -0.1677 -0.2885  0.3735
 2772TIP3    H132511   4.809   0.698   9.357  1.1830  1.1893  0.1213
 2772TIP3    H232512   4.913   0.608   9.294  0.2800  0.2310 -0.0182
 2773TIP3   OH232513   5.194   1.683   8.449 -0.1703  0.2507  0.3667
 2773TIP3    H132514   5.179   1.776   8.431  0.0202 -0.0065 -1.2743
 2773TIP3    H232515   5.254   1.655   8.380 -0.8980 -1.2921  0.3269
 2774TIP3   OH232516   5.763   4.667  10.939  0.2274 -0.2096  0.7248
 2774TIP3    H132517   5.768   4.622  10.854  1.1061 -1.0685  1.2063
 2774TIP3    H232518   5.753   4.759  10.917  1.2816 -0.3266 -0.3280
 2775TIP3   OH232519   1.911   4.116  12.013 -0.3135 -0.0416 -0.6650
 2775TIP3    H132520   1.964   4.067  12.076 -0.9905  1.6870  1.3831
 2775TIP3    H232521   1.963   4.193  11.991 -0.8207  0.2797 -0.7770
 2776TIP3   OH232522   1.884   5.996   9.417 -0.4332 -0.3371 -0.4207
 2776TIP3    H132523   1.808   5.940   9.403 -0.6836 -0.4140  1.0967
 2776TIP3    H232524   1.852   6.066   9.474  0.4835 -0.0222 -0.2737
 2777TIP3   OH232525   0.238   2.039   8.130  0.4034  0.0907 -0.1564
 2777TIP3    H132526   0.310   1.977   8.135  0.0639 -0.1990  2.0315
 2777TIP3    H232527   0.209   2.035   8.039  1.7981 -1.3128 -0.5710
 2778TIP3   OH232528   6.655   3.142  10.317 -0.2587 -0.3001  0.4808
 2778TIP3    H132529   6.709   3.068  10.289 -1.7524 -1.2613 -0.0016
 2778TIP3    H232530   6.698   3.219  10.279  1.0072 -0.9554  0.5182
 2779TIP3   OH232531   3.110   3.466   9.581  0.4975  0.2289 -0.5882
 2779TIP3    H132532   3.186   3.439   9.530  0.2778 -0.3300 -0.6308
 2779TIP3    H232533   3.038   3.412   9.546  0.5872 -1.1078  1.1662
 2780TIP3   OH232534   0.326   3.162   9.372 -0.0499 -0.8907  0.0141
 2780TIP3    H132535   0.322   3.094   9.304 -0.7770  0.1739 -1.0473
 2780TIP3    H232536   0.267   3.130   9.440  0.1583 -1.6578 -0.1504
 2781TIP3   OH232537   1.228   1.912   8.354 -0.1885  0.7536 -0.5355
 2781TIP3    H132538   1.185   1.836   8.317  1.1852 -0.6752  0.6509
 2781TIP3    H232539   1.171   1.940   8.426  0.5056 -0.7902  0.6796
 2782TIP3   OH232540   2.928   0.327  10.926 -0.1715 -0.1624  0.0345
 2782TIP3    H132541   2.925   0.374  10.843 -0.3169 -0.6570 -0.2439
 2782TIP3    H232542   2.842   0.342  10.966 -0.6813 -1.2052 -0.6270
 2783TIP3   OH232543   1.042   1.919   9.620  0.0048  0.0546  0.0334
 2783TIP3    H132544   1.121   1.942   9.669  0.6582  0.9572 -1.3881
 2783TIP3    H232545   1.068   1.841   9.570  0.0530  0.4353 -0.5415
 2784TIP3   OH232546   1.257   3.511  10.050 -0.1013 -0.2787 -0.4124
 2784TIP3    H132547   1.252   3.535  10.143 -0.1475  0.6479 -0.6484
 2784TIP3    H232548   1.307   3.429  10.049  1.3039  0.5413  0.3067
 2785TIP3   OH232549   5.578   3.362   9.161  0.0910 -0.5918 -0.9803
 2785TIP3    H132550   5.573   3.457   9.158 -0.0034 -0.4779  1.2501
 2785TIP3    H232551   5.633   3.338   9.087  1.0191  1.2783 -0.9380
 2786TIP3   OH232552   3.267   1.010  10.463  0.2217  0.4465 -0.0928
 2786TIP3    H132553   3.257   1.001  10.369 -2.9270 -1.9427  0.3097
 2786TIP3    H232554   3.216   1.088  10.486 -2.0756 -0.9464 -0.1208
 2787TIP3   OH232555   0.266   2.219  11.523  0.1904  0.2735 -0.2684
 2787TIP3    H132556   0.350   2.252  11.492  2.0761 -1.3003  2.7046
 2787TIP3    H232557   0.231   2.291  11.577  1.5408 -0.3524  1.5489
 2788TIP3   OH232558   2.051   1.935  10.232 -0.0865 -0.1463  0.1461
 2788TIP3    H132559   1.964   1.977  10.229  0.4940  1.0670 -0.6481
 2788TIP3    H232560   2.100   1.987  10.295  1.2212  1.6442 -2.1815
 2789TIP3   OH232561   3.522   4.380   9.259 -0.1845  0.0815  0.1698
 2789TIP3    H132562   3.492   4.469   9.275  0.0962  0.4783 -1.4060
 2789TIP3    H232563   3.511   4.367   9.165  1.9180 -0.7445  0.0013
 2790TIP3   OH232564   2.240   4.489  10.043  0.1879  0.3231  0.0653
 2790TIP3    H132565   2.232   4.395  10.062 -0.3221 -0.1643 -2.2426
 2790TIP3    H232566   2.319   4.516  10.089 -0.4362 -0.8784  1.9724
 2791TIP3   OH232567   4.300   4.530  11.080  0.1520  0.0539  0.5529
 2791TIP3    H132568   4.354   4.455  11.105 -1.0861 -0.7421  0.8953
 2791TIP3    H232569   4.362   4.592  11.042  1.1473 -1.2767 -0.0517
 2792TIP3   OH232570   1.780   2.743  10.831  0.5859  0.6552  0.2534
 2792TIP3    H132571   1.862   2.793  10.830  1.6905 -1.0193  1.7906
 2792TIP3    H232572   1.748   2.752  10.921 -0.0195 -0.0918  0.1160
 2793TIP3   OH232573   1.310   5.698  11.367  0.4395 -0.1331  0.1011
 2793TIP3    H132574   1.350   5.779  11.397  1.5889  0.2777 -2.3215
 2793TIP3    H232575   1.380   5.633  11.370 -0.3466 -0.9778  1.5658
 2794TIP3   OH232576   1.425   1.948   9.118 -0.0417 -0.0044  0.4449
 2794TIP3    H132577   1.387   2.008   9.054  0.7928 -0.2028 -0.2536
 2794TIP3    H232578   1.371   1.959   9.196 -2.0195 -0.7997 -0.7276
 2795TIP3   OH232579   5.580   5.016   9.420  0.0114 -0.5288 -0.5032
 2795TIP3    H132580   5.600   4.970   9.501 -1.8157  0.4812  0.5872
 2795TIP3    H232581   5.656   5.073   9.405  0.3082 -0.6296  0.5790
 2796TIP3   OH232582   1.812   1.876   7.639  0.0891 -0.1814 -0.3981
 2796TIP3    H132583   1.840   1.906   7.725 -0.1966 -0.9463 -0.0311
 2796TIP3    H232584   1.849   1.940   7.578 -2.1061  2.0348  0.4485
 2797TIP3   OH232585   1.953   6.308  11.929  0.0813  0.2191  0.4664
 2797TIP3    H132586   1.889   6.268  11.988 -0.7216  0.8538  0.0288
 2797TIP3    H232587   1.901   6.356  11.865  0.9334 -0.5378 -0.8454
 2798TIP3   OH232588   3.456   1.310  10.178 -0.0014  0.3623 -0.3376
 2798TIP3    H132589   3.371   1.323  10.220  0.0544  1.6394 -0.5971
 2798TIP3    H232590   3.498   1.242  10.231 -0.6213  0.7197  0.6481
 2799TIP3   OH232591   4.613   3.996   9.155  0.3653  0.6825 -0.3850
 2799TIP3    H132592   4.626   4.042   9.072 -0.8383  0.7290 -0.5537
 2799TIP3    H232593   4.603   3.904   9.130  0.7339  0.5906 -0.2139
 2800TIP3   OH232594   1.908   3.332  11.266  0.0687 -0.5214  0.5523
 2800TIP3    H132595   1.935   3.352  11.356  1.1829  0.9301 -0.0516
 2800TIP3    H232596   1.985   3.291  11.227  0.1126  0.1982 -0.1422
 2801TIP3   OH232597   3.761   2.774   9.887 -0.0317 -1.0949 -0.4305
 2801TIP3    H132598   3.837   2.830   9.871 -0.8669 -0.3024 -1.7647
 2801TIP3    H232599   3.766   2.753   9.981 -0.2544  2.1061  0.3970
 2802TIP3   OH232600   5.648   2.881  10.886  0.7666 -0.3971  0.0564
 2802TIP3    H132601   5.664   2.859  10.794  0.2517 -0.9550  0.0983
 2802TIP3    H232602   5.625   2.798  10.927 -1.3291  0.1744  0.1869
 2803TIP3   OH232603   4.753   1.191  10.521  0.1954 -1.2325 -0.0465
 2803TIP3    H132604   4.680   1.180  10.460 -0.3425  2.7697 -0.3964
 2803TIP3    H232605   4.717   1.166  10.606 -0.6788 -1.9990 -0.6262
 2804TIP3   OH232606   2.911   0.475  10.697 -0.0739  0.3416  0.2861
 2804TIP3    H132607   2.890   0.565  10.723 -0.7808  0.3124 -0.1415
 2804TIP3    H232608   2.895   0.473  10.603 -0.1307 -0.2514  0.3038
 2805TIP3   OH232609   6.577   6.741  10.298  0.2008 -0.6148  0.0614
 2805TIP3    H132610   6.612   6.828  10.312  2.3910 -1.1756 -1.5251
 2805TIP3    H232611   6.501   6.754  10.241  0.2527  0.2633  0.1878
 2806TIP3   OH232612   0.539   1.249   9.887 -0.0802 -0.5866  0.1907
 2806TIP3    H132613   0.546   1.293   9.971  0.9703  0.0708 -0.2193
 2806TIP3    H232614   0.520   1.318   9.824  0.3034 -0.8875 -0.2739
 2807TIP3   OH232615   6.324   5.057   9.714 -0.1843 -0.4887  0.1420
 2807TIP3    H132616   6.311   5.005   9.635 -2.3587 -0.4611  0.3979
 2807TIP3    H232617   6.316   5.148   9.685 -0.4300 -0.4615  0.2830
 2808TIP3   OH232618   5.474   4.304   9.720  0.5018 -0.1911 -0.1941
 2808TIP3    H132619   5.379   4.316   9.712  0.5740  0.1123 -0.6127
 2808TIP3    H232620   5.490   4.302   9.814  0.1436  0.2595 -0.1191
 2809TIP3   OH232621   3.517   0.991  10.586  0.0749  0.5475 -0.2640
 2809TIP3    H132622   3.429   0.981  10.551 -0.0740  0.8653  0.0139
 2809TIP3    H232623   3.523   1.084  10.610  0.4942  0.5341 -0.3100
 2810TIP3   OH232624   3.527   5.717   9.604 -0.4879 -0.0053 -0.3778
 2810TIP3    H132625   3.546   5.671   9.686  1.5758  0.7254 -0.3970
 2810TIP3    H232626   3.470   5.789   9.630 -0.3163 -0.1168  0.3280
 2811TIP3   OH232627   6.686   4.208   8.698  0.3329 -0.2865  0.2168
 2811TIP3    H132628   6.654   4.120   8.680 -1.3082  0.3653 -0.2540
 2811TIP3    H232629   6.760   4.220   8.640 -0.8511 -0.5571 -1.4068
 2812TIP3   OH232630   0.153   0.517  10.376 -0.1899 -0.1522  0.1022
 2812TIP3    H132631   0.187   0.493  10.462  1.4484 -0.8082 -0.6896
 2812TIP3    H232632   0.145   0.434  10.329 -1.7586  0.1243 -0.1677
 2813TIP3   OH232633   3.471   6.104  10.820  0.1711 -0.1516 -0.5118
 2813TIP3    H132634   3.406   6.165  10.783  2.6766  3.8200  1.0465
 2813TIP3    H232635   3.430   6.072  10.900 -1.8302 -2.0099 -2.1420
 2814TIP3   OH232636   6.503   3.542  11.444 -0.3045 -0.0047 -0.0424
 2814TIP3    H132637   6.570   3.511  11.382  0.1821  1.9449 -0.5489
 2814TIP3    H232638   6.446   3.597  11.391 -1.2629 -0.1976  0.7783
 2815TIP3   OH232639   3.061   2.341  10.289 -0.3434 -0.1401  0.3888
 2815TIP3    H132640   3.123   2.322  10.218  1.5690  1.8407  1.4089
 2815TIP3    H232641   3.007   2.263  10.295  1.6200 -1.7067 -1.0220
 2816TIP3   OH232642   1.860   1.956   8.256 -0.2883  0.2381  0.5836
 2816TIP3    H132643   1.931   1.911   8.210 -0.5291  0.2496  0.1949
 2816TIP3    H232644   1.784   1.945   8.199 -0.0556  2.2914 -0.1950
 2817TIP3   OH232645   4.382   4.532  10.018  0.7366  0.1209 -0.0156
 2817TIP3    H132646   4.390   4.621  10.054 -0.3102  0.2488 -0.0704
 2817TIP3    H232647   4.288   4.521  10.002  0.6681 -1.4474  1.1564
 2818TIP3   OH232648   2.899   3.322   9.470  0.0383 -0.2193 -0.3880
 2818TIP3    H132649   2.831   3.299   9.406 -0.2673 -0.2439 -0.0596
 2818TIP3    H232650   2.852   3.371   9.538  0.3090 -0.4365 -0.0412
 2819TIP3   OH232651   3.860   1.747   9.220 -0.6100 -0.2953  0.5225
 2819TIP3    H132652   3.831   1.706   9.138  0.9689 -0.5302  0.0603
 2819TIP3    H232653   3.885   1.673   9.276 -0.1299 -0.0647  0.6125
 2820TIP3   OH232654   0.693   5.774   9.480  0.2930 -0.0939  0.0290
 2820TIP3    H132655   0.608   5.739   9.506 -0.3613 -0.4927 -2.3833
 2820TIP3    H232656   0.756   5.707   9.504 -0.0635  0.1247  1.6739
 2821TIP3   OH232657   1.402   2.368  11.115 -0.2464 -0.4683  0.5732
 2821TIP3    H132658   1.430   2.438  11.056 -1.0115  1.4402  2.3506
 2821TIP3    H232659   1.329   2.327  11.069 -0.8958  1.0415  0.1805
 2822TIP3   OH232660   1.025   6.516  10.846  0.3969  0.1404 -0.0623
 2822TIP3    H132661   0.958   6.574  10.883  0.7865 -0.9836  2.6806
 2822TIP3    H232662   1.043   6.552  10.760 -2.3699  1.5915 -0.1620
 2823TIP3   OH232663   5.343   1.670  10.475  0.2080  0.0736  0.0622
 2823TIP3    H132664   5.393   1.751  10.484  1.2581 -0.5331 -0.1770
 2823TIP3    H232665   5.406   1.600  10.494 -0.5306 -0.7121 -0.3038
 2824TIP3   OH232666   5.640   3.028   8.958 -0.4535 -0.3407 -0.1564
 2824TIP3    H132667   5.687   2.955   8.918 -1.2389 -0.1497 -1.5152
 2824TIP3    H232668   5.566   3.043   8.898 -1.0476  0.6991  0.8131
 2825TIP3   OH232669   5.362   2.362  10.489  0.1628 -0.7292  0.3553
 2825TIP3    H132670   5.319   2.322  10.564  0.0044 -3.2383 -0.9726
 2825TIP3    H232671   5.294   2.415  10.448  0.1091  0.2424  1.6463
 2826TIP3   OH232672   0.566   1.328   9.272  0.1498  0.0620 -0.2536
 2826TIP3    H132673   0.518   1.291   9.345  1.0441  0.5525  0.6046
 2826TIP3    H232674   0.585   1.418   9.299  0.8316  0.1301 -0.9235
 2827TIP3   OH232675   3.870   2.931  11.511 -0.5334 -0.7084  0.3989
 2827TIP3    H132676   3.956   2.949  11.547 -0.5448 -2.8043  1.6273
 2827TIP3    H232677   3.879   2.947  11.417  0.4113  1.6329  0.8117
 2828TIP3   OH232678   3.496   2.780   9.798  0.0531 -0.0727 -0.4229
 2828TIP3    H132679   3.467   2.695   9.763  0.0181 -1.2557  2.1990
 2828TIP3    H232680   3.588   2.766   9.822  0.9275  1.5741 -2.4990
 2829TIP3   OH232681   3.545   0.495  11.440 -0.1461 -0.7116 -0.0326
 2829TIP3    H132682   3.628   0.497  11.393  0.4141  0.9648  0.9508
 2829TIP3    H232683   3.527   0.402  11.454  1.2949 -1.1121 -0.7004
 2830TIP3   OH232684   5.324   6.255   9.809 -0.3308  0.0750 -0.0969
 2830TIP3    H132685   5.286   6.209   9.734  0.1202  0.5968 -0.6543
 2830TIP3    H232686   5.398   6.200   9.836  0.3289  0.5630 -0.8870
 2831TIP3   OH232687   6.630   4.830   9.297 -0.9291  0.2000  0.0462
 2831TIP3    H132688   6.573   4.765   9.255  1.8675 -2.6121  0.2003
 2831TIP3    H232689   6.700   4.844   9.233  2.3607 -2.6670  2.6569
 2832TIP3   OH232690   1.321   5.002  10.281  0.3855  0.0975  0.5084
 2832TIP3    H132691   1.319   5.091  10.316 -0.2393  0.9012 -1.4664
 2832TIP3    H232692   1.229   4.974  10.283  0.1594  0.5965 -1.4735
 2833TIP3   OH232693   0.960   2.131   9.088 -0.1298 -0.0244 -0.6626
 2833TIP3    H132694   0.952   2.076   9.166 -0.8814  1.2907  0.2198
 2833TIP3    H232695   1.029   2.193   9.109  2.0421 -1.6716 -2.3575
 2834TIP3   OH232696   1.332   5.911   9.921  0.1973 -0.0959  0.7503
 2834TIP3    H132697   1.289   5.903  10.006  0.6761  0.9810  1.1062
 2834TIP3    H232698   1.264   5.891   9.857 -0.4489  0.1495  1.3547
 2835TIP3   OH232699   0.278   3.440   9.246  0.0510  0.0381 -0.4065
 2835TIP3    H132700   0.359   3.394   9.266  1.1230  1.0755 -2.1666
 2835TIP3    H232701   0.280   3.517   9.303  0.0741 -0.1532 -0.1445
 2836TIP3   OH232702   3.505   1.381   9.544  0.0105  0.1765  0.0901
 2836TIP3    H132703   3.469   1.392   9.632  2.9333 -0.2387  1.4597
 2836TIP3    H232704   3.504   1.286   9.530 -0.0698  0.2153 -0.1775
 2837TIP3   OH232705   5.151   1.637  10.299 -0.1251 -0.3522 -0.2698
 2837TIP3    H132706   5.082   1.577  10.329  0.7906 -0.9209  0.7529
 2837TIP3    H232707   5.222   1.625  10.361  0.0255  1.9813  0.0930
 2838TIP3   OH232708   0.252   4.409   9.004  0.5869 -0.2198  0.1052
 2838TIP3    H132709   0.248   4.497   9.041 -2.2715 -0.6943  1.1880
 2838TIP3    H232710   0.340   4.378   9.025  0.7765  1.4147  2.0528
 2839TIP3   OH232711   4.422   3.320  11.447 -0.0709  0.1748 -0.4441
 2839TIP3    H132712   4.334   3.299  11.417 -0.7600  1.7591  0.3122
 2839TIP3    H232713   4.472   3.339  11.368 -0.8434  0.7316 -0.8074
 2840TIP3   OH232714   0.198   1.155  11.521 -0.0515  0.0279 -0.0576
 2840TIP3    H132715   0.194   1.094  11.595 -0.9348 -0.9455 -0.8814
 2840TIP3    H232716   0.268   1.215  11.544  1.1781 -1.5749  0.5904
 2841TIP3   OH232717   1.861   1.857  11.216 -0.3178  0.1330  0.0158
 2841TIP3    H132718   1.879   1.827  11.127  0.9480  0.5907  0.1002
 2841TIP3    H232719   1.903   1.793  11.273 -0.4479  0.2709  0.2714
 2842TIP3   OH232720   6.572   6.685   9.491 -0.1052 -0.4922 -0.0604
 2842TIP3    H132721   6.506   6.752   9.511  0.7138  0.3477 -0.0955
 2842TIP3    H232722   6.524   6.617   9.445 -0.7241  0.6704 -1.1878
 2843TIP3   OH232723   1.135   0.982  11.772 -0.1681 -0.2800  0.6127
 2843TIP3    H132724   1.058   1.020  11.814 -1.5987  0.2765 -2.2542
 2843TIP3    H232725   1.134   0.890  11.799 -1.8289 -0.2787  0.6585
 2844TIP3   OH232726   5.446   1.714   9.726  0.1045  0.7817 -0.0586
 2844TIP3    H132727   5.492   1.795   9.750  0.9325 -0.0005  1.0642
 2844TIP3    H232728   5.509   1.664   9.674 -0.6239  1.1034 -1.2999
 2845TIP3   OH232729   1.002   4.929  10.309 -0.2532 -0.5738  0.8722
 2845TIP3    H132730   0.969   4.863  10.249 -0.0572  0.5893 -0.5798
 2845TIP3    H232731   0.974   4.900  10.395  0.9434 -3.2321  0.4571
 2846TIP3   OH232732   4.285   5.315   9.936  0.2639 -0.8397 -0.3978
 2846TIP3    H132733   4.219   5.379   9.908  0.6871  0.0439  0.5947
 2846TIP3    H232734   4.294   5.257   9.860 -1.7321 -1.0684 -0.5363
 2847TIP3   OH232735   4.567   1.301   9.209  0.2807 -0.2332 -0.0876
 2847TIP3    H132736   4.602   1.314   9.297  1.8115  0.0632 -0.7155
 2847TIP3    H232737   4.574   1.207   9.194  1.7382 -0.0690 -0.5588
 2848TIP3   OH232738   6.433   0.520  11.146 -0.0565  0.2297  0.3485
 2848TIP3    H132739   6.497   0.459  11.112 -0.8696 -0.0071 -0.8417
 2848TIP3    H232740   6.470   0.551  11.229  0.6712 -1.3525  0.6509
 2849TIP3   OH232741   1.817   1.245   8.250  0.5336 -0.4556 -0.0322
 2849TIP3    H132742   1.825   1.304   8.175  1.9769 -1.5242 -0.7790
 2849TIP3    H232743   1.870   1.286   8.318 -0.2192  0.1739  0.1836
 2850TIP3   OH232744   6.227   3.024  10.890  0.0319  0.8124 -0.1283
 2850TIP3    H132745   6.181   2.954  10.844 -1.6222  1.8044 -0.0596
 2850TIP3    H232746   6.223   2.999  10.982  1.0197  0.1443 -0.2464
 2851TIP3   OH232747   6.650   5.672  10.344 -0.0510 -0.3322 -0.2591
 2851TIP3    H132748   6.597   5.749  10.325  1.2236  0.6140 -0.1378
 2851TIP3    H232749   6.694   5.652  10.261  2.6815  1.5656  0.5671
 2852TIP3   OH232750   2.157   5.475  10.842 -0.3026  0.4383 -0.4930
 2852TIP3    H132751   2.113   5.390  10.836  0.9179 -0.2763  0.2015
 2852TIP3    H232752   2.199   5.486  10.757  0.3121 -0.1085 -0.2655
 2853TIP3   OH232753   5.925   0.373   9.234 -0.6374 -0.2085  0.0745
 2853TIP3    H132754   5.968   0.426   9.301 -0.9019  0.3975 -0.2242
 2853TIP3    H232755   5.855   0.327   9.280 -1.1099  0.5545  0.1449
 2854TIP3   OH232756   3.247   2.987  11.454  0.1132 -0.0552 -0.0342
 2854TIP3    H132757   3.311   2.996  11.383 -1.0049 -0.5987 -1.1497
 2854TIP3    H232758   3.267   2.902  11.494 -1.7826 -1.7548 -2.4089
 2855TIP3   OH232759   4.798   1.783   8.539  0.2891  0.0125  0.0859
 2855TIP3    H132760   4.832   1.778   8.449 -1.7019  0.4096 -0.7594
 2855TIP3    H232761   4.836   1.863   8.574  0.0052  0.6119 -0.9201
 2856TIP3   OH232762   4.436   2.603   9.019 -0.1396  0.7360  0.5371
 2856TIP3    H132763   4.523   2.632   9.047 -0.6556  1.3752  1.5461
 2856TIP3    H232764   4.451   2.518   8.978  1.0925  1.2959 -0.2420
 2857TIP3   OH232765   3.467   2.391  11.552  0.6639  0.1082 -0.4894
 2857TIP3    H132766   3.410   2.345  11.614  0.0379  1.1615 -0.2567
 2857TIP3    H232767   3.409   2.417  11.481  1.0482  0.3728 -0.7094
 2858TIP3   OH232768   4.849   3.228   9.870 -0.3440 -0.0688 -0.5396
 2858TIP3    H132769   4.932   3.211   9.915 -0.5602  1.2230  0.4328
 2858TIP3    H232770   4.798   3.277   9.934 -2.6641 -2.5076 -0.3463
 2859TIP3   OH232771   0.341   0.002   8.213 -0.1220  0.4834 -0.5083
 2859TIP3    H132772   0.338   0.027   8.121 -0.2964  0.2422 -0.5697
 2859TIP3    H232773   0.285   0.065   8.258  0.3602  0.9038 -0.4957
 2860TIP3   OH232774   4.427   1.435  11.248  0.1107 -0.1644  0.3449
 2860TIP3    H132775   4.343   1.466  11.212  1.0372  1.8127 -0.2270
 2860TIP3    H232776   4.437   1.483  11.329  0.2504 -1.1607  0.9364
 2861TIP3   OH232777   1.314   3.138   9.523 -0.1903 -0.7508  0.2196
 2861TIP3    H132778   1.264   3.211   9.488  1.1005 -0.0059 -0.1348
 2861TIP3    H232779   1.282   3.061   9.475 -2.1144 -0.6011  1.1394
 2862TIP3   OH232780   1.183   2.776   8.600  0.1667 -0.0277  0.5440
 2862TIP3    H132781   1.131   2.752   8.677 -0.3591 -2.4573 -0.4918
 2862TIP3    H232782   1.137   2.736   8.526  1.2877  1.2678 -0.9266
 2863TIP3   OH232783   4.479   1.429  10.736 -0.0575  0.2169  0.4221
 2863TIP3    H132784   4.477   1.414  10.830 -2.9711 -0.2317  0.3952
 2863TIP3    H232785   4.397   1.390  10.704  0.1792  1.5722 -2.0895
 2864TIP3   OH232786   6.349   2.642   9.599 -0.5128  0.0075 -0.3182
 2864TIP3    H132787   6.352   2.706   9.670  3.9827 -0.3148  0.0781
 2864TIP3    H232788   6.371   2.693   9.521 -0.8323 -0.4388 -0.7083
 2865TIP3   OH232789   2.564   0.389   9.230 -0.2926  0.5836 -0.0190
 2865TIP3    H132790   2.600   0.301   9.236 -1.5978  0.0057 -0.3624
 2865TIP3    H232791   2.605   0.427   9.152  0.1290  0.2190  0.0227
 2866TIP3   OH232792   2.518   0.638   9.699  0.2058  0.2517 -0.2760
 2866TIP3    H132793   2.464   0.631   9.620  0.0568 -2.4238 -0.0205
 2866TIP3    H232794   2.463   0.688   9.761 -0.4464  0.7215 -1.2094
 2867TIP3   OH232795   3.307   6.360  11.234 -0.1660  0.2001 -0.2179
 2867TIP3    H132796   3.236   6.398  11.182  0.2436  0.3735 -0.6595
 2867TIP3    H232797   3.336   6.284  11.184  0.3025  0.4283 -0.3050
 2868TIP3   OH232798   5.460   4.017  10.906 -0.4775  0.0722 -0.0553
 2868TIP3    H132799   5.504   3.999  10.989  0.4930  0.5478 -0.4424
 2868TIP3    H232800   5.439   3.931  10.871  2.5966 -0.3699 -1.1045
 2869TIP3   OH232801   1.171   6.132  10.596 -0.1394 -0.1051 -0.0707
 2869TIP3    H132802   1.222   6.059  10.633 -1.5236 -1.6309 -1.0188
 2869TIP3    H232803   1.179   6.202  10.660  0.8837 -1.2517  1.1098
 2870TIP3   OH232804   1.698   3.968  11.221 -0.0958 -0.0419 -0.0895
 2870TIP3    H132805   1.729   3.881  11.247  0.8658  0.5247  0.7225
 2870TIP3    H232806   1.652   4.001  11.298 -1.9246 -0.4596 -0.9408
 2871TIP3   OH232807   6.521   4.244   9.373 -0.6800  0.6736 -0.3841
 2871TIP3    H132808   6.457   4.260   9.303  0.3859  0.7079 -1.3942
 2871TIP3    H232809   6.538   4.330   9.411 -2.4441  0.4489  1.0376
 2872TIP3   OH232810   2.062   2.326  10.632  0.2069  0.2130  0.3260
 2872TIP3    H132811   2.043   2.371  10.549 -0.0704  3.1099  1.8115
 2872TIP3    H232812   2.001   2.366  10.695 -0.7050 -2.9991  1.6986
 2873TIP3   OH232813   5.469   1.200  10.746  0.2005 -0.3907 -0.2979
 2873TIP3    H132814   5.410   1.274  10.763  0.1841 -0.0235 -1.7758
 2873TIP3    H232815   5.554   1.241  10.731  0.8449 -0.9155  1.7423
 2874TIP3   OH232816   5.427   3.423  10.757 -0.0304 -0.1055  0.0585
 2874TIP3    H132817   5.365   3.491  10.783  0.2986 -0.4107  1.7366
 2874TIP3    H232818   5.414   3.352  10.820  1.2470 -0.6387 -0.2362
 2875TIP3   OH232819   1.054   2.312   9.418 -0.4263 -0.5423  0.4266
 2875TIP3    H132820   1.071   2.284   9.508  1.5614 -1.3650 -0.1497
 2875TIP3    H232821   1.008   2.238   9.378 -0.8953 -0.3628  0.6251
 2876TIP3   OH232822   6.200   5.398  10.354 -0.4385 -0.4980  0.3882
 2876TIP3    H132823   6.250   5.466  10.399 -0.1428 -0.6920  0.3630
 2876TIP3    H232824   6.201   5.423  10.262 -2.2873  0.6774  0.6424
 2877TIP3   OH232825   6.373   2.880   8.568 -0.0702 -0.2407  0.3983
 2877TIP3    H132826   6.450   2.825   8.580  1.5838  2.0587  1.1422
 2877TIP3    H232827   6.358   2.920   8.654 -1.5175  0.1020  0.0245
 2878TIP3   OH232828   1.683   4.120  11.827 -0.2347  0.1449 -0.0462
 2878TIP3    H132829   1.627   4.185  11.869  0.0497  0.3012  0.0901
 2878TIP3    H232830   1.755   4.107  11.888  0.6238  0.9854 -0.8365
 2879TIP3   OH232831   6.275   4.894   8.859  0.2052 -0.1565  0.2311
 2879TIP3    H132832   6.362   4.932   8.857  0.8377 -1.4674  1.1201
 2879TIP3    H232833   6.262   4.868   8.950 -1.2019  0.2066  0.1524
 2880TIP3   OH232834   6.264   4.060   9.548 -0.0355 -0.0742 -0.1013
 2880TIP3    H132835   6.333   4.088   9.608 -0.6934 -0.6917  0.9649
 2880TIP3    H232836   6.190   4.118   9.567  0.5644  1.5256 -2.1993
 2881TIP3   OH232837   0.017   6.509  11.649  0.3689  0.2602 -0.2397
 2881TIP3    H132838   0.060   6.593  11.634  0.3400  0.0407 -1.6308
 2881TIP3    H232839  -0.025   6.519  11.735 -1.5098  2.4841 -1.2957
 2882TIP3   OH232840   2.108   0.083  11.531 -0.8645 -0.7040 -0.3731
 2882TIP3    H132841   2.174   0.105  11.597 -2.4991 -2.8656  2.1888
 2882TIP3    H232842   2.043   0.153  11.537 -0.2077 -0.0229 -0.9452
 2883TIP3   OH232843   0.314   1.215  11.860 -0.4124 -0.2302 -0.0196
 2883TIP3    H132844   0.251   1.277  11.898  0.2683 -1.1629  2.9034
 2883TIP3    H232845   0.400   1.251  11.884  0.0027 -2.3592  2.0986
 2884TIP3   OH232846   6.346   3.826  11.894 -0.7178  0.6368  0.7730
 2884TIP3    H132847   6.388   3.743  11.873  0.1667  1.1455  0.4736
 2884TIP3    H232848   6.387   3.853  11.976 -0.5031  1.1103  0.5120
 2885TIP3   OH232849   6.644   3.858  11.201  0.4654  0.2975 -0.6296
 2885TIP3    H132850   6.617   3.880  11.291  0.9278  1.0239 -0.6708
 2885TIP3    H232851   6.609   3.929  11.148 -0.1623 -0.3414 -1.0951
 2886TIP3   OH232852   6.240   0.989  10.058 -0.2216  0.0655 -0.2414
 2886TIP3    H132853   6.159   0.995  10.108 -0.2102  1.6966 -0.3668
 2886TIP3    H232854   6.308   1.022  10.118 -0.2004  1.9887 -1.2503
 2887TIP3   OH232855   3.009   0.128  11.663  0.5576  0.7066 -0.3665
 2887TIP3    H132856   2.953   0.162  11.593 -1.3001 -1.7144 -0.1782
 2887TIP3    H232857   3.082   0.087  11.617 -0.1023  0.0529 -0.8399
 2888TIP3   OH232858   3.979   1.573  10.305 -0.3843  0.0397  0.2496
 2888TIP3    H132859   3.915   1.623  10.254 -0.6180  0.2441  0.7352
 2888TIP3    H232860   4.064   1.605  10.275 -0.5320  0.8643  0.6729
 2889TIP3   OH232861   4.449   0.450   8.788  0.7455 -0.5710 -0.1628
 2889TIP3    H132862   4.517   0.430   8.724  1.8159 -1.7072  1.2558
 2889TIP3    H232863   4.443   0.545   8.788 -1.0526 -0.4948 -3.6604
 2890TIP3   OH232864   2.423   1.836  10.881 -0.5511  0.0432  0.8097
 2890TIP3    H132865   2.358   1.818  10.948  0.9686 -1.8725  1.8660
 2890TIP3    H232866   2.413   1.765  10.817 -0.2808  0.4021  0.3560
 2891TIP3   OH232867   1.121   5.476  10.792  0.4116 -0.0664 -0.3546
 2891TIP3    H132868   1.132   5.570  10.809 -2.6026  0.8186 -2.5160
 2891TIP3    H232869   1.067   5.446  10.865 -0.3005  0.3654 -0.6932
 2892TIP3   OH232870   6.306   1.500   9.427 -0.1303  0.1641 -0.0972
 2892TIP3    H132871   6.294   1.405   9.425  0.9350  0.0211 -1.6954
 2892TIP3    H232872   6.243   1.533   9.362 -0.3051  0.5261  0.2553
 2893TIP3   OH232873   5.442   0.990  10.197  0.2174 -0.2090  0.0104
 2893TIP3    H132874   5.452   1.057  10.264  0.8488  0.6057 -0.8837
 2893TIP3    H232875   5.523   0.940  10.200  1.1691  1.1518 -1.5437
 2894TIP3   OH232876   2.690   4.044  10.944  0.2601  0.1468 -0.0772
 2894TIP3    H132877   2.766   4.022  10.889  0.2598 -0.2714  0.0825
 2894TIP3    H232878   2.640   3.963  10.948  0.1618  0.2279  0.3837
 2895TIP3   OH232879   5.797   1.131  11.472  0.2685 -0.0409  0.4335
 2895TIP3    H132880   5.715   1.179  11.464  0.1375 -0.4387 -0.8509
 2895TIP3    H232881   5.819   1.137  11.565 -0.0481  1.9581  0.4262
 2896TIP3   OH232882   0.462   1.029   9.288  0.3422 -0.1552  0.6718
 2896TIP3    H132883   0.431   1.051   9.200  1.6335 -2.1094 -0.3205
 2896TIP3    H232884   0.399   0.965   9.321  0.3221 -0.0454  0.8502
 2897TIP3   OH232885   0.731   2.846   9.131  0.2297 -0.0204 -0.1976
 2897TIP3    H132886   0.644   2.808   9.121  0.6737 -0.6183 -2.7944
 2897TIP3    H232887   0.761   2.860   9.041  2.6769  0.4737  0.6097
 2898TIP3   OH232888   3.455   1.120  11.635 -0.9496  0.1565 -0.5981
 2898TIP3    H132889   3.485   1.210  11.622  1.8012 -0.6889 -0.6840
 2898TIP3    H232890   3.520   1.066  11.589 -0.7639 -2.0267  1.9548
 2899TIP3   OH232891   1.276   1.165  10.930  0.1130  0.0622 -0.3655
 2899TIP3    H132892   1.321   1.081  10.938 -0.5225 -0.2422  0.1003
 2899TIP3    H232893   1.188   1.149  10.965 -0.4694  0.5606 -1.5527
 2900TIP3   OH232894   5.428   6.001  11.365 -0.0493  0.2214 -0.1669
 2900TIP3    H132895   5.377   5.951  11.430  0.5936  0.4005  0.4873
 2900TIP3    H232896   5.415   5.953  11.283 -0.5583 -0.2348  0.1699
 2901TIP3   OH232897   3.895   3.477  11.582 -0.7244 -0.6761  0.0608
 2901TIP3    H132898   3.872   3.497  11.673 -0.4171  0.2187 -0.0512
 2901TIP3    H232899   3.960   3.407  11.589 -0.8937 -0.7944  0.5157
 2902TIP3   OH232900   4.329   1.942  11.591  0.2886  0.2901  0.0465
 2902TIP3    H132901   4.383   2.000  11.645 -0.0082  2.0210 -1.4338
 2902TIP3    H232902   4.380   1.928  11.511 -0.1652 -0.5441 -0.1143
 2903TIP3   OH232903   4.647   0.451   8.606  0.1550 -0.7003 -0.4437
 2903TIP3    H132904   4.715   0.384   8.620  0.8039  0.3058  1.7083
 2903TIP3    H232905   4.693   0.522   8.562 -0.5032 -1.5187 -2.5994
 2904TIP3   OH232906   1.144   1.881   9.220  0.3999  0.1129  1.2538
 2904TIP3    H132907   1.119   1.868   9.129 -1.3009  0.9474  1.5484
 2904TIP3    H232908   1.069   1.850   9.270  0.5677  1.2649  2.2832
 2905TIP3   OH232909   6.507   4.931  11.756  0.4919 -0.3074 -0.5919
 2905TIP3    H132910   6.419   4.963  11.733  0.1866 -0.1696  0.7218
 2905TIP3    H232911   6.561   5.010  11.758  0.8224 -0.4633 -2.0495
 2906TIP3   OH232912   5.982   0.269   9.992 -0.0690 -0.2936 -0.6222
 2906TIP3    H132913   5.893   0.247  10.019 -0.2397 -0.6603 -1.4684
 2906TIP3    H232914   6.020   0.186   9.963  0.6645 -0.2027  0.0351
 2907TIP3   OH232915   0.058   2.316   8.692 -0.7278  0.0667 -0.5849
 2907TIP3    H132916  -0.005   2.369   8.645  0.0988 -0.6521 -2.6075
 2907TIP3    H232917   0.138   2.319   8.639 -0.1755 -1.9240  0.0072
 2908TIP3   OH232918   6.053   2.211   8.939 -0.2455  0.2149  0.6725
 2908TIP3    H132919   6.057   2.215   8.843  0.2882 -0.9615  0.6281
 2908TIP3    H232920   5.974   2.162   8.958  1.1310 -2.1564  0.7066
 2909TIP3   OH232921   1.174   4.844  11.456 -0.0360  0.0159 -0.1131
 2909TIP3    H132922   1.266   4.843  11.431 -0.3974 -2.3164 -1.6068
 2909TIP3    H232923   1.126   4.823  11.375 -1.6280 -2.2818  1.3158
 2910TIP3   OH232924   2.030   4.289   8.341 -0.4188 -0.2404 -0.3721
 2910TIP3    H132925   2.027   4.224   8.271 -0.3859  0.4327 -1.0154
 2910TIP3    H232926   1.991   4.368   8.302  0.3321  0.3816  0.1019
 2911TIP3   OH232927   3.601   3.716  10.577 -0.7625 -0.3758  0.6481
 2911TIP3    H132928   3.547   3.786  10.614 -1.3484 -0.1952 -0.4956
 2911TIP3    H232929   3.663   3.762  10.519 -1.3932 -0.8175 -0.3937
 2912TIP3   OH232930   4.461   3.649   9.538 -0.4876  0.0286 -0.5284
 2912TIP3    H132931   4.409   3.728   9.528 -1.3535 -0.5892 -1.0230
 2912TIP3    H232932   4.470   3.614   9.450  1.4055  0.4923 -0.5622
 2913TIP3   OH232933   5.729   5.886   9.202 -0.0396 -0.1987 -0.3666
 2913TIP3    H132934   5.668   5.896   9.129 -1.6961 -0.9381  0.8441
 2913TIP3    H232935   5.739   5.974   9.238  1.0183  0.2176 -1.6372
 2914TIP3   OH232936   1.427   0.921  10.963  0.3247 -0.1722 -0.4940
 2914TIP3    H132937   1.448   0.831  10.942  0.3964 -0.8810  2.2421
 2914TIP3    H232938   1.365   0.915  11.036 -1.1753  1.9956 -1.4639
 2915TIP3   OH232939   6.389   1.876   7.933  0.2156 -0.0972  0.4660
 2915TIP3    H132940   6.364   1.801   7.987  1.4144 -1.5062 -0.8431
 2915TIP3    H232941   6.313   1.891   7.877 -0.2908  0.1367  1.1972
 2916TIP3   OH232942   3.857   2.322  11.684  0.1238  0.1674 -0.0457
 2916TIP3    H132943   3.853   2.396  11.745 -1.0475  0.9231 -0.9854
 2916TIP3    H232944   3.921   2.263  11.723 -0.1664  0.8799  1.6268
 2917TIP3   OH232945   2.435   4.213  10.471 -0.1439  0.2116 -0.6094
 2917TIP3    H132946   2.421   4.161  10.550 -0.1534 -0.1173 -0.8259
 2917TIP3    H232947   2.527   4.238  10.474 -0.0349 -0.1771 -0.7211
 2918TIP3   OH232948   6.321   1.926  10.144  0.2196 -0.0808  0.1499
 2918TIP3    H132949   6.410   1.938  10.177  1.6770 -2.8925 -2.1984
 2918TIP3    H232950   6.301   2.007  10.097  0.6481  1.3870  2.3659
 2919TIP3   OH232951   5.999   4.623   9.223 -0.3192  0.2637  0.7940
 2919TIP3    H132952   5.908   4.649   9.233 -0.9002 -1.6773  0.9229
 2919TIP3    H232953   5.997   4.528   9.218  1.7377  0.1540  1.0417
 2920TIP3   OH232954   0.550   1.786   9.053  0.0473 -0.6514 -0.3569
 2920TIP3    H132955   0.612   1.771   8.982  1.0630  2.2374 -0.2011
 2920TIP3    H232956   0.487   1.849   9.017  0.4616  0.7176  1.1970
 2921TIP3   OH232957   1.999   2.497  11.804  0.3831 -0.3248  0.5833
 2921TIP3    H132958   1.912   2.522  11.772  0.3494 -0.3237  0.6747
 2921TIP3    H232959   1.982   2.453  11.888  0.3416 -1.7266 -0.1348
 2922TIP3   OH232960   2.260   5.360   9.927 -0.0154  0.7071  0.0590
 2922TIP3    H132961   2.186   5.308   9.959  1.1943 -2.2646 -1.6080
 2922TIP3    H232962   2.219   5.433   9.880 -1.8355  0.2499  0.8386
 2923TIP3   OH232963   4.014   0.082  10.086  0.6197 -0.3872  0.2186
 2923TIP3    H132964   4.036  -0.005  10.119  0.2367 -0.6080 -0.0992
 2923TIP3    H232965   4.022   0.139  10.162  1.3603 -0.6152  0.3178
 2924TIP3   OH232966   6.232   6.206  12.001 -0.3006  0.2841 -0.1558
 2924TIP3    H132967   6.228   6.302  12.003  1.1614  0.3595  0.1563
 2924TIP3    H232968   6.246   6.185  11.909 -1.9276  0.2783 -0.4301
 2925TIP3   OH232969   0.830   2.937  11.612 -0.1942  0.1516 -0.0100
 2925TIP3    H132970   0.860   2.991  11.539  1.0807  1.7393  1.5805
 2925TIP3    H232971   0.869   2.978  11.689 -1.9512 -1.1111  1.6402
 2926TIP3   OH232972   5.476   5.973   9.564 -0.7340 -0.2806  0.2734
 2926TIP3    H132973   5.467   5.883   9.595  0.8463 -0.7856 -0.5834
 2926TIP3    H232974   5.487   6.025   9.643  0.3108 -1.1360  0.7251
 2927TIP3   OH232975   1.076   4.304   9.115  0.3154 -0.0076  0.0110
 2927TIP3    H132976   1.119   4.360   9.181 -1.7597 -0.4855  1.9003
 2927TIP3    H232977   1.115   4.330   9.032  1.6080  2.0723  1.1854
 2928TIP3   OH232978   1.384   3.347   9.164  0.0483  0.1326 -0.7393
 2928TIP3    H132979   1.325   3.282   9.203 -0.6313 -0.3971 -2.5570
 2928TIP3    H232980   1.378   3.422   9.223 -1.6176 -0.3121 -0.2852
 2929TIP3   OH232981   4.275   2.786   9.318  0.0920 -0.2965 -0.2715
 2929TIP3    H132982   4.310   2.855   9.375  0.0396  0.1066 -0.7207
 2929TIP3    H232983   4.213   2.831   9.261 -2.2433 -1.1886  1.3750
 2930TIP3   OH232984   2.757   4.909  10.959 -0.1101  0.1160  0.1732
 2930TIP3    H132985   2.693   4.907  10.887  1.0657 -1.3362 -0.8814
 2930TIP3    H232986   2.737   4.831  11.011  1.6602 -1.1774 -0.9910
 2931TIP3   OH232987   3.055   5.601   9.790 -0.1743  0.0106  0.2250
 2931TIP3    H132988   3.103   5.682   9.809 -2.4099  1.6091 -0.4015
 2931TIP3    H232989   3.001   5.586   9.868  0.3938 -1.0447  0.4319
 2932TIP3   OH232990   5.034   1.936  10.907 -0.1887  0.1244 -0.2428
 2932TIP3    H132991   4.957   1.992  10.897  0.3365  0.6958 -1.2965
 2932TIP3    H232992   5.074   1.935  10.820  0.8838 -0.3329  0.2364
 2933TIP3   OH232993   4.055   5.499  10.555  0.2613  0.2336 -0.3763
 2933TIP3    H132994   4.030   5.410  10.533 -0.7929  0.4554 -0.1022
 2933TIP3    H232995   4.016   5.515  10.641  1.1295  0.6862 -0.0481
 2934TIP3   OH232996   1.270   4.024  11.290  0.4117 -0.4039  0.2469
 2934TIP3    H132997   1.202   3.984  11.344 -0.2223 -0.3591 -0.4916
 2934TIP3    H232998   1.223   4.092  11.241  0.9589 -0.4942 -0.4081
 2935TIP3   OH232999   0.632   4.747  10.279  0.2354  0.2885 -0.0816
 2935TIP3    H133000   0.719   4.770  10.244  0.6293  3.1979  2.4219
 2935TIP3    H233001   0.587   4.831  10.288 -1.7520 -0.8700  1.4289
 2936TIP3   OH233002   6.766   0.767   8.044  0.6143  0.7029  0.4545
 2936TIP3    H133003   6.858   0.789   8.056  1.0396  0.4141 -1.8332
 2936TIP3    H233004   6.755   0.683   8.088  1.9281 -0.1452 -0.7537
 2937TIP3   OH233005   2.077   6.468   9.659 -0.1599  0.5244 -0.6443
 2937TIP3    H133006   2.170   6.488   9.663 -0.0540 -0.1443  1.8094
 2937TIP3    H233007   2.068   6.387   9.710 -2.0093  0.3273 -1.2265
 2938TIP3   OH233008   5.799   1.683  11.100  0.5556 -0.3741  0.1107
 2938TIP3    H133009   5.750   1.761  11.073  0.2404 -0.7705 -0.4820
 2938TIP3    H233010   5.776   1.671  11.192 -0.1129 -0.2900 -0.0399
 2939TIP3   OH233011   3.439   0.773   9.234  0.3428  0.1705 -0.0303
 2939TIP3    H133012   3.445   0.743   9.143  1.6157 -0.1848  0.1583
 2939TIP3    H233013   3.383   0.851   9.229 -0.9744 -0.7763 -0.8707
 2940TIP3   OH233014   6.790   4.298   9.086  0.2118  0.3595  0.3957
 2940TIP3    H133015   6.753   4.380   9.055  0.4220 -1.0084 -4.1245
 2940TIP3    H233016   6.879   4.296   9.050  0.5268 -1.4838  1.1518
 2941TIP3   OH233017   3.996   2.572   8.725  0.4742 -0.1748 -0.1921
 2941TIP3    H133018   4.069   2.633   8.738  1.2064 -1.4736  2.4465
 2941TIP3    H233019   3.917   2.626   8.737  1.0965  0.3676  1.7055
 2942TIP3   OH233020   1.769   2.365  11.187 -0.0596 -0.1678  0.0961
 2942TIP3    H133021   1.748   2.274  11.168 -0.7424 -0.0475  0.2323
 2942TIP3    H233022   1.789   2.367  11.280  0.5126 -0.2704 -0.0207
 2943TIP3   OH233023   2.706   1.811   9.308  0.8954  0.2020  0.3417
 2943TIP3    H133024   2.637   1.877   9.302 -1.4882 -2.1375  0.0009
 2943TIP3    H233025   2.704   1.767   9.223  2.4867 -0.2624  0.5286
 2944TIP3   OH233026   1.497   6.156   9.819  0.1070  0.0635  0.7382
 2944TIP3    H133027   1.433   6.107   9.871  0.0718  0.1625  0.7893
 2944TIP3    H233028   1.457   6.162   9.732 -0.5923  1.3318  1.1315
 2945TIP3   OH233029   1.788   2.149  10.351 -0.6505  0.6496  0.1842
 2945TIP3    H133030   1.791   2.099  10.432  0.6858  0.3872 -0.0048
 2945TIP3    H233031   1.775   2.240  10.379  0.6527  0.6796  0.7544
 2946TIP3   OH233032   5.855   0.769   8.776 -0.5428 -0.2978  0.2399
 2946TIP3    H133033   5.938   0.756   8.822 -0.4309 -0.2004  0.0655
 2946TIP3    H233034   5.798   0.809   8.841 -0.1974  0.4085  0.1147
 2947TIP3   OH233035   3.362   0.980   8.886 -0.2424  0.7194  0.7781
 2947TIP3    H133036   3.288   1.040   8.895 -0.6169  0.1538  1.5246
 2947TIP3    H233037   3.351   0.941   8.799 -1.9854 -0.8660  1.6482
 2948TIP3   OH233038   1.023   3.405   8.326  0.3090 -0.2818  0.1482
 2948TIP3    H133039   1.112   3.394   8.292  0.1530  1.3578 -0.8922
 2948TIP3    H233040   1.034   3.450   8.409  0.4102  1.6698 -0.8691
 2949TIP3   OH233041   6.005   3.950  10.326 -1.0636 -0.2350 -0.3269
 2949TIP3    H133042   5.954   3.921  10.402  1.1784  1.6162  2.0640
 2949TIP3    H233043   6.016   4.044  10.340  2.8392 -0.4772 -0.6873
 2950TIP3   OH233044   3.259   5.382   9.739 -0.2843 -0.0635  0.4649
 2950TIP3    H133045   3.273   5.425   9.823 -2.2285 -1.1907  1.4168
 2950TIP3    H233046   3.179   5.331   9.750  0.5454 -1.9279 -1.4153
 2951TIP3   OH233047   1.677   2.341  10.663  0.3017  0.3212 -0.5041
 2951TIP3    H133048   1.674   2.385  10.578  0.4832  0.1043 -0.6252
 2951TIP3    H233049   1.759   2.371  10.702  0.3363  0.2331 -0.5087
 2952TIP3   OH233050   5.689   5.036   8.644  0.0441  0.0647  0.6442
 2952TIP3    H133051   5.639   5.101   8.594  1.3034  0.6548  0.1072
 2952TIP3    H233052   5.734   5.086   8.711  2.2948  0.0477 -0.7593
 2953TIP3   OH233053   1.350   1.589  11.140 -0.4334 -0.1699 -0.2173
 2953TIP3    H133054   1.345   1.526  11.212 -1.2336  0.7283  0.5313
 2953TIP3    H233055   1.443   1.589  11.115 -0.1824 -0.6492  0.6709
 2954TIP3   OH233056   1.479   5.008  10.680 -0.4203  0.1937 -0.3987
 2954TIP3    H133057   1.446   4.919  10.667 -2.0276  0.6823  0.0475
 2954TIP3    H233058   1.459   5.028  10.772  3.0937 -0.1967  0.5785
 2955TIP3   OH233059   4.629   2.620  10.649  0.8885  0.1194  0.1888
 2955TIP3    H133060   4.698   2.681  10.675  1.9735 -1.2991  0.7732
 2955TIP3    H233061   4.577   2.669  10.585  1.0909  1.9955  1.3729
 2956TIP3   OH233062   6.578   0.230  11.641 -0.2254 -0.2076 -0.4956
 2956TIP3    H133063   6.532   0.227  11.557  2.1335  1.3366 -1.9435
 2956TIP3    H233064   6.520   0.281  11.698 -0.0186  2.5891 -2.5561
 2957TIP3   OH233065   5.154   2.940   9.740  0.7068 -0.2830 -0.4392
 2957TIP3    H133066   5.120   2.894   9.817  0.9448 -0.9375 -0.7219
 2957TIP3    H233067   5.097   2.912   9.668  0.0139  0.9062 -0.3734
 2958TIP3   OH233068   0.873   4.104  11.672 -0.2977 -0.2081  0.0396
 2958TIP3    H133069   0.957   4.117  11.716  0.0197  0.5255 -0.7669
 2958TIP3    H233070   0.808   4.126  11.740  0.0328 -3.3127  1.5254
 2959TIP3   OH233071   5.711   6.130  11.791 -0.1773  0.1415 -0.3684
 2959TIP3    H133072   5.639   6.081  11.831 -0.5369  1.0621  0.1417
 2959TIP3    H233073   5.788   6.104  11.840 -0.2501 -0.4128 -0.5386
 2960TIP3   OH233074   0.425   5.197  10.659 -0.0962  0.6816 -0.7994
 2960TIP3    H133075   0.359   5.250  10.704 -0.9703  0.1130 -1.3878
 2960TIP3    H233076   0.509   5.226  10.697 -0.7803  0.2626  1.1384
 2961TIP3   OH233077   0.223   4.154  11.688  0.3021  0.4271  0.0152
 2961TIP3    H133078   0.270   4.084  11.641  2.4096  1.2370  0.7714
 2961TIP3    H233079   0.179   4.204  11.619  0.5657 -0.3696 -0.7470
 2962TIP3   OH233080   4.685   0.070  10.039  0.0382  0.0071  0.0711
 2962TIP3    H133081   4.656   0.027  10.119  2.7454 -1.5759  0.3093
 2962TIP3    H233082   4.723   0.153  10.069 -2.0723  1.0643 -0.0205
 2963TIP3   OH233083   4.378   4.631  10.789 -0.1243 -0.2545  0.2114
 2963TIP3    H133084   4.442   4.652  10.856 -0.4151 -1.2168  0.8062
 2963TIP3    H233085   4.393   4.539  10.769  1.2343  0.4440 -2.4557
 2964TIP3   OH233086   6.479   3.515  10.440  0.4793 -0.0461  0.5780
 2964TIP3    H133087   6.480   3.603  10.477  0.8420 -0.4751  1.6544
 2964TIP3    H233088   6.510   3.459  10.512  0.7979 -0.9779 -0.2602
 2965TIP3   OH233089   2.519   3.950  10.175  0.3555  0.1524  0.9966
 2965TIP3    H133090   2.587   4.017  10.169  0.7797 -0.3884 -2.6790
 2965TIP3    H233091   2.440   3.997  10.198  0.6877  2.0025 -1.2449
 2966TIP3   OH233092   0.550   1.176   8.530 -0.6040  0.3366 -0.3205
 2966TIP3    H133093   0.483   1.202   8.467 -0.7097 -0.6726 -0.6514
 2966TIP3    H233094   0.560   1.252   8.587 -1.9462  0.5631 -0.3365
 2967TIP3   OH233095   5.751   3.144  11.471 -0.3220 -0.5989 -0.1567
 2967TIP3    H133096   5.694   3.067  11.466 -1.5815  0.3773 -1.8465
 2967TIP3    H233097   5.790   3.150  11.384 -0.5063  0.8445 -0.1659
 2968TIP3   OH233098   2.428   1.490   8.759 -0.4328  0.1498  0.0601
 2968TIP3    H133099   2.430   1.420   8.693  1.3315 -0.1491  0.4037
 2968TIP3    H233100   2.405   1.568   8.709 -0.8248 -0.3741 -0.6071
 2969TIP3   OH233101   5.916   1.311  11.250  0.8459 -0.3468 -0.0999
 2969TIP3    H133102   5.827   1.282  11.230  0.6579 -0.1406  0.4216
 2969TIP3    H233103   5.938   1.268  11.333  0.7369  0.6090  0.4452
 2970TIP3   OH233104   4.899   4.432  11.132  0.2004  0.1062  0.7337
 2970TIP3    H133105   4.870   4.478  11.211  1.4333 -0.4271  1.5350
 2970TIP3    H233106   4.938   4.350  11.165 -0.8218 -0.9334 -0.5723
 2971TIP3   OH233107   3.838   1.139   9.755 -0.1121  0.2310 -0.2286
 2971TIP3    H133108   3.747   1.148   9.785 -0.6562 -1.5182 -1.1443
 2971TIP3    H233109   3.854   1.044   9.757  2.0372  0.5598  0.7922
 2972TIP3   OH233110   3.835   2.849  10.796  0.5783 -0.1058  0.1822
 2972TIP3    H133111   3.819   2.908  10.870  0.3559 -0.7372  0.6430
 2972TIP3    H233112   3.757   2.793  10.793  0.2327  0.3981 -1.0056
 2973TIP3   OH233113   4.152   6.030  10.311 -0.1340 -0.3718  0.0633
 2973TIP3    H133114   4.184   6.038  10.400 -0.9815  3.2611  0.1967
 2973TIP3    H233115   4.231   6.015  10.258  0.7543  0.3822  1.1420
 2974TIP3   OH233116   2.966   3.738  12.094  0.4308 -0.1222 -0.3209
 2974TIP3    H133117   2.884   3.698  12.120  0.0745  0.6162 -0.2744
 2974TIP3    H233118   3.004   3.677  12.031 -1.1457  0.4700 -1.9271
 2975TIP3   OH233119   0.891   5.755   9.253 -0.0027  0.3485 -0.3638
 2975TIP3    H133120   0.829   5.764   9.326 -0.1313  0.4044 -0.4811
 2975TIP3    H233121   0.971   5.795   9.285  0.9065 -2.2639  0.9036
 2976TIP3   OH233122   1.758   2.707   9.523  0.7322  0.4128  0.0325
 2976TIP3    H133123   1.784   2.789   9.481 -0.1229 -0.3954 -2.2582
 2976TIP3    H233124   1.688   2.673   9.467  1.1797 -1.9646  0.7970
 2977TIP3   OH233125   1.692   3.631  10.101  0.2880 -0.3150  0.1264
 2977TIP3    H133126   1.620   3.608  10.042  0.2253 -1.8169  0.7528
 2977TIP3    H233127   1.649   3.644  10.186  0.6710 -0.5841  0.3637
 2978TIP3   OH233128   5.301   0.035   9.487  0.3708  0.2009 -0.5916
 2978TIP3    H133129   5.269   0.048   9.576  1.9369 -2.1827  0.4198
 2978TIP3    H233130   5.221   0.024   9.435 -0.5650  1.3552  0.5241
 2979TIP3   OH233131   6.659   0.252   8.769 -0.5476  0.2337 -0.4282
 2979TIP3    H133132   6.572   0.241   8.731 -0.4236 -0.5903 -0.5070
 2979TIP3    H233133   6.690   0.162   8.784  0.8840  0.4514 -1.7713
 2980TIP3   OH233134   1.642   6.295  10.083  0.3165 -0.1298  0.3171
 2980TIP3    H133135   1.604   6.263  10.002  1.7412  0.0666 -0.4648
 2980TIP3    H233136   1.717   6.348  10.056  0.2109  0.8079  1.7292
 2981TIP3   OH233137   6.243   4.488  11.284 -0.1565 -0.1761  0.4730
 2981TIP3    H133138   6.239   4.452  11.195 -1.8782  2.0996 -0.4417
 2981TIP3    H233139   6.222   4.413  11.340  1.4803 -1.7993 -0.9194
 2982TIP3   OH233140   2.151   6.465  10.345 -0.3609  0.2095 -0.1633
 2982TIP3    H133141   2.239   6.485  10.312  0.0460 -0.9227  0.2128
 2982TIP3    H233142   2.123   6.390  10.294 -0.4301 -0.4684  0.8492
 2983TIP3   OH233143   0.774   4.254   9.879 -0.0287  0.5657  0.3445
 2983TIP3    H133144   0.681   4.271   9.894 -0.0654  1.4056 -0.7058
 2983TIP3    H233145   0.807   4.222   9.963 -1.0203  1.3881  1.0652
 2984TIP3   OH233146   6.664   1.725   9.208  0.1815  0.2956  0.4214
 2984TIP3    H133147   6.587   1.776   9.184  0.5506  1.3553  1.4259
 2984TIP3    H233148   6.640   1.635   9.186 -1.1313  0.6668  0.2265
 2985TIP3   OH233149   5.749   0.869   9.281  0.0957 -0.0152 -0.4566
 2985TIP3    H133150   5.737   0.889   9.374  1.8771 -1.9330  0.2744
 2985TIP3    H233151   5.706   0.785   9.269  1.2836 -0.5876 -0.9281
 2986TIP3   OH233152   3.511   3.479  10.292 -0.2240 -0.2325 -0.1508
 2986TIP3    H133153   3.517   3.562  10.245 -0.1684  0.4015  0.9561
 2986TIP3    H233154   3.417   3.464  10.302 -0.2500 -0.6746 -0.9736
 2987TIP3   OH233155   3.465   0.755  11.464 -0.0012 -0.3032  0.1003
 2987TIP3    H133156   3.479   0.661  11.449 -0.5982 -0.6867  1.6998
 2987TIP3    H233157   3.485   0.767  11.557  1.3245  1.4253 -0.3696
 2988TIP3   OH233158   2.606   3.438   9.881 -0.2519  0.2327  0.1658
 2988TIP3    H133159   2.586   3.524   9.917  0.2671  0.3544  0.1680
 2988TIP3    H233160   2.521   3.399   9.863 -0.4860  0.7672  0.1107
 2989TIP3   OH233161   1.250   3.084   7.892  0.1718  0.5437 -0.1444
 2989TIP3    H133162   1.234   3.174   7.920  0.6421  0.6512 -0.2122
 2989TIP3    H233163   1.163   3.049   7.873 -0.1614  0.4973  1.3305
 2990TIP3   OH233164   1.947   3.258   9.630 -0.1801  0.2905  0.3162
 2990TIP3    H133165   1.968   3.281   9.540 -0.9821  0.4410  0.1620
 2990TIP3    H233166   2.000   3.181   9.648 -0.4234 -0.0672 -0.4711
 2991TIP3   OH233167   0.130   2.926   8.134  0.1301  0.4020  0.7071
 2991TIP3    H133168   0.208   2.976   8.161  0.8194 -0.0609 -0.3621
 2991TIP3    H233169   0.157   2.835   8.141 -0.8319  0.1799  1.7781
 2992TIP3   OH233170   0.650   0.716   9.370 -0.6878 -0.4905 -0.1621
 2992TIP3    H133171   0.694   0.767   9.302  0.7608  0.5765  1.4712
 2992TIP3    H233172   0.682   0.627   9.358 -0.9992 -0.4496 -1.3107
 2993TIP3   OH233173   5.340   3.041  11.413 -0.1248 -0.1832 -0.1455
 2993TIP3    H133174   5.257   3.022  11.458 -0.9374 -0.5184 -1.6969
 2993TIP3    H233175   5.338   3.135  11.397 -1.1968 -0.4441 -1.9045
 2994TIP3   OH233176   1.664   1.049  10.538  0.1739  0.0152  0.0026
 2994TIP3    H133177   1.695   0.971  10.494 -1.2116 -0.5857  0.0258
 2994TIP3    H233178   1.583   1.022  10.581 -0.1104  1.3520  0.3728
 2995TIP3   OH233179   2.523   6.368  10.239  0.2662 -0.4236 -0.0754
 2995TIP3    H133180   2.538   6.363  10.145 -2.7724 -0.3453 -0.6454
 2995TIP3    H233181   2.554   6.455  10.264 -0.2571  0.1309 -1.3019
 2996TIP3   OH233182   0.395   1.683   9.504 -0.0065 -0.5955 -0.3062
 2996TIP3    H133183   0.337   1.726   9.441  1.1363  0.8476 -0.4230
 2996TIP3    H233184   0.336   1.633   9.560 -1.4442  1.0726 -0.2157
 2997TIP3   OH233185   3.238   1.827  10.807 -0.3416 -0.1778  0.3394
 2997TIP3    H133186   3.330   1.838  10.783 -0.2922 -1.2267 -0.0093
 2997TIP3    H233187   3.235   1.848  10.900  0.6031 -1.8212  0.7717
 2998TIP3   OH233188   3.005   1.774   9.197 -0.4843 -0.2296 -0.5377
 2998TIP3    H133189   2.954   1.751   9.120  0.1654 -2.6276 -0.3332
 2998TIP3    H233190   2.973   1.715   9.266  0.1364  0.6668  0.5682
 2999TIP3   OH233191   1.263   2.221   9.929  0.0533  0.8201  0.3091
 2999TIP3    H133192   1.178   2.262   9.914 -0.8307 -0.7391  0.8334
 2999TIP3    H233193   1.287   2.246  10.018 -0.0496  0.9397  0.3038
 3000TIP3   OH233194   0.637   5.713  10.991  0.1111  0.5630  0.1872
 3000TIP3    H133195   0.576   5.787  10.992 -0.1258  0.4385 -1.4838
 3000TIP3    H233196   0.722   5.753  10.975  0.1378  0.5657  0.3390
 3001TIP3   OH233197   3.807   0.220   9.301 -0.2088  0.5460  0.3493
 3001TIP3    H133198   3.748   0.287   9.266  0.6200  0.5391 -1.1422
 3001TIP3    H233199   3.834   0.169   9.224  0.7421 -0.2414  1.1728
 3002TIP3   OH233200   3.512   6.615   9.979  0.2242 -0.2393  0.0626
 3002TIP3    H133201   3.419   6.638   9.968  0.2493  1.1254  2.1370
 3002TIP3    H233202   3.520   6.529   9.939 -1.7569 -0.0463 -0.8833
 3003TIP3   OH233203   1.655   1.890  10.275 -0.0320 -0.6359  0.8043
 3003TIP3    H133204   1.645   1.971  10.325  1.6235 -0.0654  0.2844
 3003TIP3    H233205   1.625   1.821  10.334 -2.0207  0.3851  1.0522
 3004TIP3   OH233206   2.880   4.543   9.752 -0.3996 -0.6186  0.0206
 3004TIP3    H133207   2.905   4.535   9.659  0.9678 -1.8630  0.4541
 3004TIP3    H233208   2.892   4.455   9.787 -0.5179 -0.0681  1.4819
 3005TIP3   OH233209   5.830   2.692   9.558 -0.1193  0.2541 -0.3827
 3005TIP3    H133210   5.822   2.597   9.561  0.9169  0.1760  0.9524
 3005TIP3    H233211   5.910   2.707   9.507  0.2456  0.3561  0.2092
 3006TIP3   OH233212   5.887   2.408   9.581 -0.0627 -0.2569 -0.1939
 3006TIP3    H133213   5.937   2.455   9.648 -2.3140  0.6927  0.9254
 3006TIP3    H233214   5.924   2.320   9.580 -0.8615 -0.7616  3.3932
 3007TIP3   OH233215   4.565   3.087   9.306 -0.3410 -0.2163  0.2858
 3007TIP3    H133216   4.632   3.039   9.257 -2.1312 -0.5284 -2.0567
 3007TIP3    H233217   4.610   3.165   9.337  1.7665 -1.7017  1.2061
 3008TIP3   OH233218   3.117   0.311   9.484  0.3811 -0.3720  0.4932
 3008TIP3    H133219   3.174   0.344   9.554  2.5026 -2.7243 -0.0080
 3008TIP3    H233220   3.162   0.335   9.403 -1.5336  1.3889 -0.1517
 3009TIP3   OH233221   0.127   6.301   8.362 -0.0509  0.3389 -0.4646
 3009TIP3    H133222   0.045   6.340   8.393 -0.1174  0.2109 -0.4791
 3009TIP3    H233223   0.195   6.343   8.414 -0.1647  0.1012 -0.1195
 3010TIP3   OH233224   0.050   5.829   8.427 -0.1574 -0.2607  0.6734
 3010TIP3    H133225  -0.001   5.844   8.348 -0.6447 -1.7814  0.6758
 3010TIP3    H233226   0.114   5.900   8.428  0.7903 -0.9854 -1.8575
 3011TIP3   OH233227   5.413   0.030  11.289  0.6643 -0.4765 -0.7541
 3011TIP3    H133228   5.362   0.051  11.211  1.9514 -0.3971 -1.6019
 3011TIP3    H233229   5.353   0.045  11.362  0.6782  3.8886 -1.3706
 3012TIP3   OH233230   5.199   0.912  11.425  0.5131  0.9150 -0.8498
 3012TIP3    H133231   5.208   0.967  11.347 -0.8180 -1.3361 -2.7046
 3012TIP3    H233232   5.126   0.951  11.473  0.2242  1.3378 -1.6159
 3013TIP3   OH233233   0.227   6.050   8.430 -0.1345 -0.5334 -0.3938
 3013TIP3    H133234   0.172   6.120   8.395 -0.7344 -0.4584  0.6708
 3013TIP3    H233235   0.310   6.094   8.451  0.1702 -0.5439 -1.5181
 3014TIP3   OH233236   5.555   1.944  10.857 -0.5321 -0.5382 -0.1241
 3014TIP3    H133237   5.617   1.936  10.785 -0.2105  0.2057  0.0565
 3014TIP3    H233238   5.485   1.999  10.823  0.4458  1.2629  0.6234
 3015TIP3   OH233239   1.184   4.054   8.903  0.0430 -0.3977  0.7761
 3015TIP3    H133240   1.208   4.140   8.936  1.7600 -0.2806 -0.6461
 3015TIP3    H233241   1.220   4.051   8.814  0.0826 -2.5941  0.8069
 3016TIP3   OH233242   4.160   4.144  10.393 -0.6416 -0.2386  0.9122
 3016TIP3    H133243   4.124   4.128  10.481 -0.6600  1.8619  1.3428
 3016TIP3    H233244   4.095   4.198  10.350  0.9413  1.8243  0.9345
 3017TIP3   OH233245   5.162   0.485   9.808 -0.1617  0.4565  0.1752
 3017TIP3    H133246   5.238   0.542   9.793  1.1520 -1.0922  0.6367
 3017TIP3    H233247   5.151   0.438   9.726  1.9565 -2.1709  1.2301
 3018TIP3   OH233248   3.163   6.717  11.240 -0.0822  0.0162  0.0893
 3018TIP3    H133249   3.179   6.739  11.148 -1.7590 -0.6386 -0.4010
 3018TIP3    H233250   3.119   6.794  11.276 -0.0489  0.0051  0.1536
 3019TIP3   OH233251   1.584   3.110   9.579 -0.1774 -0.1149  0.0645
 3019TIP3    H133252   1.508   3.088   9.526 -0.1484 -1.7789  0.6654
 3019TIP3    H233253   1.611   3.197   9.547 -1.5887 -0.0228 -0.9651
 3020TIP3   OH233254   0.356   6.682   8.900 -0.4532 -0.5981  0.0534
 3020TIP3    H133255   0.415   6.757   8.897 -0.5706 -0.4972  0.2139
 3020TIP3    H233256   0.412   6.606   8.884 -0.2969 -0.4950  0.1101
 3021TIP3   OH233257   4.323   1.233  10.612 -0.4140 -0.5653  0.0884
 3021TIP3    H133258   4.294   1.189  10.692  0.0752 -0.7698  0.1622
 3021TIP3    H233259   4.332   1.163  10.547  0.0232 -0.5338  0.1059
 3022TIP3   OH233260   3.240   1.560  11.516  0.0335  0.9094  0.0272
 3022TIP3    H133261   3.217   1.540  11.607  0.4520 -0.6094 -0.1720
 3022TIP3    H233262   3.161   1.536  11.466  1.0165 -1.8836 -0.3765
 3023TIP3   OH233263   0.310   4.867  10.715  0.1247  0.1937  0.4346
 3023TIP3    H133264   0.283   4.942  10.768 -0.0108 -0.2175  0.9491
 3023TIP3    H233265   0.269   4.792  10.757 -0.5296 -0.0692 -0.6410
 3024TIP3   OH233266   3.482   2.241   9.281 -0.1173 -0.1343  0.0649
 3024TIP3    H133267   3.533   2.262   9.359  1.4359  0.0051 -0.9357
 3024TIP3    H233268   3.431   2.320   9.263 -1.2795 -0.5298  1.4952
 3025TIP3   OH233269   5.982   4.356   9.077 -0.4098 -0.3875 -0.2925
 3025TIP3    H133270   5.917   4.406   9.027 -0.7026 -1.5763 -1.1263
 3025TIP3    H233271   6.023   4.298   9.013 -0.3822 -1.5312  0.7213
 3026TIP3   OH233272   4.382   2.812  10.854 -0.1712  0.1343  0.0638
 3026TIP3    H133273   4.444   2.770  10.913  0.4161  0.6768 -0.1569
 3026TIP3    H233274   4.330   2.740  10.818  1.0130 -0.4296 -0.5422
 3027TIP3   OH233275   2.115   2.695   9.429  0.4174  0.1881 -0.0345
 3027TIP3    H133276   2.076   2.713   9.514  0.4386 -1.4661  0.3489
 3027TIP3    H233277   2.169   2.618   9.443  1.1144  0.4110 -1.3562
 3028TIP3   OH233278   4.545   0.946   9.030 -0.0275 -0.0558  0.0866
 3028TIP3    H133279   4.458   0.908   9.038 -1.5454  1.5448 -5.0022
 3028TIP3    H233280   4.600   0.873   9.000 -0.2391 -0.4600  0.6567
 3029TIP3   OH233281   6.179   2.865  10.094  0.0328  0.1647  0.4746
 3029TIP3    H133282   6.256   2.841  10.042 -0.4795  0.5525 -0.5035
 3029TIP3    H233283   6.174   2.960  10.086  0.2539  0.2955  1.7139
 3030TIP3   OH233284   3.557   0.216  11.531  0.2303 -0.2328  0.2476
 3030TIP3    H133285   3.470   0.186  11.504  0.2556 -0.2495  0.1830
 3030TIP3    H233286   3.614   0.192  11.458  0.0546  1.0056 -0.3129
 3031TIP3   OH233287   5.792   0.436  10.627  1.0206 -0.2780  0.4307
 3031TIP3    H133288   5.697   0.435  10.637  0.7491 -0.3679 -1.7920
 3031TIP3    H233289   5.825   0.398  10.708 -0.8318 -0.3760  1.1821
 3032TIP3   OH233290   3.378   0.817  11.002 -0.3357  0.1854  0.3364
 3032TIP3    H133291   3.379   0.889  11.065 -0.8008  1.7535 -1.3404
 3032TIP3    H233292   3.450   0.837  10.942 -0.4740 -0.7500 -0.1550
 3033TIP3   OH233293   0.974   1.536   9.542  0.0987 -0.3128  0.4566
 3033TIP3    H133294   0.928   1.456   9.515 -0.3090  0.4375 -1.2060
 3033TIP3    H233295   1.025   1.510   9.619  0.9116 -2.5094 -0.7362
 3034TIP3   OH233296   6.716   3.661  10.316 -0.7038 -0.3637 -0.4004
 3034TIP3    H133297   6.714   3.746  10.361  1.1151 -0.5577  0.1078
 3034TIP3    H233298   6.764   3.678  10.235 -1.3018 -0.6899 -0.8327
 3035TIP3   OH233299   2.034   3.729  11.081  0.0302  0.4577 -0.1963
 3035TIP3    H133300   1.979   3.731  11.159  0.7748 -0.4934  0.3684
 3035TIP3    H233301   2.105   3.791  11.100 -0.6107  1.4014 -0.7727
 3036TIP3   OH233302   3.066   4.062   9.504 -0.4979 -0.4092 -0.1446
 3036TIP3    H133303   3.115   4.144   9.514  0.9233 -1.3319  0.8631
 3036TIP3    H233304   3.128   4.001   9.464 -1.5430 -1.0135 -0.9117
 3037TIP3   OH233305   2.412   1.106   9.781  0.2097  0.3765  0.1059
 3037TIP3    H133306   2.343   1.109   9.847  1.4229  0.3723  1.4210
 3037TIP3    H233307   2.365   1.113   9.698 -1.4922 -0.9816  0.8753
 3038TIP3   OH233308   2.324   6.356   9.504 -0.2201 -0.3029  0.5402
 3038TIP3    H133309   2.355   6.428   9.450 -1.8171 -0.0760 -0.1341
 3038TIP3    H233310   2.368   6.279   9.469 -0.0270  0.0674 -0.0455
 3039TIP3   OH233311   5.230   1.273  10.381  0.0755 -0.7218  0.4592
 3039TIP3    H133312   5.198   1.329  10.452  0.2619 -0.2053  0.1410
 3039TIP3    H233313   5.151   1.253  10.330 -0.6583 -3.6183  2.4698
 3040TIP3   OH233314   6.070   0.898  11.971 -0.4775  0.0280  0.1002
 3040TIP3    H133315   6.080   0.881  11.877  0.6363  1.4031 -0.0576
 3040TIP3    H233316   6.020   0.823  12.003  1.6454 -2.0032 -1.0411
 3041TIP3   OH233317   3.027   5.705  11.073 -0.3309  0.3348  0.0078
 3041TIP3    H133318   3.043   5.775  11.009  0.1058 -0.6101 -0.9359
 3041TIP3    H233319   2.938   5.722  11.106 -0.0555  1.5945  0.1505
 3042TIP3   OH233320   5.511   5.077  10.034  0.7984  0.0105 -0.2731
 3042TIP3    H133321   5.545   5.050   9.949 -0.0587 -1.1055 -0.2704
 3042TIP3    H233322   5.567   5.152  10.059  1.3942  0.0159 -1.5544
 3043TIP3   OH233323   0.516   4.290   9.934  0.3853 -0.1599 -0.5544
 3043TIP3    H133324   0.500   4.258  10.023 -0.0663  0.2470 -0.4857
 3043TIP3    H233325   0.472   4.375   9.930 -0.7356 -0.7386 -1.5594
 3044TIP3   OH233326   6.020   3.874   9.430  0.1156  0.0776 -0.4587
 3044TIP3    H133327   5.951   3.808   9.432 -1.0341  1.2020 -1.4319
 3044TIP3    H233328   5.983   3.949   9.477  1.8953 -0.3557  1.8087
 3045TIP3   OH233329   1.042   0.338   9.588  0.0688  0.0555 -0.2571
 3045TIP3    H133330   1.090   0.257   9.605  0.4248  0.4186  0.5281
 3045TIP3    H233331   0.950   0.314   9.599  0.1214 -0.3938 -0.7201
 3046TIP3   OH233332   3.565   1.925  10.393 -0.3174  0.0299 -0.5799
 3046TIP3    H133333   3.550   1.910  10.300  0.6301  0.8412 -0.8784
 3046TIP3    H233334   3.591   2.017  10.398 -1.0358  0.1895  0.5727
 3047TIP3   OH233335   4.821   2.664   8.735  0.2275  0.0297 -0.2758
 3047TIP3    H133336   4.847   2.751   8.703  1.3654 -0.7074 -1.4310
 3047TIP3    H233337   4.735   2.648   8.696  1.5577 -0.8398 -3.1333
 3048TIP3   OH233338   0.469   6.776  10.927 -0.5467  0.2192  0.0863
 3048TIP3    H133339   0.508   6.751  10.843 -0.4210 -0.1124  0.2423
 3048TIP3    H233340   0.458   6.694  10.974 -2.9328  0.0908 -0.5827
 3049TIP3   OH233341   1.540   4.017   9.865  0.0876  0.1254  0.2721
 3049TIP3    H133342   1.605   3.984   9.926  0.6133  0.1082 -0.2911
 3049TIP3    H233343   1.500   4.092   9.910 -1.5523 -1.5810  1.8324
 3050TIP3   OH233344   4.882   2.660  11.338  0.4155  0.4045  0.3267
 3050TIP3    H133345   4.898   2.612  11.419 -0.6768 -0.4172  0.0631
 3050TIP3    H233346   4.802   2.622  11.302  1.8406 -0.5514 -2.1009
 3051TIP3   OH233347   0.715   3.959  10.203  0.1408 -0.0197 -0.2743
 3051TIP3    H133348   0.735   3.872  10.169  2.0389  0.6349 -0.9859
 3051TIP3    H233349   0.786   4.014  10.170 -1.3427  1.9467 -0.3724
 3052TIP3   OH233350   5.683   0.861  11.481 -0.4363 -0.5502 -0.6276
 3052TIP3    H133351   5.725   0.946  11.481 -1.1682 -0.1478 -2.2130
 3052TIP3    H233352   5.607   0.872  11.423 -1.3205 -1.8997  0.2245
 3053TIP3   OH233353   5.850   1.013   9.694  0.3302 -0.1484  0.1126
 3053TIP3    H133354   5.775   1.036   9.639  0.7848  0.5741 -0.2140
 3053TIP3    H233355   5.817   1.018   9.784  0.0471  0.3777 -0.0210
 3054TIP3   OH233356   1.624   2.135  11.927 -0.2157  0.1981  0.1230
 3054TIP3    H133357   1.540   2.164  11.962 -0.3544 -0.5062  0.4017
 3054TIP3    H233358   1.603   2.099  11.841 -0.5032 -1.5310  0.8649
 3055TIP3   OH233359   2.070   3.763  10.266 -0.1173  0.2929 -0.3149
 3055TIP3    H133360   2.153   3.780  10.311  0.7303 -0.3779 -1.5527
 3055TIP3    H233361   2.003   3.790  10.328  1.0178  0.3713  0.9233
 3056TIP3   OH233362   2.910   1.122  12.022 -0.3901 -0.3147  0.7354
 3056TIP3    H133363   2.835   1.103  11.966 -0.8952  0.0527  1.2698
 3056TIP3    H233364   2.895   1.069  12.101  0.5190 -1.1378  0.3752
 3057TIP3   OH233365   2.495   2.842  11.430  0.0259  0.6797  0.4572
 3057TIP3    H133366   2.496   2.926  11.476 -1.4573 -0.5248  2.9521
 3057TIP3    H233367   2.563   2.790  11.473  0.4159  0.3401 -0.5463
 3058TIP3   OH233368   4.395   1.708  11.997 -0.0191  0.2538  0.3614
 3058TIP3    H133369   4.333   1.646  11.960  0.5351 -0.2264  0.2175
 3058TIP3    H233370   4.474   1.696  11.944 -0.4485  2.3658 -0.8710
 3059TIP3   OH233371   4.929   4.741   9.052 -0.2023 -0.2827 -0.1592
 3059TIP3    H133372   4.855   4.782   9.008  0.7430  2.6914  0.7818
 3059TIP3    H233373   5.006   4.782   9.013  0.7892 -0.2188  1.7445
 3060TIP3   OH233374   3.159   2.644   9.980  0.0381 -0.4069  0.3008
 3060TIP3    H133375   3.141   2.556   9.948  0.1089 -0.0552 -0.7167
 3060TIP3    H233376   3.205   2.630  10.063  1.5028 -1.3662 -0.6221
 3061TIP3   OH233377   5.578   2.674   9.706 -0.7637 -0.3585 -0.0700
 3061TIP3    H133378   5.503   2.722   9.670 -0.1666  0.2031 -0.5783
 3061TIP3    H233379   5.649   2.738   9.706 -0.5266 -0.5948  1.3199
 3062TIP3   OH233380   2.054   2.283   8.545  0.6184  0.5776  0.2885
 3062TIP3    H133381   2.100   2.250   8.622  1.3716  1.7954  0.3916
 3062TIP3    H233382   1.983   2.337   8.581 -0.2386 -0.4127  0.1243
 3063TIP3   OH233383   5.194   2.399  11.819  0.3067  0.4034  0.3369
 3063TIP3    H133384   5.241   2.336  11.765 -0.4898  1.3775 -1.6100
 3063TIP3    H233385   5.106   2.362  11.828  0.4312  0.2552  0.9572
 3064TIP3   OH233386   6.168   0.299  10.493 -0.2612 -0.3449 -0.2070
 3064TIP3    H133387   6.145   0.329  10.404  0.9096  0.9388 -0.1063
 3064TIP3    H233388   6.261   0.278  10.488 -0.4013 -1.1702  0.4979
 3065TIP3   OH233389   2.476   4.222   9.740  0.2908  0.5727  0.0666
 3065TIP3    H133390   2.560   4.180   9.758 -0.4956 -1.4575 -0.7591
 3065TIP3    H233391   2.425   4.207   9.820  0.0440  0.0325 -0.1903
 3066TIP3   OH233392   2.617   0.036  10.637  0.2725 -0.2772 -0.2496
 3066TIP3    H133393   2.593  -0.017  10.713  0.5040 -0.5885 -0.3955
 3066TIP3    H233394   2.708   0.014  10.619  0.1394 -0.4055 -0.7828
 3067TIP3   OH233395   1.544   0.533  10.225 -0.1482  0.0911 -0.1358
 3067TIP3    H133396   1.482   0.566  10.291  1.1264  3.8203 -0.5435
 3067TIP3    H233397   1.505   0.452  10.193 -2.9207  0.3453  2.1920
 3068TIP3   OH233398   0.877   0.877  10.431  0.1089  0.2581  0.4152
 3068TIP3    H133399   0.846   0.842  10.348 -1.6905  1.4478  0.5352
 3068TIP3    H233400   0.823   0.834  10.497  3.4066 -2.9220  1.3894
 3069TIP3   OH233401   5.876   0.706  12.064  0.2047 -0.2582  0.0784
 3069TIP3    H133402   5.895   0.623  12.109 -1.7277 -1.7545 -1.6742
 3069TIP3    H233403   5.781   0.704  12.049 -0.3339  3.3237  1.8635
 3070TIP3   OH233404   5.945   1.850   9.296  0.3164 -0.0180 -0.1370
 3070TIP3    H133405   5.926   1.939   9.267 -0.2158  0.6249  2.0067
 3070TIP3    H233406   5.908   1.845   9.384 -0.1933 -2.5587 -0.4120
 3071TIP3   OH233407   1.721   1.682   7.926 -0.2710  0.1408 -0.1777
 3071TIP3    H133408   1.630   1.666   7.900 -0.2874 -1.0166  0.5314
 3071TIP3    H233409   1.746   1.762   7.879 -1.1766 -0.3515 -1.5437
 3072TIP3   OH233410   2.099   5.577  11.520 -0.6049  0.2111  0.5434
 3072TIP3    H133411   2.176   5.625  11.489 -0.4893 -0.6723 -0.6037
 3072TIP3    H233412   2.040   5.574  11.445 -2.0477  1.3942  1.5923
 3073TIP3   OH233413   0.649   1.572  11.198  0.0011 -0.0725 -0.0338
 3073TIP3    H133414   0.626   1.581  11.290  2.0274  0.4449  0.4782
 3073TIP3    H233415   0.701   1.650  11.178 -0.6531 -0.0304 -1.7075
 3074TIP3   OH233416   5.987   0.121  10.603 -0.2162 -0.1235 -0.0396
 3074TIP3    H133417   5.962   0.162  10.685 -0.4744 -1.1609  0.4214
 3074TIP3    H233418   6.043   0.185  10.559  0.7898  0.0273  1.4082
 3075TIP3   OH233419   0.123   4.385   8.757 -0.0387 -0.7303 -0.2673
 3075TIP3    H133420   0.153   4.414   8.843 -0.4231 -0.6521 -0.1585
 3075TIP3    H233421   0.159   4.298   8.747  0.0236 -0.7308 -0.0327
 3076TIP3   OH233422   6.710   0.177   9.326 -0.2135  0.4430 -0.1611
 3076TIP3    H133423   6.632   0.161   9.274 -0.8115  0.7770  0.6184
 3076TIP3    H233424   6.684   0.157   9.416  0.9839 -0.7731 -0.0436
 3077TIP3   OH233425   3.539   5.538  10.485  0.0931  0.2665 -0.0353
 3077TIP3    H133426   3.607   5.604  10.500  0.7301 -0.2005 -0.7582
 3077TIP3    H233427   3.587   5.455  10.481 -0.5555 -0.1052 -0.2646
 3078TIP3   OH233428   4.185   1.859  10.893  0.1279  0.3103 -0.5742
 3078TIP3    H133429   4.257   1.801  10.870 -0.4425 -0.8496  0.4467
 3078TIP3    H233430   4.176   1.850  10.988 -0.9452  0.9397 -0.5938
 3079TIP3   OH233431   6.772   1.400  11.169 -0.0151  0.0777  0.1396
 3079TIP3    H133432   6.735   1.339  11.106 -1.1365  1.2832 -0.4398
 3079TIP3    H233433   6.733   1.485  11.145  1.5329  1.0356  0.8459
 3080TIP3   OH233434   3.172   0.568  10.798 -0.3783  0.0076 -0.7424
 3080TIP3    H133435   3.233   0.498  10.823 -0.6783 -0.0815 -0.2611
 3080TIP3    H233436   3.106   0.525  10.744 -3.1402 -1.0861  3.1109
 3081TIP3   OH233437   1.219   1.714   9.461  0.0649  0.8420 -0.0121
 3081TIP3    H133438   1.158   1.720   9.388  0.2939 -2.1561 -0.5896
 3081TIP3    H233439   1.305   1.730   9.423 -0.0399  1.7880  0.1350
 3082TIP3   OH233440   5.385   5.937   8.597 -0.4380  0.0172  0.1500
 3082TIP3    H133441   5.341   6.005   8.648  0.7696 -0.2175  1.5703
 3082TIP3    H233442   5.343   5.856   8.624 -0.6576  0.0155 -0.1925
 3083TIP3   OH233443   6.794   1.823  12.234 -0.3185 -0.0311  1.0153
 3083TIP3    H133444   6.869   1.764  12.228  0.0301  0.5305 -1.0832
 3083TIP3    H233445   6.781   1.836  12.328  2.6635  0.3958  1.4622
 3084TIP3   OH233446   5.464   4.934   8.361 -0.2425 -0.2556  0.5009
 3084TIP3    H133447   5.539   4.975   8.317  0.1787 -1.6332 -0.1344
 3084TIP3    H233448   5.489   4.842   8.368 -1.4064 -0.5169  1.3314
 3085TIP3   OH233449   5.838   0.578   9.632 -0.4464  0.0209  0.0468
 3085TIP3    H133450   5.757   0.626   9.648  0.1681  1.2655 -0.4078
 3085TIP3    H233451   5.857   0.533   9.714 -0.6848  1.1338  0.7269
 3086TIP3   OH233452   5.946   0.470  11.626  0.0411 -0.1572  0.1008
 3086TIP3    H133453   5.853   0.490  11.622 -0.1313 -1.0750 -0.7379
 3086TIP3    H233454   5.954   0.383  11.588  0.8209 -1.5557  3.0994
 3087TIP3   OH233455   0.595   6.577   8.781  0.0289  0.2166  0.0869
 3087TIP3    H133456   0.580   6.653   8.725 -0.0701  0.5100  0.5070
 3087TIP3    H233457   0.664   6.528   8.738 -0.1278  0.3789 -0.3543
 3088TIP3   OH233458   1.074   4.499   9.682  0.5107  0.1499 -1.2940
 3088TIP3    H133459   1.008   4.500   9.751  0.7413 -1.7147 -1.0070
 3088TIP3    H233460   1.068   4.586   9.642  1.7954  2.1564  2.3736
 3089TIP3   OH233461   4.101   2.415   9.698 -0.2714 -0.9988 -0.2737
 3089TIP3    H133462   4.139   2.493   9.657  1.0821 -1.4258  0.1282
 3089TIP3    H233463   4.125   2.344   9.638  0.5408 -1.4281  0.5375
 3090TIP3   OH233464   0.469   5.597   9.507 -0.1811 -0.6342 -0.2655
 3090TIP3    H133465   0.418   5.666   9.464  0.4375  0.0934  0.1289
 3090TIP3    H233466   0.461   5.521   9.450 -2.3714 -0.8018  0.1784
 3091TIP3   OH233467   1.733   5.565   9.072  0.0666 -0.3050 -0.3948
 3091TIP3    H133468   1.765   5.494   9.127 -0.3134  0.7328  1.2213
 3091TIP3    H233469   1.639   5.549   9.063 -0.1800  0.4297  0.6946
 3092TIP3   OH233470   0.868   2.465   9.654 -0.1295 -0.1444 -0.5263
 3092TIP3    H133471   0.952   2.512   9.644 -0.1571  0.1536  0.4886
 3092TIP3    H233472   0.882   2.381   9.611  0.5595  0.0731 -0.7403
 3093TIP3   OH233473   5.388   2.247   9.209 -0.4817  0.3077  0.0634
 3093TIP3    H133474   5.315   2.197   9.246 -1.1789  0.1113 -1.5152
 3093TIP3    H233475   5.363   2.263   9.118 -0.1209  3.2695  0.4020
 3094TIP3   OH233476   0.214   3.613  10.675 -0.3672 -0.1617  0.0435
 3094TIP3    H133477   0.258   3.567  10.603 -0.4248  0.8112 -0.6332
 3094TIP3    H233478   0.126   3.576  10.677 -0.4582  0.0173 -0.5847
 3095TIP3   OH233479   4.590   0.935  10.151 -0.0684  0.1911  0.6212
 3095TIP3    H133480   4.678   0.954  10.116  0.7628  0.3933  2.6794
 3095TIP3    H233481   4.588   0.840  10.157 -0.0974  0.1713  0.3117
 3096TIP3   OH233482   1.422   4.418   8.258  0.9247 -0.2724  0.0753
 3096TIP3    H133483   1.354   4.351   8.268  0.9906 -0.1510  1.7030
 3096TIP3    H233484   1.478   4.405   8.335  1.1957  1.3486  0.1739
 3097TIP3   OH233485   4.129   6.737  10.632  0.5659  0.1379  0.6971
 3097TIP3    H133486   4.176   6.813  10.665  0.2617  1.5660 -1.9617
 3097TIP3    H233487   4.197   6.680  10.596  0.6296 -0.0542  1.1081
 3098TIP3   OH233488   4.671   3.156  10.940 -0.0356 -0.3488  0.1755
 3098TIP3    H133489   4.679   3.081  10.999 -1.2056 -1.0514 -0.4996
 3098TIP3    H233490   4.740   3.143  10.875  0.2791 -0.4047  0.5193
 3099TIP3   OH233491   5.087   0.767   8.826 -0.6741 -0.6414 -1.1854
 3099TIP3    H133492   5.003   0.813   8.827 -0.9771 -1.1667 -0.1803
 3099TIP3    H233493   5.140   0.813   8.891 -0.2348 -0.4149 -1.6986
 3100TIP3   OH233494   4.247   6.390  11.405 -0.5291  0.6720  0.1408
 3100TIP3    H133495   4.293   6.412  11.324 -1.2316  1.7437  0.0139
 3100TIP3    H233496   4.199   6.470  11.428 -2.3094 -0.3840  0.2809
 3101TIP3   OH233497   1.770   2.033   7.421 -0.0310  0.3567 -0.2301
 3101TIP3    H133498   1.819   1.950   7.422 -1.0586 -0.2995  1.5479
 3101TIP3    H233499   1.832   2.097   7.387  1.8525 -0.5827  1.2144
 3102TIP3   OH233500   4.735   5.728   9.042 -0.3646 -0.0958  0.0010
 3102TIP3    H133501   4.792   5.738   8.966 -1.9766 -0.4152 -1.3018
 3102TIP3    H233502   4.709   5.817   9.065  1.1638  0.1202  1.0641
 3103TIP3   OH233503   1.245   0.454   9.214 -0.3037  0.3234  0.3468
 3103TIP3    H133504   1.283   0.510   9.281 -1.9788  1.0508  0.7362
 3103TIP3    H233505   1.283   0.367   9.230 -1.1289  0.3268  2.6715
 3104TIP3   OH233506   1.393   3.590  11.629  0.2900 -0.1109 -0.0774
 3104TIP3    H133507   1.318   3.650  11.626  0.7456  0.4941  0.3995
 3104TIP3    H233508   1.415   3.575  11.537  0.4131  0.7661 -0.1983
 3105TIP3   OH233509   4.111   1.488  11.506  0.3276  0.5734  0.2734
 3105TIP3    H133510   4.122   1.502  11.411 -1.2748  0.7043  0.0716
 3105TIP3    H233511   4.109   1.576  11.543 -0.1323  0.5654  0.2755
 3106TIP3   OH233512   4.770   2.615   9.753 -0.0916  0.0010 -0.3009
 3106TIP3    H133513   4.711   2.661   9.812  1.1022  1.8317 -0.4388
 3106TIP3    H233514   4.843   2.588   9.808 -0.3928 -1.0339 -0.3859
 3107TIP3   OH233515   4.814   5.261  11.339 -0.4170 -0.4920 -0.0446
 3107TIP3    H133516   4.781   5.338  11.385  1.4117 -0.3207  1.0684
 3107TIP3    H233517   4.785   5.272  11.248 -2.1650  0.3015  0.5647
 3108TIP3   OH233518   4.052   5.545  10.202  0.1345  0.0030  0.3503
 3108TIP3    H133519   4.010   5.582  10.280  1.1897  1.0572  0.4370
 3108TIP3    H233520   4.133   5.595  10.192  0.9549 -1.3991 -0.3199
 3109TIP3   OH233521   4.474   0.569   9.505 -0.6152 -0.6409  0.3620
 3109TIP3    H133522   4.450   0.577   9.412 -1.5504 -1.7105  0.4890
 3109TIP3    H233523   4.568   0.550   9.503  0.1510  2.6186 -0.1889
 3110TIP3   OH233524   0.950   4.137   8.218  0.2473  0.0417  0.7804
 3110TIP3    H133525   1.029   4.168   8.173  0.3686 -2.0999 -0.6794
 3110TIP3    H233526   0.885   4.129   8.148 -0.3526 -0.9505  1.4259
 3111TIP3   OH233527   2.341   5.345  10.397 -0.5139 -0.1420 -0.1635
 3111TIP3    H133528   2.329   5.369  10.489  0.1211 -2.4226  0.5665
 3111TIP3    H233529   2.269   5.285  10.378  0.1517 -0.7857 -0.7235
 3112TIP3   OH233530   4.719   1.058  11.321 -0.3417 -0.1655  0.0553
 3112TIP3    H133531   4.628   1.036  11.342 -0.4743 -0.4047 -0.7311
 3112TIP3    H233532   4.712   1.133  11.261 -0.0153 -0.1030  0.0937
 3113TIP3   OH233533   5.946   6.102   8.809 -0.0792 -0.0571 -0.6801
 3113TIP3    H133534   5.986   6.152   8.739  0.0776 -0.3810 -0.8266
 3113TIP3    H233535   5.967   6.010   8.788 -0.0975 -0.1614 -0.2590
 3114TIP3   OH233536   2.106   4.828   9.118 -0.1078  0.1232  0.2858
 3114TIP3    H133537   2.029   4.798   9.166 -1.3314  2.9361  0.2657
 3114TIP3    H233538   2.079   4.830   9.027 -0.2714  1.6766  0.3393
 3115TIP3   OH233539   2.237   3.929   9.653 -0.3995 -0.2330 -0.0769
 3115TIP3    H133540   2.259   3.940   9.560 -0.8150 -0.3022 -0.1864
 3115TIP3    H233541   2.287   3.996   9.698 -1.0409  0.5329 -0.4782
 3116TIP3   OH233542   1.980   2.027   9.547  0.5521 -0.6442  0.0526
 3116TIP3    H133543   1.914   1.979   9.497  0.5838  0.1619 -0.8035
 3116TIP3    H233544   1.952   2.118   9.542  0.8224 -0.4902  1.1276
 3117TIP3   OH233545   1.824   6.713  11.803  0.5710 -0.1960  0.4094
 3117TIP3    H133546   1.781   6.796  11.783  0.3345 -0.5138 -0.4584
 3117TIP3    H233547   1.912   6.723  11.767  0.4954 -0.3663  0.1715
 3118TIP3   OH233548   2.942   0.576   9.921 -0.6234  0.0665  0.6191
 3118TIP3    H133549   2.936   0.584   9.826 -1.3768  0.4009  0.6867
 3118TIP3    H233550   2.851   0.574   9.951 -0.4120 -1.2326  1.2412
 3119TIP3   OH233551   2.166   0.429  10.090  0.5100 -0.5377  0.2022
 3119TIP3    H133552   2.098   0.492  10.111  0.1649 -0.3593 -1.3228
 3119TIP3    H233553   2.220   0.424  10.169  0.1312  1.1191  0.6040
 3120TIP3   OH233554   6.027   5.520   9.448  0.1412  0.0919  0.5416
 3120TIP3    H133555   6.117   5.538   9.422 -0.3876  0.6282 -0.9902
 3120TIP3    H233556   5.982   5.604   9.438 -1.1311 -0.7448 -1.3837
 3121TIP3   OH233557   3.148   4.343   9.577  0.0002 -0.1044  0.1820
 3121TIP3    H133558   3.066   4.393   9.568  1.0021  1.5131 -0.4914
 3121TIP3    H233559   3.180   4.333   9.487  0.5609 -0.6869  0.4384
 3122TIP3   OH233560   2.242   6.061   9.605 -0.3779 -0.3139  0.0097
 3122TIP3    H133561   2.210   6.030   9.520 -0.9776 -0.3328  0.2364
 3122TIP3    H233562   2.163   6.085   9.653 -0.0452 -0.3400  0.5811
 3123TIP3   OH233563   4.218   3.728  11.004  0.0666 -0.3687  0.1619
 3123TIP3    H133564   4.260   3.813  10.991 -1.2736  0.2698 -0.2845
 3123TIP3    H233565   4.151   3.724  10.935  1.1451 -2.5166 -0.8632
 3124TIP3   OH233566   4.727   6.638  10.563  0.4810  0.0168  0.2572
 3124TIP3    H133567   4.785   6.701  10.607  0.0149  0.3551  0.3948
 3124TIP3    H233568   4.672   6.603  10.633  1.6677 -1.6000  0.4232
 3125TIP3   OH233569   5.869   0.572   9.029  0.3693  0.0941 -0.3346
 3125TIP3    H133570   5.874   0.493   9.083 -0.8832 -1.5166 -2.4110
 3125TIP3    H233571   5.951   0.573   8.980  0.8930  0.7666  0.5355
 3126TIP3   OH233572   1.039   5.193  10.276  0.2161 -0.3830 -0.2985
 3126TIP3    H133573   1.122   5.212  10.320  0.9039 -1.1317 -1.2340
 3126TIP3    H233574   1.023   5.100  10.294  0.1855 -0.5380 -1.0878
 3127TIP3   OH233575   4.470   3.667  10.413 -0.2976  0.6615 -0.6576
 3127TIP3    H133576   4.419   3.587  10.401  0.8474  0.0935 -2.0352
 3127TIP3    H233577   4.544   3.640  10.468  0.7687  0.4024 -2.1323
 3128TIP3   OH233578   6.057   3.647  11.863  0.1182  0.0118 -0.2061
 3128TIP3    H133579   6.138   3.608  11.830 -0.6113 -0.3145 -1.7009
 3128TIP3    H233580   6.068   3.741  11.848  0.7298  0.1113  0.7931
 3129TIP3   OH233581   0.092   5.808  11.551 -0.6889  0.0386  0.2667
 3129TIP3    H133582   0.154   5.766  11.610 -0.4649 -1.0482 -0.6991
 3129TIP3    H233583   0.033   5.737  11.523 -0.1024  0.2452 -1.6637
 3130TIP3   OH233584   1.794   1.734  10.090  0.7656  0.2191 -0.5518
 3130TIP3    H133585   1.836   1.690  10.163  0.1499  1.2825  0.4815
 3130TIP3    H233586   1.742   1.804  10.130 -0.1686  0.3774 -1.9467
 3131TIP3   OH233587   2.546   2.449  10.796  0.1964  0.0989  0.2856
 3131TIP3    H133588   2.453   2.436  10.810  0.3638 -0.2831  1.0831
 3131TIP3    H233589   2.568   2.391  10.723 -0.2380  0.3994 -0.0899
 3132TIP3   OH233590   1.341   2.133  11.536 -0.7772  0.1240  0.1497
 3132TIP3    H133591   1.280   2.084  11.480 -0.1934 -1.3160  0.7355
 3132TIP3    H233592   1.422   2.137  11.484  0.2819 -2.5857  1.3987
 3133TIP3   OH233593   6.178   3.463  10.472  0.5030 -0.0885 -0.2672
 3133TIP3    H133594   6.270   3.459  10.444  0.1604 -0.2797 -1.4099
 3133TIP3    H233595   6.141   3.536  10.423  0.0356 -0.0208  0.1791
 3134TIP3   OH233596   1.644   0.279   9.241  0.2636 -0.0848 -0.2148
 3134TIP3    H133597   1.699   0.343   9.287  0.1249  0.3021 -0.5823
 3134TIP3    H233598   1.638   0.205   9.301  0.5366  0.1940  0.1597
 3135TIP3   OH233599   2.250   6.720  10.796  0.1379  0.6347  0.1968
 3135TIP3    H133600   2.214   6.671  10.870  1.6147 -1.5196 -0.4366
 3135TIP3    H233601   2.198   6.693  10.721 -0.9103  2.2970  0.2726
 3136TIP3   OH233602   6.203   2.616   8.551 -0.2174 -0.2467 -0.1575
 3136TIP3    H133603   6.253   2.535   8.548 -1.8914 -1.3239 -0.2181
 3136TIP3    H233604   6.233   2.660   8.630 -0.3433 -1.6526  0.6969
 3137TIP3   OH233605   1.430   5.426   8.639  0.0639 -0.3239 -0.2041
 3137TIP3    H133606   1.445   5.509   8.596  3.3317 -0.1558  0.9658
 3137TIP3    H233607   1.338   5.428   8.665 -0.0701  2.7325 -0.5905
 3138TIP3   OH233608   3.070   6.018  11.239 -0.7850  0.3313  0.3903
 3138TIP3    H133609   3.049   6.004  11.331 -1.0258  3.6104  0.9353
 3138TIP3    H233610   3.160   6.050  11.240 -0.2748 -0.9363 -0.7180
 3139TIP3   OH233611   1.319   5.068  11.187  0.3022  0.2421 -0.3349
 3139TIP3    H133612   1.256   5.139  11.172  1.1916  1.1597  0.1263
 3139TIP3    H233613   1.399   5.113  11.213  1.0578 -0.9205 -0.5956
 3140TIP3   OH233614   3.977   3.485  10.881 -0.5728 -0.3557 -0.2342
 3140TIP3    H133615   4.051   3.467  10.939 -0.7863  0.9998  0.4925
 3140TIP3    H233616   3.919   3.410  10.892 -0.4244 -0.3128  1.0317
 3141TIP3   OH233617   3.050   6.129  10.076 -0.2615  0.5556 -0.1871
 3141TIP3    H133618   2.997   6.108   9.999 -1.3332  1.2178  0.3414
 3141TIP3    H233619   3.023   6.218  10.100  0.1924  0.4274  0.8461
 3142TIP3   OH233620   0.687   2.141   8.207  0.0194  0.2603 -0.1979
 3142TIP3    H133621   0.656   2.143   8.116  1.4783  1.3721 -0.7130
 3142TIP3    H233622   0.782   2.148   8.200  0.1055  1.1749  1.4334
 3143TIP3   OH233623   6.343   2.045   9.201 -0.3367 -0.2535 -0.3953
 3143TIP3    H133624   6.311   1.984   9.133 -0.5429 -1.0529  0.4007
 3143TIP3    H233625   6.297   2.127   9.182 -1.2260 -0.7724 -0.5848
 3144TIP3   OH233626   4.357   5.717  10.792 -0.1200 -0.5474  0.3303
 3144TIP3    H133627   4.349   5.697  10.699 -1.2532  0.7518  0.1047
 3144TIP3    H233628   4.373   5.633  10.834 -0.1609 -1.2301 -0.9877
 3145TIP3   OH233629   0.759   1.770  11.764 -0.3971 -0.2571 -0.6010
 3145TIP3    H133630   0.718   1.853  11.740 -1.1149 -0.1400  0.8947
 3145TIP3    H233631   0.706   1.703  11.723 -1.0888 -0.0370 -0.0802
 3146TIP3   OH233632   0.657   2.792  11.193 -0.8790  0.2341 -0.2472
 3146TIP3    H133633   0.581   2.739  11.215  0.0499 -0.5348  1.2189
 3146TIP3    H233634   0.711   2.791  11.272  1.2294 -0.2483 -1.6203
 3147TIP3   OH233635   0.559   0.417  10.980 -0.1776  0.2634 -0.0210
 3147TIP3    H133636   0.644   0.385  11.008  0.1575 -0.4209 -1.7020
 3147TIP3    H233637   0.558   0.509  11.008  1.8500  0.7987 -1.4926
 3148TIP3   OH233638   6.224   0.480  10.707  0.3632  0.3955  0.2651
 3148TIP3    H133639   6.197   0.429  10.783 -0.1869  0.6382  0.2451
 3148TIP3    H233640   6.181   0.436  10.633  1.3740 -0.1910  0.0124
 3149TIP3   OH233641   0.178   5.073  10.869 -0.3847  0.0841  0.3941
 3149TIP3    H133642   0.208   5.094  10.958 -1.3453  1.1758  0.4828
 3149TIP3    H233643   0.095   5.119  10.860  0.2089  0.8880 -1.4456
 3150TIP3   OH233644   4.014   6.371   9.878 -0.0691 -0.0241  0.0152
 3150TIP3    H133645   4.090   6.313   9.875  0.3185  0.4918 -0.3394
 3150TIP3    H233646   3.973   6.352   9.962 -0.4527 -1.4379 -0.4578
 3151TIP3   OH233647   6.232   5.097   8.651  0.5148  0.3946  0.2396
 3151TIP3    H133648   6.227   5.069   8.559 -2.9559 -0.3724  0.5326
 3151TIP3    H233649   6.236   5.016   8.701 -1.2927  0.6194  0.8183
 3152TIP3   OH233650   3.259   6.766   9.699 -0.9054 -0.1553 -0.3822
 3152TIP3    H133651   3.239   6.852   9.736 -0.9895  0.4182 -1.6996
 3152TIP3    H233652   3.354   6.762   9.696 -0.8964 -0.2740  0.0463
 3153TIP3   OH233653   4.533   4.690  10.999  0.1894 -0.5611 -0.2401
 3153TIP3    H133654   4.606   4.637  10.967  1.6816  0.9384  0.4628
 3153TIP3    H233655   4.524   4.665  11.091  2.4090  1.8078  0.7519
 3154TIP3   OH233656   1.651   6.274  10.852 -0.1056  0.0452  0.5728
 3154TIP3    H133657   1.620   6.333  10.784 -0.8197 -0.4539  0.4616
 3154TIP3    H233658   1.651   6.188  10.810  0.5260 -0.1004  0.8631
 3155TIP3   OH233659   3.628   6.376  11.404 -0.2634 -0.3495 -0.3235
 3155TIP3    H133660   3.691   6.357  11.335 -0.4129  0.1235 -0.6007
 3155TIP3    H233661   3.673   6.438  11.461 -1.0660  1.4373 -1.5151
 3156TIP3   OH233662   3.407   4.085   9.411  0.5177  0.0155 -0.3567
 3156TIP3    H133663   3.356   4.152   9.366 -0.0258  0.7266  1.2634
 3156TIP3    H233664   3.491   4.127   9.429 -0.1812  0.6737  1.5780
 3157TIP3   OH233665   1.179   1.301  10.732 -0.5924 -0.0935  0.4216
 3157TIP3    H133666   1.094   1.263  10.708 -0.8504 -0.2791  1.5687
 3157TIP3    H233667   1.216   1.239  10.795  0.8758 -0.5435 -0.7931
 3158TIP3   OH233668   2.254   0.619  10.578  0.4069 -0.6199  0.0976
 3158TIP3    H133669   2.318   0.677  10.620  0.7544 -0.6414 -0.3862
 3158TIP3    H233670   2.174   0.673  10.571 -0.2941 -1.2366  2.5114
 3159TIP3   OH233671   2.334   4.215  11.378 -0.4240 -0.1557  0.1736
 3159TIP3    H133672   2.340   4.185  11.469 -3.1145 -1.3704  0.0356
 3159TIP3    H233673   2.391   4.292  11.375 -0.4682  0.0810  2.9543
 3160TIP3   OH233674   5.926   5.085  10.307 -0.1189 -0.8815  0.1659
 3160TIP3    H133675   5.904   4.992  10.314  1.3583 -1.1454  2.0791
 3160TIP3    H233676   5.846   5.131  10.329 -1.1375 -1.6505 -1.7122
 3161TIP3   OH233677   1.098   2.603   9.361  0.3183 -0.1611 -0.2424
 3161TIP3    H133678   1.008   2.621   9.335 -0.6542  1.6814  3.7369
 3161TIP3    H233679   1.095   2.516   9.401 -0.1832  0.5798  1.4311
 3162TIP3   OH233680   6.229   5.878  11.424  0.0530 -0.2394  0.3987
 3162TIP3    H133681   6.164   5.877  11.494 -1.7650  0.9813 -1.1434
 3162TIP3    H233682   6.245   5.786  11.404 -1.9908 -0.6053  0.2179
 3163TIP3   OH233683   3.570   5.024   9.990  0.2702  0.2089 -0.8734
 3163TIP3    H133684   3.540   4.938  10.019 -1.2550  1.4435  1.5523
 3163TIP3    H233685   3.508   5.048   9.921  0.3151 -0.3763 -1.1237
 3164TIP3   OH233686   4.748   6.662  10.978 -0.2216 -0.4060 -0.0769
 3164TIP3    H133687   4.828   6.612  10.995 -0.8183 -1.2837  0.2142
 3164TIP3    H233688   4.694   6.650  11.056 -0.0709  1.3582  0.3396
 3165TIP3   OH233689   5.493   3.988   9.252  0.2235  0.3299  0.0855
 3165TIP3    H133690   5.493   3.908   9.200 -0.2793  0.0892  0.4469
 3165TIP3    H233691   5.425   4.043   9.212  0.7174  0.6745 -0.2989
 3166TIP3   OH233692   4.784   3.645   9.733  0.8000 -0.3246  0.3749
 3166TIP3    H133693   4.860   3.662   9.788  1.0959  0.5319 -0.2626
 3166TIP3    H233694   4.808   3.683   9.648 -1.0822  1.7634  0.6847
 3167TIP3   OH233695   6.373   1.014  11.830 -0.1713  0.0505 -0.1213
 3167TIP3    H133696   6.444   0.973  11.879 -0.2879  0.9570  0.8178
 3167TIP3    H233697   6.305   0.947  11.826 -0.0132 -0.1546  0.6235
 3168TIP3   OH233698   6.666   6.271   9.492 -0.2749 -0.4064  0.0374
 3168TIP3    H133699   6.578   6.307   9.491 -0.5278 -1.0311 -0.6656
 3168TIP3    H233700   6.656   6.181   9.461  0.5897 -0.5276  0.0743
 3169TIP3   OH233701   2.998   1.244  10.110  0.1133  0.5317  0.1328
 3169TIP3    H133702   2.971   1.217  10.022  0.8326  1.1825 -0.2940
 3169TIP3    H233703   2.915   1.258  10.157 -0.2752  0.3509 -0.4875
 3170TIP3   OH233704   6.471   4.243  11.571  0.0231  0.2995  0.2740
 3170TIP3    H133705   6.425   4.317  11.611  1.2284  0.4107  1.5411
 3170TIP3    H233706   6.463   4.172  11.635 -0.7020 -0.5312 -0.7146
 3171TIP3   OH233707   6.000   5.994   9.769 -0.3383  0.0511  0.1703
 3171TIP3    H133708   5.996   5.996   9.865 -1.2158 -0.2211  0.1438
 3171TIP3    H233709   6.059   5.921   9.750 -0.7978 -0.4141  0.4968
 3172TIP3   OH233710   1.438   0.210   9.656 -0.2252  0.2013  0.1396
 3172TIP3    H133711   1.509   0.178   9.601  0.3768 -1.0401  1.5685
 3172TIP3    H233712   1.465   0.189   9.745 -1.0634  2.3385  0.9660
 3173TIP3   OH233713   1.600   2.621  11.058  0.3042 -0.3102 -0.3849
 3173TIP3    H133714   1.639   2.534  11.066  0.9130 -0.0370 -0.2871
 3173TIP3    H233715   1.516   2.607  11.015  0.7293 -0.8678 -1.0509
 3174TIP3   OH233716   4.547   5.079  11.594  0.4991 -0.0515  0.3930
 3174TIP3    H133717   4.626   5.089  11.647  1.4751 -1.7379 -0.6514
 3174TIP3    H233718   4.559   4.996  11.549 -1.9241 -0.3913  0.2473
 3175TIP3   OH233719   6.606   2.657   9.403 -0.4726  0.0198  0.2321
 3175TIP3    H133720   6.624   2.611   9.485  0.5320  0.0413  0.0399
 3175TIP3    H233721   6.630   2.594   9.334  1.1866  0.8766 -0.0357
 3176TIP3   OH233722   0.576   2.762  10.255 -0.1369 -0.8301 -0.4493
 3176TIP3    H133723   0.518   2.705  10.204 -0.4069  0.2854 -1.4574
 3176TIP3    H233724   0.661   2.755  10.212  0.0987 -1.2769  0.0794
 3177TIP3   OH233725   4.193   4.452  10.276  0.0074 -0.0509 -0.3957
 3177TIP3    H133726   4.110   4.436  10.230 -0.2340 -0.0845  0.0502
 3177TIP3    H233727   4.186   4.404  10.358  1.9208 -3.1083 -1.8545
 3178TIP3   OH233728   0.123   4.346  10.977  0.6008  0.0215 -0.6921
 3178TIP3    H133729   0.144   4.417  11.038  1.4451 -0.8325  0.0454
 3178TIP3    H233730   0.046   4.303  11.014  1.1514 -0.5367 -0.1716
 3179TIP3   OH233731   4.217   4.973   9.595 -0.4192  0.6665  0.0593
 3179TIP3    H133732   4.128   4.962   9.627  0.0015  2.5023  2.0414
 3179TIP3    H233733   4.215   4.936   9.507 -2.1594 -2.8076  1.3718
 3180TIP3   OH233734   6.428   6.734  11.027 -0.5194 -0.2229 -0.6008
 3180TIP3    H133735   6.459   6.776  10.947  1.2464 -2.5586 -1.2517
 3180TIP3    H233736   6.441   6.799  11.095 -0.2658  1.1422 -1.9051
 3181TIP3   OH233737   0.845   4.457  10.770 -0.4887  0.1048 -0.4167
 3181TIP3    H133738   0.850   4.365  10.746  0.2160  0.2301 -0.7697
 3181TIP3    H233739   0.763   4.487  10.730 -1.6948 -0.7942  1.2759
 3182TIP3   OH233740   0.785   6.605  11.159  0.1944  0.3092 -0.1633
 3182TIP3    H133741   0.787   6.619  11.254  0.9763 -0.4620 -0.0530
 3182TIP3    H233742   0.761   6.513  11.149  1.4081  0.0296 -0.6670
 3183TIP3   OH233743   6.310   1.942  11.690  0.0553 -0.1334  0.1237
 3183TIP3    H133744   6.403   1.965  11.697  0.1063 -0.0238 -0.8229
 3183TIP3    H233745   6.264   2.026  11.700  0.2461  0.5478 -3.4146
 3184TIP3   OH233746   3.984   3.828   9.953  0.6351  0.1347 -0.3513
 3184TIP3    H133747   3.966   3.911   9.911  0.5167 -0.3092 -1.2062
 3184TIP3    H233748   4.026   3.851  10.036 -0.8147  1.0834  0.1501
 3185TIP3   OH233749   5.374   4.667  10.838  0.2563 -0.0757 -0.1185
 3185TIP3    H133750   5.387   4.592  10.897 -2.4652 -0.4060  0.1796
 3185TIP3    H233751   5.340   4.629  10.757  0.3148  0.7123 -0.5225
 3186TIP3   OH233752   1.506   2.445   9.983 -0.0792 -0.8122  0.0505
 3186TIP3    H133753   1.527   2.433   9.890  1.0897 -0.8109  0.2993
 3186TIP3    H233754   1.563   2.383  10.029  1.1376  0.8718  0.9075
 3187TIP3   OH233755   1.302   3.243   9.779 -0.5680 -0.4948 -0.0041
 3187TIP3    H133756   1.329   3.196   9.700  0.4849  0.4974 -0.2691
 3187TIP3    H233757   1.325   3.334   9.760  2.1530 -0.5341  2.4316
 3188TIP3   OH233758   5.379   4.741  11.126  0.5024  0.0755 -0.7427
 3188TIP3    H133759   5.300   4.687  11.126  0.7672 -0.3280 -0.0418
 3188TIP3    H233760   5.451   4.678  11.114  0.7047  0.4753 -1.7142
 3189TIP3   OH233761   6.561   3.361  10.662  0.1641  0.1346 -0.2805
 3189TIP3    H133762   6.497   3.401  10.720 -0.3252 -0.1721 -0.6017
 3189TIP3    H233763   6.634   3.423  10.660 -0.0326  0.3848  0.2567
 3190TIP3   OH233764   6.116   5.476   9.130 -0.0498 -0.1415  0.0074
 3190TIP3    H133765   6.109   5.569   9.109 -0.7100 -0.0306  0.6664
 3190TIP3    H233766   6.176   5.472   9.204  1.7644 -0.4694 -1.4279
 3191TIP3   OH233767   6.311   0.701  11.490  0.1341  0.1464 -0.0251
 3191TIP3    H133768   6.252   0.635  11.454  0.3575 -0.8832  1.3827
 3191TIP3    H233769   6.331   0.759  11.417  0.0154 -1.4080 -1.3427
 3192TIP3   OH233770   1.485   2.584   7.903  0.2506 -0.4480 -0.2305
 3192TIP3    H133771   1.537   2.553   7.829  0.7361  2.7687 -1.4178
 3192TIP3    H233772   1.550   2.620   7.965 -0.3170  2.6060 -1.2281
 3193TIP3   OH233773   4.972   3.964  10.515 -0.0452  0.3522  0.2062
 3193TIP3    H133774   4.922   3.946  10.435  0.5467  0.5426 -0.2209
 3193TIP3    H233775   4.912   3.943  10.586 -0.5300  0.0088 -0.2875
 3194TIP3   OH233776   4.925   2.917  10.548 -0.5615 -0.0337 -0.1894
 3194TIP3    H133777   4.941   2.875  10.464 -0.1454  1.0134 -0.6527
 3194TIP3    H233778   4.883   2.850  10.601 -0.6691 -0.7619 -1.1744
 3195TIP3   OH233779   3.786   1.401   9.582  0.1301 -0.2847  0.3157
 3195TIP3    H133780   3.784   1.463   9.655 -0.6423  0.2408 -0.1497
 3195TIP3    H233781   3.695   1.387   9.559  0.3701 -0.3151 -0.6739
 3196TIP3   OH233782   3.241   5.315   9.474  0.7350  0.2330 -0.2650
 3196TIP3    H133783   3.158   5.359   9.456  0.1151 -0.4159  0.9284
 3196TIP3    H233784   3.261   5.336   9.565  0.8261 -1.2747  0.0928
 3197TIP3   OH233785   3.419   6.620  11.329  0.1776  0.4095  0.5249
 3197TIP3    H133786   3.326   6.637  11.314 -0.1029 -1.3585  0.0226
 3197TIP3    H233787   3.459   6.629  11.242  0.6823  2.1040  0.8892
 3198TIP3   OH233788   4.577   0.661  10.148 -0.2182 -0.8353 -0.1917
 3198TIP3    H133789   4.658   0.627  10.185  1.4487  0.0669 -2.6961
 3198TIP3    H233790   4.574   0.623  10.060 -1.8437  0.1779 -0.6092
 3199TIP3   OH233791   5.851   2.157  10.291  0.1390  0.1085 -0.9000
 3199TIP3    H133792   5.874   2.142  10.382 -1.3719 -1.6390 -0.7581
 3199TIP3    H233793   5.855   2.071  10.250  3.2335  1.1475 -3.1670
 3200TIP3   OH233794   5.806   1.263   9.971 -0.6577  0.2695  0.3718
 3200TIP3    H133795   5.814   1.213  10.053  0.4983 -0.7663 -0.3221
 3200TIP3    H233796   5.891   1.252   9.928 -1.7831 -0.7309 -1.7937
 3201TIP3   OH233797   2.969   1.402  10.417  0.2249  0.1820 -0.0691
 3201TIP3    H133798   2.905   1.410  10.345  0.1748 -1.9592 -0.3177
 3201TIP3    H233799   2.937   1.462  10.484 -1.9846 -0.6912 -0.2657
 3202TIP3   OH233800   1.292   2.835  10.086 -0.2654  0.1031  0.1571
 3202TIP3    H133801   1.345   2.819  10.164 -1.7744 -1.0789  0.9975
 3202TIP3    H233802   1.355   2.861  10.019  1.3323 -1.0158  1.1539
 3203TIP3   OH233803   5.399   3.930  11.653  0.2759 -0.0431 -0.4928
 3203TIP3    H133804   5.479   3.983  11.643  0.2302  0.3115  0.7494
 3203TIP3    H233805   5.431   3.840  11.658  0.8200  0.1964  1.5953
 3204TIP3   OH233806   6.455   6.017  10.064 -0.2921  0.1313  0.1994
 3204TIP3    H133807   6.512   5.972  10.127  1.7294  0.8178 -1.0266
 3204TIP3    H233808   6.441   6.104  10.101  1.3637  0.7335 -0.4774
 3205TIP3   OH233809   4.343   4.019   9.284 -0.3486  0.4895 -0.3820
 3205TIP3    H133810   4.346   3.927   9.257  0.2079  0.5436 -0.5155
 3205TIP3    H233811   4.401   4.064   9.224  0.8096  0.6329  0.7925
 3206TIP3   OH233812   2.659   4.524  10.651 -0.1157  0.1709  0.7207
 3206TIP3    H133813   2.656   4.575  10.570 -1.1977  0.3274  0.8459
 3206TIP3    H233814   2.716   4.574  10.709  0.7295  0.0208  0.0474
 3207TIP3   OH233815   5.310   0.570  11.795  0.4611 -0.0519  0.4789
 3207TIP3    H133816   5.252   0.585  11.870  0.9672 -1.3100  1.1528
 3207TIP3    H233817   5.291   0.642  11.735  0.4421  1.3103  2.0597
 3208TIP3   OH233818   0.232   4.128  10.002 -0.2624 -0.1786  0.2831
 3208TIP3    H133819   0.233   4.200  10.065  1.5139  0.1678 -0.0735
 3208TIP3    H233820   0.162   4.150   9.942  0.8416  1.8124 -0.3842
 3209TIP3   OH233821   0.827   3.395  10.681 -0.4630 -0.7197  0.6716
 3209TIP3    H133822   0.742   3.432  10.706 -0.0320  1.2895 -0.5868
 3209TIP3    H233823   0.812   3.301  10.676 -2.7415 -0.3856  0.1145
 3210TIP3   OH233824   0.381   2.234   9.375 -0.1260 -0.2701 -0.7914
 3210TIP3    H133825   0.423   2.198   9.297  0.1889 -1.7533  0.0249
 3210TIP3    H233826   0.297   2.190   9.380  0.6391 -1.6821  0.7290
 3211TIP3   OH233827   2.676   1.745  11.627 -0.3811  0.2096 -0.5384
 3211TIP3    H133828   2.627   1.710  11.702  0.1694 -1.5976 -0.9763
 3211TIP3    H233829   2.652   1.838  11.624 -1.5496 -0.0036  0.9775
 3212TIP3   OH233830   4.986   0.850  10.315  1.0033 -0.5515  0.3031
 3212TIP3    H133831   4.928   0.793  10.265  1.7394  0.1827 -1.4664
 3212TIP3    H233832   5.074   0.829  10.283  1.2258  2.3521 -1.3407
 3213TIP3   OH233833   2.672   3.655  10.681 -0.0736 -0.3630  0.0370
 3213TIP3    H133834   2.628   3.571  10.666  0.0891 -0.3418 -0.6134
 3213TIP3    H233835   2.617   3.719  10.635 -1.1153  0.1523  1.9262
 3214TIP3   OH233836   5.245   3.670   9.215 -0.1576 -0.1486  0.0843
 3214TIP3    H133837   5.170   3.730   9.218  0.1331  0.2599 -0.7947
 3214TIP3    H233838   5.275   3.666   9.306 -1.7543 -0.9798  0.6232
 3215TIP3   OH233839   5.704   1.285  10.671  0.9193  0.1896 -0.5506
 3215TIP3    H133840   5.741   1.213  10.723 -1.4077 -0.2698  0.6122
 3215TIP3    H233841   5.744   1.364  10.707  1.2741 -0.3133  0.1885
 3216TIP3   OH233842   3.640   3.196  11.236 -0.7123 -0.6154 -0.0787
 3216TIP3    H133843   3.598   3.122  11.280 -1.7615  0.3495  0.6138
 3216TIP3    H233844   3.646   3.264  11.303  1.7094 -0.5669 -0.2491
 3217TIP3   OH233845   5.345   1.264  11.838 -0.0489 -0.3849 -0.0963
 3217TIP3    H133846   5.354   1.171  11.858  2.0296 -0.0110  0.9645
 3217TIP3    H233847   5.258   1.287  11.870 -1.1244 -2.1941 -1.5332
 3218TIP3   OH233848   3.804   2.290   9.225 -0.7770 -0.4402  0.4369
 3218TIP3    H133849   3.820   2.285   9.319 -0.5295 -2.5206  0.3338
 3218TIP3    H233850   3.710   2.304   9.217 -0.5091  2.1521  0.9602
 3219TIP3   OH233851   5.997   0.208   9.703  0.4843 -0.8476  0.0450
 3219TIP3    H133852   6.070   0.148   9.687  1.5426 -0.4340  2.7910
 3219TIP3    H233853   6.038   0.289   9.730 -0.9881 -0.4559  1.2330
 3220TIP3   OH233854   0.127   2.836  11.434 -0.1623 -0.6384 -0.4186
 3220TIP3    H133855   0.121   2.773  11.363 -2.9847  0.0515 -0.8986
 3220TIP3    H233856   0.042   2.880  11.435  0.7956  1.3799  1.5474
 3221TIP3   OH233857   1.333   1.451   9.323 -0.6179  0.0542 -0.2097
 3221TIP3    H133858   1.427   1.434   9.316 -0.6931  0.0383 -1.4294
 3221TIP3    H233859   1.308   1.414   9.407  0.5354  0.4015  0.3083
 3222TIP3   OH233860   4.244   5.942  11.477  0.3193  0.0146 -0.1475
 3222TIP3    H133861   4.335   5.916  11.470  0.0244 -0.5639 -2.5663
 3222TIP3    H233862   4.200   5.864  11.513  1.0014  1.0549  3.3813
 3223TIP3   OH233863   3.650   4.198   9.430  0.3048  0.1006  0.6581
 3223TIP3    H133864   3.695   4.175   9.349  1.0214  0.9117  0.8051
 3223TIP3    H233865   3.585   4.264   9.404 -0.0005 -0.2051  0.6324
 3224TIP3   OH233866   3.766   4.354  11.390 -0.3101 -0.0049 -0.5399
 3224TIP3    H133867   3.837   4.294  11.366 -0.3949  0.2258 -1.3841
 3224TIP3    H233868   3.799   4.441  11.367 -0.8079  0.1154 -0.8155
 3225TIP3   OH233869   1.435   3.555   8.988 -0.1105  0.7569  0.1637
 3225TIP3    H133870   1.430   3.475   9.041 -2.3250  1.3380  0.9243
 3225TIP3    H233871   1.408   3.527   8.901  0.0452  0.5001  0.1966
 3226TIP3   OH233872   0.755   2.729  11.441 -0.8331  0.3795 -0.1079
 3226TIP3    H133873   0.733   2.672  11.515 -0.9188  0.8430  0.2268
 3226TIP3    H233874   0.790   2.808  11.481  0.1462  0.2147 -0.5870
 3227TIP3   OH233875   3.970   6.067  10.993  0.3483 -0.4694  0.4528
 3227TIP3    H133876   4.033   6.015  11.043  1.0794 -0.5587 -0.5304
 3227TIP3    H233877   3.897   6.006  10.976  0.8337 -0.9389  0.0132
 3228TIP3   OH233878   2.327   4.768  10.443 -0.0932 -0.3278  0.0615
 3228TIP3    H133879   2.329   4.681  10.402 -2.5566  0.0794 -1.0923
 3228TIP3    H233880   2.320   4.750  10.537 -1.2883 -1.4179 -0.2113
 3229TIP3   OH233881   6.747   0.950   9.933  0.1655 -0.0784  0.0842
 3229TIP3    H133882   6.765   0.958  10.027 -0.3981 -2.0016  0.3854
 3229TIP3    H233883   6.666   0.998   9.920  0.7540  1.0436  0.3656
 3230TIP3   OH233884   1.300   4.555  10.533 -0.4646 -0.2397  0.2966
 3230TIP3    H133885   1.317   4.648  10.516 -1.7003  0.0887  0.7947
 3230TIP3    H233886   1.237   4.554  10.604  1.5022 -1.5321  2.1354
 3231TIP3   OH233887   1.101   5.138  10.002 -0.0257 -0.3020 -0.0624
 3231TIP3    H133888   1.047   5.059  10.000 -1.1880  0.4759 -0.7716
 3231TIP3    H233889   1.076   5.182  10.083 -1.1464  0.4904 -0.8073
 3232TIP3   OH233890   4.024   1.217  10.186 -0.7999 -0.1068  0.1730
 3232TIP3    H133891   4.029   1.215  10.091  0.8219  0.6705  0.2223
 3232TIP3    H233892   3.967   1.143  10.208 -1.0856 -0.3836 -1.3749
 3233TIP3   OH233893   3.558   0.820   9.852  0.1327  0.1205 -0.2603
 3233TIP3    H133894   3.622   0.752   9.832  1.3025  0.8298  0.8760
 3233TIP3    H233895   3.600   0.873   9.920 -0.4103  2.4406 -1.6171
 3234TIP3   OH233896   4.766   2.721   8.311 -0.4037 -0.2737 -0.1744
 3234TIP3    H133897   4.761   2.627   8.293  1.6628 -0.3882 -0.4265
 3234TIP3    H233898   4.724   2.762   8.236  3.3993 -0.9120 -2.9348
 3235TIP3   OH233899   5.484   4.662   9.017 -0.6618  0.0006 -0.0032
 3235TIP3    H133900   5.405   4.681   9.069 -0.8456  1.0549 -0.6193
 3235TIP3    H233901   5.495   4.740   8.963 -0.7817 -1.2652 -1.9294
 3236TIP3   OH233902   2.362   0.846  10.395 -0.4286 -0.3502 -0.5169
 3236TIP3    H133903   2.391   0.850  10.487  0.5374  0.9587 -0.8386
 3236TIP3    H233904   2.388   0.758  10.366  1.6234  0.0938 -0.2326
 3237TIP3   OH233905   6.009   2.829   8.769  0.1387 -0.0539  0.2855
 3237TIP3    H133906   6.014   2.765   8.840 -0.6962  0.5260  0.8930
 3237TIP3    H233907   6.077   2.893   8.790 -0.8513  0.7346  1.2314
 3238TIP3   OH233908   5.020   0.284   9.154 -0.1001 -0.2332  0.3394
 3238TIP3    H133909   5.004   0.240   9.071 -0.5294 -0.7328  0.6823
 3238TIP3    H233910   5.115   0.298   9.155 -0.1340  0.0978 -0.3881
 3239TIP3   OH233911   5.736   0.162   9.778 -0.1372  0.0737 -0.0220
 3239TIP3    H133912   5.830   0.176   9.767 -0.2879 -0.0442 -1.8917
 3239TIP3    H233913   5.717   0.189   9.867  1.3864  1.7432 -0.1590
 3240TIP3   OH233914   5.148   5.635  10.897  0.0796  0.4033  0.0276
 3240TIP3    H133915   5.173   5.646  10.989  0.4088  0.4462 -0.0644
 3240TIP3    H233916   5.215   5.575  10.862  0.9250  1.6632 -0.5958
 3241TIP3   OH233917   2.908   0.431  11.664  0.3646 -0.1839 -0.1398
 3241TIP3    H133918   2.861   0.364  11.714  1.5599 -1.1701 -0.3092
 3241TIP3    H233919   2.917   0.504  11.725  0.4313 -0.7797  0.5801
 3242TIP3   OH233920   1.281   0.825   9.179 -0.6425  0.1500  0.2691
 3242TIP3    H133921   1.295   0.754   9.243  1.4349  1.2860  1.1855
 3242TIP3    H233922   1.193   0.856   9.197 -1.1606 -1.4112  0.6468
 3243TIP3   OH233923   0.756   6.665  10.874  0.2658  0.3686 -0.3891
 3243TIP3    H133924   0.761   6.571  10.858  1.0554  0.2955  0.2111
 3243TIP3    H233925   0.739   6.673  10.968  1.4825  0.8166 -0.1858
 3244TIP3   OH233926   6.531   0.253   9.112 -0.1083  0.2901 -0.1173
 3244TIP3    H133927   6.576   0.178   9.072 -1.1257 -0.0522 -0.6475
 3244TIP3    H233928   6.475   0.288   9.042 -1.3689  0.1277  0.7802
 3245TIP3   OH233929   0.043   5.736  10.570 -0.3701 -0.6125  0.8870
 3245TIP3    H133930  -0.011   5.692  10.504  3.5932 -0.9325 -2.4899
 3245TIP3    H233931   0.027   5.829  10.556 -1.1963 -0.7086  1.0908
 3246TIP3   OH233932   6.631   1.514   9.434 -0.3765  0.2777 -0.0205
 3246TIP3    H133933   6.539   1.516   9.410 -0.5689 -1.3349  0.4667
 3246TIP3    H233934   6.664   1.433   9.396  0.5695  0.2929  0.7295
 3247TIP3   OH233935   3.101   4.125   9.782 -0.8574  0.6518 -0.2848
 3247TIP3    H133936   3.094   4.084   9.696  0.4049  0.0432 -0.1131
 3247TIP3    H233937   3.192   4.154   9.788 -0.9642  0.8231  0.7876
 3248TIP3   OH233938   6.773   5.082   9.330  0.3057 -0.3392  0.1882
 3248TIP3    H133939   6.729   4.997   9.324  1.2960 -0.8369 -0.4455
 3248TIP3    H233940   6.805   5.087   9.420  2.4114 -1.8230 -0.3776
 3249TIP3   OH233941   6.733   4.958  11.089  0.1124 -0.1354  0.7300
 3249TIP3    H133942   6.646   4.971  11.125 -1.0937 -1.2665 -1.5717
 3249TIP3    H233943   6.744   5.029  11.026 -0.2652 -1.4247 -0.8504
 3250TIP3   OH233944   2.987   4.059  10.182  0.3628  0.3600  0.1670
 3250TIP3    H133945   3.018   4.143  10.147  3.0840 -0.1608  1.0702
 3250TIP3    H233946   2.986   4.001  10.106  4.5418 -0.2966  0.3505
 3251TIP3   OH233947   0.542   1.478  10.431 -0.0786  0.0568  0.0889
 3251TIP3    H133948   0.574   1.532  10.503  0.2658 -0.1432  0.0831
 3251TIP3    H233949   0.487   1.538  10.380 -1.3066 -0.0956  1.1701
 3252TIP3   OH233950   1.202   4.590   9.088 -0.9328 -0.7311 -0.0663
 3252TIP3    H133951   1.202   4.630   9.001  1.6982 -0.9031 -0.2188
 3252TIP3    H233952   1.208   4.664   9.148  1.5918 -0.6732 -0.2679
 3253TIP3   OH233953   2.538   3.423  11.227  0.2745  0.3331  0.2431
 3253TIP3    H133954   2.585   3.375  11.159 -0.8180 -1.1221  0.4541
 3253TIP3    H233955   2.487   3.356  11.272 -2.2351  1.8338 -0.1818
 3254TIP3   OH233956   6.783   3.793   9.102  0.4658  0.0238  0.3802
 3254TIP3    H133957   6.761   3.878   9.066 -1.5047 -1.3078 -1.8594
 3254TIP3    H233958   6.701   3.760   9.138  1.1887 -0.9542  1.1954
 3255TIP3   OH233959   2.341   5.669  10.920 -0.3022 -1.1004  0.0848
 3255TIP3    H133960   2.316   5.579  10.897 -1.5703 -1.0073  1.0341
 3255TIP3    H233961   2.286   5.691  10.995 -0.3409  0.6397 -0.4144
 3256TIP3   OH233962   1.525   1.110   9.423 -0.0742 -0.1096  0.4451
 3256TIP3    H133963   1.507   1.108   9.517 -0.1616  1.3726  0.4776
 3256TIP3    H233964   1.603   1.166   9.415 -0.9897  1.0658 -0.4913
 3257TIP3   OH233965   6.326   1.970   9.479 -0.4248 -0.2611  0.4559
 3257TIP3    H133966   6.320   1.957   9.384 -1.0452  1.6352  0.1911
 3257TIP3    H233967   6.301   1.886   9.517  0.0134 -1.1027 -1.0529
 3258TIP3   OH233968   5.714   2.399  10.213  0.1302 -0.2108  0.0791
 3258TIP3    H133969   5.635   2.366  10.170  0.5849 -1.2891  0.0468
 3258TIP3    H233970   5.756   2.321  10.248  1.7531  0.2100 -0.8368
 3259TIP3   OH233971   3.567   3.777  12.118  0.1666 -0.0530 -0.0823
 3259TIP3    H133972   3.493   3.722  12.146  0.0402  0.2704  0.2351
 3259TIP3    H233973   3.533   3.866  12.123  0.8620  0.1689  0.9545
 3260TIP3   OH233974   4.705   6.351  10.436  0.4894  0.4793 -0.6305
 3260TIP3    H133975   4.648   6.417  10.395 -2.1725 -2.2302 -1.6808
 3260TIP3    H233976   4.774   6.336  10.372 -1.7383 -1.2562 -2.8271
 3261TIP3   OH233977   5.798   5.169   9.355  0.1824  0.1102 -0.3159
 3261TIP3    H133978   5.831   5.217   9.278 -0.2716  1.9119  0.5612
 3261TIP3    H233979   5.827   5.221   9.430 -1.7970 -0.0441  0.6188
 3262TIP3   OH233980   4.632   3.769  11.191  0.2691 -0.5177 -0.4255
 3262TIP3    H133981   4.610   3.777  11.098  0.9317  0.0294 -0.5358
 3262TIP3    H233982   4.724   3.745  11.193  0.2806 -0.4515  0.0962
 3263TIP3   OH233983   4.230   2.348   8.809 -0.1540 -0.3311  0.7243
 3263TIP3    H133984   4.292   2.419   8.787 -0.4522 -0.2314  0.1702
 3263TIP3    H233985   4.267   2.308   8.887  1.3022 -1.0843 -0.2928
 3264TIP3   OH233986   5.150   2.551  11.503  0.0456 -0.2553 -0.5922
 3264TIP3    H133987   5.223   2.556  11.565  0.1330  0.5659 -0.7583
 3264TIP3    H233988   5.186   2.582  11.420 -0.0826 -1.3039 -1.0635
 3265TIP3   OH233989   3.767   0.642   9.811 -0.3714  0.5542  0.3233
 3265TIP3    H133990   3.821   0.720   9.798  0.0040  0.5715  1.7772
 3265TIP3    H233991   3.819   0.570   9.776 -0.5123  0.8843 -0.5869
 3266TIP3   OH233992   0.177   2.282   8.251 -0.1289  0.2532 -0.6202
 3266TIP3    H133993   0.194   2.198   8.208 -0.9838  0.4608 -1.4092
 3266TIP3    H233994   0.244   2.340   8.218  1.0419 -0.3176  0.6329
 3267TIP3   OH233995   4.438   3.425   8.992 -0.0723 -0.2184 -0.7853
 3267TIP3    H133996   4.437   3.516   8.960  0.4446  0.0893  0.0290
 3267TIP3    H233997   4.431   3.434   9.087 -1.6162 -1.1095 -0.7821
 3268TIP3   OH233998   3.638   5.192  10.702  0.2874  0.5668 -0.1784
 3268TIP3    H133999   3.700   5.119  10.700 -1.2643 -0.8630  0.8645
 3268TIP3    H234000   3.617   5.207  10.609 -1.2772 -2.1332 -0.3896
 3269TIP3   OH234001   0.292   6.630   9.393 -0.7354 -0.2994  0.0297
 3269TIP3    H134002   0.218   6.622   9.453 -0.0814 -2.7527  0.6020
 3269TIP3    H234003   0.286   6.720   9.360 -3.3108 -0.0804  0.8716
 3270TIP3   OH234004   5.477   5.891   9.968  0.1942  0.2853 -0.4933
 3270TIP3    H134005   5.530   5.843  10.032 -0.8696 -0.3899 -0.0866
 3270TIP3    H234006   5.393   5.903  10.011 -0.3079  0.4755 -1.4947
 3271TIP3   OH234007   3.926   4.213  10.285 -0.8062  0.5105  0.7277
 3271TIP3    H134008   3.962   4.276  10.222 -0.1468  1.8657  2.3678
 3271TIP3    H234009   3.838   4.247  10.304 -1.3265 -0.3658 -0.0637
 3272TIP3   OH234010   6.082   2.266  10.178  0.1478 -0.2582  0.4392
 3272TIP3    H134011   5.993   2.235  10.193 -0.3608  0.5921 -0.7135
 3272TIP3    H234012   6.078   2.360  10.192  1.6189 -0.5330  3.6172
 3273TIP3   OH234013   3.074   1.078  10.812  0.4933 -0.6218  0.6250
 3273TIP3    H134014   3.012   1.099  10.882  2.5739  0.8894  2.1610
 3273TIP3    H234015   3.098   0.987  10.828  0.0467 -0.6556  1.1592
 3274TIP3   OH234016   6.786   4.865   8.852 -0.4688  0.7995  0.4026
 3274TIP3    H134017   6.830   4.783   8.830 -1.8737 -0.2738  1.3972
 3274TIP3    H234018   6.809   4.925   8.781  1.6281 -0.0369  0.3041
 3275TIP3   OH234019   1.605   1.748   8.711 -0.0813  0.1380 -0.0216
 3275TIP3    H134020   1.517   1.775   8.688  0.2216  1.3009  0.1017
 3275TIP3    H234021   1.599   1.719   8.803 -0.1296  1.3016  0.3556
 3276TIP3   OH234022   5.680   5.833  10.247  0.3201 -0.1001 -0.4270
 3276TIP3    H134023   5.750   5.780  10.285 -0.5611 -1.0855 -0.1422
 3276TIP3    H234024   5.716   5.922  10.244  1.4169 -0.5113  0.1174
 3277TIP3   OH234025   1.024   1.104  10.994 -0.6890  0.3259 -0.5517
 3277TIP3    H134026   0.954   1.069  10.939 -0.5410  0.2458 -0.6897
 3277TIP3    H234027   0.983   1.118  11.079 -0.7681 -0.0938 -0.5224
 3278TIP3   OH234028   1.204   4.376  11.321  0.3794  0.4163 -0.2771
 3278TIP3    H134029   1.179   4.349  11.233 -0.1974  0.9455 -0.2849
 3278TIP3    H234030   1.299   4.391  11.315  0.3300  0.5447 -0.8381
 3279TIP3   OH234031   3.856   6.514  10.450  0.0463 -0.3807  0.1418
 3279TIP3    H134032   3.830   6.510  10.542  1.6370 -0.2477  0.6244
 3279TIP3    H234033   3.913   6.438  10.438  1.3014  0.5832 -0.2393
 3280TIP3   OH234034   1.401   4.287  11.605 -0.5861 -0.0093 -0.6119
 3280TIP3    H134035   1.422   4.350  11.675 -0.0386 -2.3071  1.4460
 3280TIP3    H234036   1.311   4.308  11.581 -0.5310  1.3588  0.2452
 3281TIP3   OH234037   0.968   6.001  10.436 -0.2315 -0.3636 -0.2307
 3281TIP3    H134038   0.969   5.989  10.341 -0.7063  2.0046 -0.6004
 3281TIP3    H234039   1.051   6.044  10.456 -0.3670 -0.3613  0.3543
 3282TIP3   OH234040   5.288   2.620  11.283  0.2298  0.2019  0.0102
 3282TIP3    H134041   5.353   2.687  11.261 -0.8681  0.6298 -2.2500
 3282TIP3    H234042   5.317   2.543  11.235 -0.4400  0.1524 -0.3318
 3283TIP3   OH234043   1.355   0.330  11.436 -0.5765 -0.0445 -0.5136
 3283TIP3    H134044   1.293   0.372  11.376 -0.9110 -0.9922 -0.8472
 3283TIP3    H234045   1.439   0.372  11.416 -0.9425  0.6507 -0.6511
 3284TIP3   OH234046   0.364   6.422  10.148  0.1699  0.0164  1.6913
 3284TIP3    H134047   0.332   6.356  10.086  1.8500 -0.2498  1.0572
 3284TIP3    H234048   0.289   6.480  10.163 -0.4862 -0.3396 -0.0283
 3285TIP3   OH234049   2.806   6.724   9.560  0.1346  0.1266  0.3993
 3285TIP3    H134050   2.821   6.800   9.616 -1.1796 -0.8569  2.1970
 3285TIP3    H234051   2.885   6.670   9.570  0.2741  0.3667  0.5881
 3286TIP3   OH234052   1.440   1.924   9.593  0.0843  0.2640 -0.3273
 3286TIP3    H134053   1.398   1.910   9.678  0.6996  1.6546  0.2392
 3286TIP3    H234054   1.486   1.842   9.575  0.6631  0.2495  1.1097
 3287TIP3   OH234055   4.436   3.164  11.786 -0.0963  0.6224 -0.4217
 3287TIP3    H134056   4.391   3.242  11.753  1.7963  1.9307 -0.0519
 3287TIP3    H234057   4.465   3.118  11.707  0.4980  1.3494 -0.6313
 3288TIP3   OH234058   6.527   4.313   9.971  0.0260 -0.1658 -0.5881
 3288TIP3    H134059   6.440   4.338  10.003  0.8254 -0.6125  2.1990
 3288TIP3    H234060   6.511   4.272   9.886 -2.2214  1.7037 -1.1688
 3289TIP3   OH234061   5.764   5.346  11.607  0.0688  0.0289 -0.5708
 3289TIP3    H134062   5.843   5.400  11.604 -0.2842  0.7726  1.7886
 3289TIP3    H234063   5.706   5.390  11.668 -1.0434 -1.9813 -0.0753
 3290TIP3   OH234064   2.907   1.992  10.016  0.1521 -0.0531 -0.1702
 3290TIP3    H134065   2.941   2.018  10.102  0.5054 -1.4330  0.1308
 3290TIP3    H234066   2.812   1.999  10.025  0.0353 -2.2011  1.0812
 3291TIP3   OH234067   4.977   1.156  10.285  0.3438 -0.1668 -0.5168
 3291TIP3    H134068   4.959   1.065  10.261  0.2917 -0.2899 -0.0331
 3291TIP3    H234069   4.899   1.183  10.334  1.1622 -0.5016  1.0480
 3292TIP3   OH234070   6.208   0.784  10.415 -0.3719 -0.1706 -0.6485
 3292TIP3    H134071   6.271   0.766  10.346 -0.0426  0.2072 -0.4497
 3292TIP3    H234072   6.134   0.726  10.396 -0.0278 -0.5079 -0.9627
 3293TIP3   OH234073   4.919   6.553  10.085 -0.1225 -0.7375  0.2412
 3293TIP3    H134074   4.886   6.600  10.009  0.9445 -1.9786 -1.0390
 3293TIP3    H234075   4.953   6.622  10.143 -0.6064  0.1977 -0.5652
 3294TIP3   OH234076   6.788   3.359   9.731  0.7305  0.6131  0.2193
 3294TIP3    H134077   6.726   3.432   9.732  0.0383  0.0812 -1.3630
 3294TIP3    H234078   6.768   3.310   9.811  0.5860  1.6157  0.8247
 3295TIP3   OH234079   6.474   3.746   9.510  0.5152 -0.4741  0.7459
 3295TIP3    H134080   6.557   3.741   9.557  1.0204  0.4636 -0.0062
 3295TIP3    H234081   6.497   3.728   9.419 -0.1963 -0.7593  0.6159
 3296TIP3   OH234082   4.055   4.546   9.509 -0.2174  0.2525  0.2113
 3296TIP3    H134083   3.995   4.521   9.439  0.1068  0.0860 -0.0066
 3296TIP3    H234084   4.006   4.611   9.560 -0.7426 -0.2014  0.2883
 3297TIP3   OH234085   3.422   6.116  10.468  0.2348  0.1074  0.7654
 3297TIP3    H134086   3.380   6.086  10.387  1.0917 -0.5407  0.5540
 3297TIP3    H234087   3.348   6.138  10.525 -0.4159 -1.0377  0.4131
 3298TIP3   OH234088   4.735   3.321   9.193 -0.4986 -0.2884 -0.1805
 3298TIP3    H134089   4.799   3.316   9.264  1.2615  0.3124 -1.6792
 3298TIP3    H234090   4.675   3.391   9.220  1.3438  1.3626 -0.2014
 3299TIP3   OH234091   3.461   1.671  10.931  0.0609 -0.1046  0.0513
 3299TIP3    H134092   3.554   1.672  10.908 -0.3717  0.2709 -1.8708
 3299TIP3    H234093   3.460   1.659  11.026  2.0524 -0.5686  0.0643
 3300TIP3   OH234094   3.242   5.594  10.104  0.0639  0.1997  0.0692
 3300TIP3    H134095   3.173   5.613  10.168 -0.2000 -0.2843 -0.0665
 3300TIP3    H234096   3.323   5.597  10.155 -0.2108 -1.0200  0.6171
 3301TIP3   OH234097   2.171   0.019   9.537 -0.9088 -0.3866  0.2543
 3301TIP3    H134098   2.179   0.076   9.461  2.9750 -0.8955  0.0771
 3301TIP3    H234099   2.129  -0.060   9.503  1.3109 -0.8573 -1.6346
 3302TIP3   OH234100   1.432   2.506  10.888  0.0739 -0.3076  0.1871
 3302TIP3    H134101   1.356   2.559  10.865  0.2807 -1.2032 -3.0596
 3302TIP3    H234102   1.487   2.507  10.810  2.4770 -1.3033  1.7431
 3303TIP3   OH234103   6.499   4.602   9.211 -0.0762 -0.3347  0.0358
 3303TIP3    H134104   6.410   4.569   9.221 -0.4670  0.2016 -1.3911
 3303TIP3    H234105   6.545   4.532   9.166  0.3133 -0.7170  1.0009
 3304TIP3   OH234106   6.589   4.127   9.738  0.2000 -0.1586  0.2735
 3304TIP3    H134107   6.644   4.091   9.668  0.3524 -0.2635  0.4448
 3304TIP3    H234108   6.517   4.064   9.746  0.1401 -0.1066  0.1602
 3305TIP3   OH234109   6.078   6.789   9.951  0.6808 -0.3916  0.1523
 3305TIP3    H134110   6.172   6.786   9.936  0.5197  0.4049 -1.1167
 3305TIP3    H234111   6.040   6.737   9.880  0.0110  1.8617 -1.2296
 3306TIP3   OH234112   3.356   5.709   9.328 -0.2110 -0.3134 -0.7379
 3306TIP3    H134113   3.267   5.732   9.356  0.0577 -1.0913  0.8977
 3306TIP3    H234114   3.408   5.714   9.409  1.4322  0.9549 -1.8054
 3307TIP3   OH234115   3.497   0.650   9.491  0.1779 -0.3335  0.0909
 3307TIP3    H134116   3.476   0.724   9.547  2.5679  0.1983  0.4007
 3307TIP3    H234117   3.488   0.684   9.402 -0.0453 -0.0665  0.2142
 3308TIP3   OH234118   0.905   2.788   9.629 -0.8334  0.1244  0.1511
 3308TIP3    H134119   0.949   2.784   9.544 -1.0689 -4.0389 -0.0038
 3308TIP3    H234120   0.923   2.876   9.662  1.6369  0.9556 -2.9445
 3309TIP3   OH234121   1.546   6.022   9.356  0.3196 -0.1748  0.1901
 3309TIP3    H134122   1.515   5.996   9.269  0.1229  2.1163 -0.4711
 3309TIP3    H234123   1.603   6.096   9.340  0.5636  0.0681  2.0126
 3310TIP3   OH234124   4.692   2.784   9.501 -0.1718  0.1973  0.1763
 3310TIP3    H134125   4.732   2.767   9.587  1.3791 -0.8082 -0.7066
 3310TIP3    H234126   4.656   2.872   9.509  1.0498  0.6156  1.4590
 3311TIP3   OH234127   5.637   1.238  11.244  0.2571  0.2895 -0.1789
 3311TIP3    H134128   5.637   1.153  11.200  0.1613  0.6195 -0.8332
 3311TIP3    H234129   5.588   1.223  11.325 -0.7115 -0.0239 -0.7976
 3312TIP3   OH234130   1.686   2.005  10.564 -0.1391  0.1272 -0.6657
 3312TIP3    H134131   1.637   2.086  10.556 -0.1879  0.1483 -0.1517
 3312TIP3    H234132   1.696   1.991  10.658  1.5453  0.5567 -0.7341
 3313TIP3   OH234133   2.314   4.504  10.382 -0.3387 -0.0852 -0.0297
 3313TIP3    H134134   2.358   4.477  10.302  1.2256  0.8965  0.4453
 3313TIP3    H234135   2.276   4.424  10.418 -0.8836 -0.5685 -1.6158
 3314TIP3   OH234136   3.295   2.115   8.696  0.3279  0.4815  0.2347
 3314TIP3    H134137   3.221   2.147   8.645  0.2032 -2.2272 -1.4571
 3314TIP3    H234138   3.282   2.153   8.784 -2.2717  1.1640 -0.3610
 3315TIP3   OH234139   4.705   5.182   9.849 -0.2595  0.0228 -0.1801
 3315TIP3    H134140   4.685   5.187   9.755  0.7611  0.8009 -0.3764
 3315TIP3    H234141   4.694   5.089   9.871  0.7468 -0.4152 -1.3823
 3316TIP3   OH234142   1.941   6.472  11.291  0.4706 -0.4550  0.8303
 3316TIP3    H134143   1.907   6.395  11.246  0.2273 -0.0286  0.2737
 3316TIP3    H234144   2.019   6.440  11.337  0.5106 -0.9817  0.4090
 3317TIP3   OH234145   1.495   5.015   9.296 -1.0328  0.3400 -0.4982
 3317TIP3    H134146   1.529   5.048   9.213 -0.1104  1.4156  0.2776
 3317TIP3    H234147   1.546   5.061   9.363 -0.7732 -1.5259  0.6642
 3318TIP3   OH234148   4.794   4.313   9.558 -0.1208  0.2928 -0.0480
 3318TIP3    H134149   4.836   4.239   9.602  0.5427  0.8942  0.3538
 3318TIP3    H234150   4.863   4.353   9.506 -0.8898 -0.3803 -1.6435
 3319TIP3   OH234151   1.114   3.304   9.456 -0.0637  0.1818 -0.4951
 3319TIP3    H134152   1.067   3.350   9.387 -1.8694 -1.8602 -0.7451
 3319TIP3    H234153   1.146   3.373   9.514 -0.3001  1.8295 -2.2272
 3320TIP3   OH234154   0.292   1.737   9.207  0.2826 -0.1474  0.0504
 3320TIP3    H134155   0.232   1.736   9.132  0.5326  1.5338 -0.2034
 3320TIP3    H234156   0.363   1.678   9.180 -0.9137 -1.6880  0.1129
 3321TIP3   OH234157   2.653   5.245   9.399 -0.5563 -0.5617  0.1744
 3321TIP3    H134158   2.711   5.169   9.400  1.1235  0.6800  0.5024
 3321TIP3    H234159   2.568   5.211   9.427  0.0454 -2.3801 -0.0872
 3322TIP3   OH234160   1.434   2.045   8.466 -0.0534 -0.2848 -0.1601
 3322TIP3    H134161   1.397   2.080   8.547  2.3087  0.7998  0.5541
 3322TIP3    H234162   1.362   1.998   8.425 -1.6001 -0.0483  2.0846
 3323TIP3   OH234163   1.444   3.752   9.911  0.4853 -0.0141  0.2878
 3323TIP3    H134164   1.487   3.836   9.893  1.5221 -0.4808  0.5679
 3323TIP3    H234165   1.350   3.773   9.905  0.7151  1.2376  0.6858
 3324TIP3   OH234166   4.779   0.093  11.330 -0.6934  0.0784 -0.3120
 3324TIP3    H134167   4.828   0.028  11.381 -0.1659 -1.6526 -2.8082
 3324TIP3    H234168   4.688   0.067  11.339 -0.4730 -1.2392 -1.4558
 3325TIP3   OH234169   1.673   5.612  11.423  0.6285 -0.4120  0.5900
 3325TIP3    H134170   1.712   5.681  11.476 -0.6660  1.8424 -1.1763
 3325TIP3    H234171   1.615   5.565  11.483  4.1740 -2.4878  2.7342
 3326TIP3   OH234172   2.547   3.315  10.646  0.0582 -0.4531 -0.8411
 3326TIP3    H134173   2.511   3.364  10.572  0.9856  0.7946 -0.5111
 3326TIP3    H234174   2.518   3.363  10.723  0.1666 -0.9969 -0.4603
 3327TIP3   OH234175   1.208   4.224   8.416  0.1545  0.1976  0.2028
 3327TIP3    H134176   1.205   4.149   8.357  0.3146  0.5809 -0.2971
 3327TIP3    H234177   1.291   4.215   8.463 -0.3028 -0.5042  0.9087
 3328TIP3   OH234178   5.841   2.363   9.946 -0.0040 -0.2409 -0.7430
 3328TIP3    H134179   5.819   2.402  10.030  0.7874 -0.5615 -0.3714
 3328TIP3    H234180   5.882   2.434   9.897  2.0229 -0.7040  0.1694
 3329TIP3   OH234181   2.006   4.374  10.793 -0.6830  0.1829  0.1417
 3329TIP3    H134182   2.036   4.431  10.864  1.9308 -0.0795 -0.6109
 3329TIP3    H234183   1.994   4.288  10.833  0.4410  0.1179  0.3890
 3330TIP3   OH234184   1.794   6.252   9.504 -0.3166 -0.1886 -0.5665
 3330TIP3    H134185   1.740   6.288   9.573  0.8195  1.8535 -0.6774
 3330TIP3    H234186   1.776   6.307   9.428  0.5841 -0.5873 -1.0896
 3331TIP3   OH234187   5.778   6.506  11.066  0.4036  0.3885  0.1303
 3331TIP3    H134188   5.869   6.515  11.040  0.1141  0.6570 -0.8176
 3331TIP3    H234189   5.749   6.424  11.028  0.3793  0.0498  0.8548
 3332TIP3   OH234190   6.511   4.949   9.513  0.1038 -0.1464  0.4146
 3332TIP3    H134191   6.560   4.901   9.446  0.3651 -0.8173  1.0745
 3332TIP3    H234192   6.420   4.921   9.500  0.2685 -0.9257  0.8647
 3333TIP3   OH234193   4.777   3.246   8.502  0.4310  0.2462 -0.2712
 3333TIP3    H134194   4.777   3.161   8.457  0.8658  0.5605 -0.8743
 3333TIP3    H234195   4.713   3.298   8.454 -1.0947 -0.2426  1.1166
 3334TIP3   OH234196   6.490   5.492  10.505  0.0924  0.1270  0.0752
 3334TIP3    H134197   6.548   5.534  10.443  0.7786  0.6394  1.0503
 3334TIP3    H234198   6.405   5.534  10.491 -0.1088 -0.7180 -1.4427
 3335TIP3   OH234199   2.383   6.405  11.262 -0.1151  0.1449 -0.1361
 3335TIP3    H134200   2.384   6.469  11.191 -0.1082  1.4768  0.9959
 3335TIP3    H234201   2.290   6.391  11.280 -0.2293  2.5321  1.8099
 3336TIP3   OH234202   0.097   1.797  11.437  0.2499 -0.2692  0.2961
 3336TIP3    H134203   0.109   1.743  11.515 -0.8888  0.1988  0.8172
 3336TIP3    H234204   0.120   1.739  11.364  1.0298 -0.8054  0.9556
 3337TIP3   OH234205   3.458   1.915  10.669  0.3236 -0.1588 -0.0872
 3337TIP3    H134206   3.495   1.907  10.581  0.2636  0.2226 -0.1468
 3337TIP3    H234207   3.532   1.894  10.727  0.6739  0.6942 -0.2038
 3338TIP3   OH234208   5.909   1.615  11.387  0.0231  0.2286 -0.4748
 3338TIP3    H134209   5.899   1.578  11.475  3.7753 -1.8328 -0.7098
 3338TIP3    H234210   5.940   1.542  11.334  0.3268  2.0280 -2.9176
 3339TIP3   OH234211   0.898   5.625  11.669 -0.1977 -0.0100 -0.0358
 3339TIP3    H134212   0.844   5.604  11.593  0.1217  0.0408 -0.2797
 3339TIP3    H234213   0.985   5.593  11.646  0.6299  2.6210 -0.9428
 3340TIP3   OH234214   6.138   1.727  11.230 -0.1275  0.4853 -0.3885
 3340TIP3    H134215   6.157   1.747  11.322  1.7515 -1.0802 -0.3865
 3340TIP3    H234216   6.050   1.688  11.232  0.1067 -0.0141  0.8156
 3341TIP3   OH234217   2.047   3.404   8.765  0.7075  0.5580  0.1269
 3341TIP3    H134218   1.961   3.430   8.733 -0.2317 -2.1038  0.2845
 3341TIP3    H234219   2.080   3.482   8.811 -0.4369  2.5005 -2.1106
 3342TIP3   OH234220   2.894   6.761  10.644  0.0639 -0.2520  0.9350
 3342TIP3    H134221   2.920   6.669  10.639 -2.0585 -0.9136  1.2364
 3342TIP3    H234222   2.929   6.791  10.728  0.8134 -0.7488  0.8165
 3343TIP3   OH234223   0.344   3.234  11.725  0.3278  0.2315  0.0056
 3343TIP3    H134224   0.313   3.146  11.705 -0.3960  0.4936 -0.0306
 3343TIP3    H234225   0.435   3.235  11.693  0.0350 -0.1919 -0.8718
 3344TIP3   OH234226   4.548   4.789  10.556 -0.5337 -0.2188 -0.1170
 3344TIP3    H134227   4.591   4.707  10.533  1.3867  1.3414 -2.7267
 3344TIP3    H234228   4.454   4.769  10.553 -0.1298 -2.5897  0.8334
 3345TIP3   OH234229   6.494   0.863   9.602  0.0756  0.0613  0.5273
 3345TIP3    H134230   6.563   0.851   9.536  0.3579  0.0404  0.8239
 3345TIP3    H234231   6.541   0.863   9.686  0.0281  2.4798  0.6197
 3346TIP3   OH234232   6.349   5.194   8.333 -0.0179  0.1514 -0.3191
 3346TIP3    H134233   6.429   5.159   8.294  0.9667  0.2074  1.5234
 3346TIP3    H234234   6.295   5.116   8.351 -0.0951  0.0544 -0.9588
 3347TIP3   OH234235   3.508   5.265  11.123 -0.0727  0.2925 -0.2284
 3347TIP3    H134236   3.489   5.180  11.085 -0.0527 -0.1245  0.6762
 3347TIP3    H234237   3.456   5.268  11.203  0.9583  0.5750  0.4455
 3348TIP3   OH234238   5.368   1.606  11.740 -0.5309 -0.0759 -0.2332
 3348TIP3    H134239   5.438   1.555  11.780 -0.4626 -0.6783 -1.1020
 3348TIP3    H234240   5.407   1.693  11.727  0.0664 -0.4103 -0.7250
 3349TIP3   OH234241   2.183   2.692  10.218 -0.4812  0.3557  0.3102
 3349TIP3    H134242   2.225   2.720  10.137  1.1512 -1.8250  0.3138
 3349TIP3    H234243   2.092   2.718  10.208  0.0489  1.7797 -1.3974
 3350TIP3   OH234244   5.966   0.850  10.220 -0.3568 -0.3647  0.4988
 3350TIP3    H134245   5.998   0.769  10.261 -0.4310 -0.5095  0.2730
 3350TIP3    H234246   5.915   0.820  10.145 -0.4935 -0.1115  0.4895
 3351TIP3   OH234247   5.435   4.464  10.271 -0.9105 -0.2312 -0.1948
 3351TIP3    H134248   5.472   4.380  10.298  0.5484  0.3562 -0.3151
 3351TIP3    H234249   5.510   4.515  10.240 -1.7082  1.2811  0.2770
 3352TIP3   OH234250   0.598   3.939   9.912  0.5767  0.2538 -0.0440
 3352TIP3    H134251   0.519   3.901   9.949  1.0462  1.5329  2.4453
 3352TIP3    H234252   0.582   4.033   9.914  1.2792  0.4409 -1.7134
 3353TIP3   OH234253   1.163   3.703   9.204  0.7204 -0.0141  0.2304
 3353TIP3    H134254   1.235   3.691   9.266 -0.2532 -1.0729  1.2038
 3353TIP3    H234255   1.090   3.734   9.257  0.8384  2.6565 -0.9909
 3354TIP3   OH234256   6.075   3.983   9.803 -0.0021  0.1143  0.2675
 3354TIP3    H134257   6.065   4.044   9.876 -0.4938  0.6278 -0.2199
 3354TIP3    H234258   5.991   3.986   9.757  0.7752  0.9391 -1.1888
 3355TIP3   OH234259   3.424   5.917  11.425 -0.0430 -0.0378  0.5277
 3355TIP3    H134260   3.374   5.852  11.376  1.4614 -1.9129  1.4084
 3355TIP3    H234261   3.381   5.921  11.510 -0.2698  0.3364  0.4025
 3356TIP3   OH234262   5.482   3.283   9.441  0.1838 -0.1124  0.0751
 3356TIP3    H134263   5.571   3.254   9.461 -0.2033 -1.9314 -0.6413
 3356TIP3    H234264   5.433   3.266   9.521  0.6327  1.7971  0.8090
 3357TIP3   OH234265   3.003   2.389   9.293  0.3598 -0.1580  0.5217
 3357TIP3    H134266   2.946   2.466   9.302  0.0358 -0.4712  1.2279
 3357TIP3    H234267   3.051   2.404   9.212  0.6068  0.9978  0.8626
 3358TIP3   OH234268   1.464   1.861  12.134  0.3411  0.1508 -0.1562
 3358TIP3    H134269   1.409   1.846  12.057  1.1875 -1.2718 -0.5249
 3358TIP3    H234270   1.474   1.774  12.173  0.2211  0.7996  1.3648
 3359TIP3   OH234271   4.215   3.039  10.219 -0.6621 -0.3135 -0.1116
 3359TIP3    H134272   4.175   3.117  10.257 -0.8461 -1.4395  2.1783
 3359TIP3    H234273   4.298   3.030  10.265 -0.7402 -1.5706 -0.1911
 3360TIP3   OH234274   5.006   4.597  10.669  0.5073 -0.3097 -0.1943
 3360TIP3    H134275   5.026   4.506  10.691  1.0657 -0.2790 -0.5513
 3360TIP3    H234276   5.010   4.643  10.752  0.1372 -0.6229  0.0030
 3361TIP3   OH234277   4.892   2.295   8.897 -0.1993  0.4119  0.0530
 3361TIP3    H134278   4.920   2.374   8.942  1.2261 -0.2557  0.4025
 3361TIP3    H234279   4.815   2.265   8.945  1.5023 -0.5047  2.3632
 3362TIP3   OH234280   0.439   3.721  10.829 -0.3429 -0.3048 -0.1843
 3362TIP3    H134281   0.387   3.722  10.909  0.2631  0.6270  0.2153
 3362TIP3    H234282   0.388   3.668  10.768  0.3590 -3.2824  1.5742
 3363TIP3   OH234283   2.785   1.631  10.983 -0.2494 -0.0022 -0.9758
 3363TIP3    H134284   2.722   1.619  11.054 -0.6398  1.6323 -1.0011
 3363TIP3    H234285   2.743   1.591  10.906 -1.0014  0.5609 -0.8648
 3364TIP3   OH234286   0.023   1.701  10.772 -0.1200 -0.2589  0.3148
 3364TIP3    H134287   0.064   1.749  10.699 -0.4141  0.7541  0.8045
 3364TIP3    H234288   0.006   1.614  10.736 -1.4621  0.6049 -1.2756
 3365TIP3   OH234289   4.212   6.443   8.798  0.1300  0.2971  0.4824
 3365TIP3    H134290   4.223   6.530   8.761  0.7110  0.0400  0.0368
 3365TIP3    H234291   4.118   6.436   8.817  0.1258  1.1224  0.7982
 3366TIP3   OH234292   4.356   5.767  11.723 -0.5301  0.8439 -0.7074
 3366TIP3    H134293   4.316   5.842  11.767  0.9629  0.8988  0.6733
 3366TIP3    H234294   4.441   5.800  11.693 -0.2741 -0.0294 -0.9596
 3367TIP3   OH234295   2.996   3.921   9.948  0.0408 -0.4791 -0.1189
 3367TIP3    H134296   3.027   3.981   9.880 -2.0691 -1.5289 -2.1480
 3367TIP3    H234297   3.069   3.859   9.960  0.2487 -0.6207 -1.8921
 3368TIP3   OH234298   0.347   6.698   9.711  0.3822  0.3405  0.1144
 3368TIP3    H134299   0.385   6.680   9.797  0.5871  0.8499  0.1339
 3368TIP3    H234300   0.335   6.611   9.672 -0.2595  0.0724  0.8868
 3369TIP3   OH234301   3.389   2.139  10.501  0.7996  0.2773  0.4355
 3369TIP3    H134302   3.409   2.100  10.416 -1.7672  0.5032 -0.3546
 3369TIP3    H234303   3.315   2.088  10.534  1.9798 -0.0533  2.7602
 3370TIP3   OH234304   4.944   4.929  10.690 -0.4394  0.3926 -0.1653
 3370TIP3    H134305   5.038   4.914  10.682 -0.8017 -1.2676 -1.9551
 3370TIP3    H234306   4.922   4.987  10.617 -0.7142  1.5050  0.7613
 3371TIP3   OH234307   1.275   0.749   8.621 -0.1567 -0.1029  0.2722
 3371TIP3    H134308   1.241   0.806   8.551 -0.6974 -0.1212  0.5103
 3371TIP3    H234309   1.200   0.695   8.646 -0.1345  0.3025  1.2672
 3372TIP3   OH234310   6.415   5.273  10.942  0.2044 -0.5365  0.4475
 3372TIP3    H134311   6.453   5.287  10.855  1.3760  2.2503  1.2922
 3372TIP3    H234312   6.380   5.184  10.939  1.4369 -1.0329 -2.4039
 3373TIP3   OH234313   5.348   3.800  10.732 -0.1828 -0.1232  0.5754
 3373TIP3    H134314   5.281   3.850  10.684 -0.1653  1.7839  2.3785
 3373TIP3    H234315   5.303   3.719  10.757 -1.5461  0.7248  0.9834
 3374TIP3   OH234316   5.529   1.815   9.376 -0.2574 -0.3364 -0.1224
 3374TIP3    H134317   5.588   1.744   9.350 -0.1778 -0.8977  1.4764
 3374TIP3    H234318   5.586   1.890   9.390 -0.3371  0.0716 -1.7893
 3375TIP3   OH234319   2.184   5.924  11.732  0.1284 -0.1142  0.2743
 3375TIP3    H134320   2.156   6.010  11.700 -0.8777 -0.4921  0.1118
 3375TIP3    H234321   2.272   5.939  11.765  0.2702  0.8093 -0.4707
 3376TIP3   OH234322   0.082   1.610   8.502  0.0412 -0.1301  0.1399
 3376TIP3    H134323   0.017   1.540   8.498 -1.1439  1.0013 -2.1887
 3376TIP3    H234324   0.031   1.691   8.500  1.4586  0.7852 -1.6213
 3377TIP3   OH234325   4.143   6.003  11.213  0.1820  0.2727  0.2994
 3377TIP3    H134326   4.220   5.975  11.163 -1.2602 -3.7218 -0.0446
 3377TIP3    H234327   4.167   5.988  11.304  0.5888  1.3709  0.3886
 3378TIP3   OH234328   1.697   6.607  10.176  0.4455 -0.0412  0.0844
 3378TIP3    H134329   1.718   6.644  10.090 -2.0492  2.6030  0.4430
 3378TIP3    H234330   1.741   6.522  10.177  0.6007 -0.1953 -3.7687
 3379TIP3   OH234331   3.750   3.806   9.596 -0.1982 -0.3332 -0.1857
 3379TIP3    H134332   3.659   3.778   9.596  0.1237 -1.5463 -2.2326
 3379TIP3    H234333   3.794   3.744   9.655 -1.0917  2.1587  3.4481
 3380TIP3   OH234334   0.341   0.147   7.947 -0.0649  0.1607 -0.3462
 3380TIP3    H134335   0.291   0.224   7.974 -0.8026  0.0379 -1.3356
 3380TIP3    H234336   0.425   0.182   7.918  0.1050  0.4528  0.4518
 3381TIP3   OH234337   4.989   5.793  11.129 -0.0739 -0.2452 -0.4932
 3381TIP3    H134338   4.929   5.809  11.057  0.6272 -1.1914 -1.3113
 3381TIP3    H234339   5.053   5.865  11.123  0.4651 -0.7826 -1.3466
 3382TIP3   OH234340   0.580   3.087  11.669 -0.9717  0.1864  0.2236
 3382TIP3    H134341   0.639   3.023  11.630 -0.3321  0.2873  0.9870
 3382TIP3    H234342   0.592   3.076  11.763  0.1505  2.2880  0.3868
 3383TIP3   OH234343   0.477   4.007   9.423  0.4733  0.2485  0.4300
 3383TIP3    H134344   0.482   4.065   9.347 -0.8301  1.0350  0.9205
 3383TIP3    H234345   0.462   4.065   9.497 -1.0013 -0.7049  0.9151
 3384TIP3   OH234346   0.101   5.113  10.313 -0.1422 -0.0461 -0.3052
 3384TIP3    H134347   0.160   5.186  10.297  0.0252 -0.0886  0.1041
 3384TIP3    H234348   0.135   5.071  10.392  0.9841 -1.7953 -1.6308
 3385TIP3   OH234349   5.410   1.893  11.797  0.1777  0.4121 -0.3279
 3385TIP3    H134350   5.405   1.974  11.747 -1.1988  1.2616  1.0835
 3385TIP3    H234351   5.498   1.892  11.834  0.7564  0.4237 -1.6687
 3386TIP3   OH234352   2.252   3.182  11.662 -0.2102 -0.3326 -0.4868
 3386TIP3    H134353   2.293   3.096  11.654  1.5544  0.3891  0.0992
 3386TIP3    H234354   2.281   3.215  11.747  0.2063  1.3275 -1.2171
 3387TIP3   OH234355   1.189   5.415   8.755  0.8318  0.2916  0.1569
 3387TIP3    H134356   1.175   5.476   8.828 -0.0144  1.5638 -1.0068
 3387TIP3    H234357   1.109   5.361   8.753 -0.4410  2.0673 -1.4132
 3388TIP3   OH234358   2.992   4.900   9.843  0.1538  0.2818 -0.0213
 3388TIP3    H134359   3.078   4.862   9.864 -1.1362 -2.7753  0.2729
 3388TIP3    H234360   2.955   4.923   9.928  0.4587  1.1727 -0.1172
 3389TIP3   OH234361   1.346   2.838   8.043  0.1808  0.1692  0.5685
 3389TIP3    H134362   1.368   2.771   7.979  1.0619  1.4745 -0.5350
 3389TIP3    H234363   1.334   2.918   7.992  0.3161  1.1222  1.9664
 3390TIP3   OH234364   5.971   3.287   9.541  0.3560  0.7590  0.3001
 3390TIP3    H134365   5.891   3.300   9.491  1.0836  0.8994 -0.8823
 3390TIP3    H234366   6.041   3.307   9.478  1.3152  0.3122  1.2047
 3391TIP3   OH234367   5.881   5.408   9.923 -0.0946 -0.2120 -0.4874
 3391TIP3    H134368   5.914   5.344   9.986 -0.8370 -0.1189 -0.0007
 3391TIP3    H234369   5.960   5.439   9.878  0.4325 -0.3818  0.2942
 3392TIP3   OH234370   1.571   2.157  11.391  0.7917 -0.4714  0.1940
 3392TIP3    H134371   1.627   2.228  11.421  0.3995  0.8347 -1.9188
 3392TIP3    H234372   1.625   2.078  11.399  2.1604  0.4402  0.2402
 3393TIP3   OH234373   2.874   1.702  11.859  0.4602  0.2352 -0.2292
 3393TIP3    H134374   2.931   1.763  11.905 -0.5152  0.9995  0.0057
 3393TIP3    H234375   2.824   1.756  11.798 -2.2285  0.1736  1.7000
 3394TIP3   OH234376   0.627   4.328   8.199 -0.0708  0.3210 -0.4796
 3394TIP3    H134377   0.547   4.282   8.174 -0.2026  0.2915 -0.0108
 3394TIP3    H234378   0.599   4.389   8.267  0.6953 -1.3386  1.4083
 3395TIP3   OH234379   6.665   6.260  10.534 -0.1598 -0.3395  0.4478
 3395TIP3    H134380   6.715   6.182  10.555  1.5259 -0.4298 -3.1213
 3395TIP3    H234381   6.726   6.332  10.547 -0.7725  0.1003  0.9477
 3396TIP3   OH234382   5.993   1.019   9.441  0.4101  0.4316 -0.6326
 3396TIP3    H134383   5.992   1.083   9.370  0.7598  2.0396  0.7347
 3396TIP3    H234384   5.905   1.025   9.479  0.5719  0.4004 -0.2514
 3397TIP3   OH234385   4.384   0.542  10.670  0.3823  0.0078  0.8038
 3397TIP3    H134386   4.454   0.572  10.612  1.0344 -0.5701  1.2686
 3397TIP3    H234387   4.428   0.526  10.754 -0.3516 -0.1421  1.1716
 3398TIP3   OH234388   5.959   4.880  10.734  0.2107 -0.2813 -0.2782
 3398TIP3    H134389   6.044   4.844  10.757  0.0453 -0.7563 -0.3948
 3398TIP3    H234390   5.928   4.825  10.662 -0.6530 -0.7919  0.4612
 3399TIP3   OH234391   4.549   4.320  11.303  0.5535 -0.4242  0.2440
 3399TIP3    H134392   4.603   4.305  11.225 -0.6039 -0.0940 -0.6582
 3399TIP3    H234393   4.521   4.412  11.294 -1.6530 -1.0803 -0.3361
 3400TIP3   OH234394   3.643   0.939  10.082  0.1490 -0.3505 -0.3832
 3400TIP3    H134395   3.694   0.869  10.123 -1.0471 -0.8707  0.2565
 3400TIP3    H234396   3.553   0.920  10.106 -0.1299  1.9508  0.6520
 3401TIP3   OH234397   1.904   3.418   9.174  0.5403  0.3644  0.1561
 3401TIP3    H134398   1.830   3.416   9.234 -0.4438  1.5438 -0.9609
 3401TIP3    H234399   1.869   3.458   9.094  1.4660 -2.2389 -1.6807
 3402TIP3   OH234400   4.594   0.282  11.566 -0.1176  0.3658 -0.0265
 3402TIP3    H134401   4.625   0.344  11.633 -0.4841  0.6997 -0.1682
 3402TIP3    H234402   4.673   0.258  11.517  0.1922 -0.0477  0.6582
 3403TIP3   OH234403   6.030   5.201  10.082 -0.2529 -0.3886  0.3720
 3403TIP3    H134404   6.096   5.138  10.053 -1.6123 -2.0093  0.6449
 3403TIP3    H234405   5.976   5.152  10.144 -2.0135  0.7189 -0.2183
 3404TIP3   OH234406   4.556   1.290  10.073  0.1665 -0.9661 -0.3519
 3404TIP3    H134407   4.569   1.384  10.059 -2.2209 -0.6412 -0.8125
 3404TIP3    H234408   4.578   1.250   9.989  0.6104 -0.7673 -0.3349
 3405TIP3   OH234409   5.546   1.052   8.851  0.2703  0.1690  0.2999
 3405TIP3    H134410   5.583   1.023   8.935  0.5364  1.5925  0.7014
 3405TIP3    H234411   5.460   1.010   8.848  1.2576 -1.9316  0.0745
 3406TIP3   OH234412   6.166   3.573  11.084 -0.4133  0.4907 -0.6830
 3406TIP3    H134413   6.126   3.651  11.044 -0.3460  0.3263 -1.0722
 3406TIP3    H234414   6.123   3.499  11.041  0.8113  0.2993 -1.6266
 3407TIP3   OH234415   0.922   3.678   9.368  0.5220  0.1220 -0.3129
 3407TIP3    H134416   0.935   3.760   9.416  1.3607  0.5089 -1.1750
 3407TIP3    H234417   0.827   3.664   9.369  0.5225  0.0329  1.5663
 3408TIP3   OH234418   5.144   6.640  11.916 -0.2219 -0.4616  0.1396
 3408TIP3    H134419   5.077   6.640  11.985  1.2065  0.9115  1.6351
 3408TIP3    H234420   5.187   6.726  11.925  1.7274 -1.2888 -0.7162
 3409TIP3   OH234421   5.287   3.327  11.404 -0.6121  0.2031  0.0067
 3409TIP3    H134422   5.297   3.413  11.445 -0.4232 -0.3729  1.2121
 3409TIP3    H234423   5.371   3.311  11.360  0.6588 -0.7711  2.5962
 3410TIP3   OH234424   3.515   3.751  11.482  1.0513  0.5614  0.1641
 3410TIP3    H134425   3.471   3.714  11.558 -0.5804  0.2576 -0.8840
 3410TIP3    H234426   3.513   3.846  11.498  0.5354  0.5130  0.4130
 3411TIP3   OH234427   1.653   0.870   9.443  0.4939 -0.1696  0.1635
 3411TIP3    H134428   1.605   0.947   9.414  1.1023 -0.0138 -0.4627
 3411TIP3    H234429   1.708   0.847   9.368  0.2203 -1.2931  0.2885
 3412TIP3   OH234430   0.874   3.062  10.179 -0.0720  0.2579 -0.2574
 3412TIP3    H134431   0.959   3.092  10.147  0.3586 -0.1231  0.4984
 3412TIP3    H234432   0.894   3.017  10.261 -0.6148 -2.4593 -1.5152
 3413TIP3   OH234433   3.257   0.507  10.296 -0.0389 -0.2803 -0.0695
 3413TIP3    H134434   3.196   0.580  10.307  1.4231  1.0376 -0.4211
 3413TIP3    H234435   3.223   0.439  10.353 -2.1499  0.1946 -0.6707
 3414TIP3   OH234436   1.157   1.855   8.923  0.2203  0.0288  0.5968
 3414TIP3    H134437   1.098   1.786   8.894 -0.2367  1.1626 -1.3244
 3414TIP3    H234438   1.243   1.828   8.890  0.4599 -0.6540  1.7180
 3415TIP3   OH234439   2.159   6.342  10.672  0.2171  0.2728  0.3470
 3415TIP3    H134440   2.064   6.352  10.673  0.1605 -0.1937  1.6580
 3415TIP3    H234441   2.191   6.418  10.623 -0.6270  2.5273  3.0474
 3416TIP3   OH234442   4.397   3.932  10.915  0.6811  0.2395  0.0709
 3416TIP3    H134443   4.376   3.895  10.829  2.1216  1.9800 -1.1019
 3416TIP3    H234444   4.491   3.920  10.924  0.8011  1.4707  0.6931
 3417TIP3   OH234445   6.125   2.522  11.259 -0.2508 -0.4426  0.0471
 3417TIP3    H134446   6.073   2.504  11.181  1.2385 -3.1740 -0.4613
 3417TIP3    H234447   6.203   2.466  11.249  1.9865  2.1476  1.5661
 3418TIP3   OH234448   6.309   2.732  10.277  0.3406  0.1038  0.2373
 3418TIP3    H134449   6.303   2.804  10.339  0.8550 -0.1498  0.5972
 3418TIP3    H234450   6.257   2.759  10.202 -0.4995  0.3129  0.8818
 3419TIP3   OH234451   0.115   2.264  10.589 -0.0892  0.2673 -0.3355
 3419TIP3    H134452   0.043   2.325  10.604  0.9856  1.4359  0.3503
 3419TIP3    H234453   0.095   2.189  10.645 -2.1083 -0.6871 -2.1873
 3420TIP3   OH234454   1.415   1.814  11.578  0.0056 -0.0549 -0.3461
 3420TIP3    H134455   1.399   1.727  11.614  1.1162  0.4895  1.6741
 3420TIP3    H234456   1.328   1.848  11.557 -0.6246 -0.8650  0.8311
 3421TIP3   OH234457   1.906   5.111  10.386  0.1775  0.6377 -0.1361
 3421TIP3    H134458   1.987   5.154  10.416 -0.0559  0.1771  1.2401
 3421TIP3    H234459   1.837   5.171  10.413 -0.0351  0.2374  0.2202
 3422TIP3   OH234460   6.558   4.262  11.311  0.0260 -0.0975  0.1527
 3422TIP3    H134461   6.532   4.260  11.404 -2.6603  0.3958 -0.4918
 3422TIP3    H234462   6.556   4.355  11.288  0.9363 -0.1937 -0.3649
 3423TIP3   OH234463   3.379   0.012   8.876  0.1518 -0.2698  0.3402
 3423TIP3    H134464   3.406  -0.008   8.965 -0.9756  0.0998  0.7773
 3423TIP3    H234465   3.461   0.024   8.828  0.7700  0.9658  1.6518
 3424TIP3   OH234466   5.682   6.217  10.991  0.5961  0.3190  0.1858
 3424TIP3    H134467   5.752   6.169  10.946 -0.0785  0.3398 -0.9217
 3424TIP3    H234468   5.618   6.150  11.014  2.1398 -0.1767  3.6983
 3425TIP3   OH234469   4.324   1.144  11.614  0.4342 -0.9963 -0.2051
 3425TIP3    H134470   4.331   1.238  11.628 -0.3818 -0.7121 -1.5787
 3425TIP3    H234471   4.287   1.110  11.695 -1.2137  0.1429 -0.4498
 3426TIP3   OH234472   4.208   2.580  11.331  0.1495 -0.0526 -0.2615
 3426TIP3    H134473   4.232   2.541  11.415  0.2185  1.7376  0.6071
 3426TIP3    H234474   4.114   2.596  11.339 -0.4477 -2.4015 -1.6664
 3427TIP3   OH234475   5.594   6.481  10.423  0.2157 -0.6082  0.2586
 3427TIP3    H134476   5.608   6.533  10.503  2.9051 -0.2086 -0.3856
 3427TIP3    H234477   5.577   6.546  10.355  0.9495 -0.7414 -0.0531
 3428TIP3   OH234478   0.327   0.045  11.328 -0.1838  0.3478 -0.1999
 3428TIP3    H134479   0.302  -0.033  11.278 -0.7601  0.4681 -0.1098
 3428TIP3    H234480   0.422   0.041  11.334 -0.2285 -0.5001  0.0422
 3429TIP3   OH234481   3.374   5.275  11.366  0.0462  0.1389  0.9895
 3429TIP3    H134482   3.416   5.232  11.440  0.8202  1.6601  1.4616
 3429TIP3    H234483   3.328   5.350  11.404 -0.5707  0.2413  0.0802
 3430TIP3   OH234484   1.114   2.324  11.504  0.0524 -0.1270  0.1164
 3430TIP3    H134485   1.189   2.265  11.516 -0.1782 -0.4033  0.1941
 3430TIP3    H234486   1.118   2.348  11.411  0.8136  0.6426  0.3331
 3431TIP3   OH234487   2.322   1.656  12.056  0.5086 -0.4713 -0.5054
 3431TIP3    H134488   2.231   1.675  12.077 -0.0594 -1.7331 -1.7031
 3431TIP3    H234489   2.371   1.727  12.098 -0.8793 -0.4859  1.2962
 3432TIP3   OH234490   5.720   6.359   9.521 -0.3363  0.0280  0.3967
 3432TIP3    H134491   5.720   6.263   9.516 -0.8097  0.0745 -1.4496
 3432TIP3    H234492   5.629   6.382   9.543 -0.1871  0.0614  0.9960
 3433TIP3   OH234493   2.779   6.100  11.167 -0.5467  0.0698 -0.6641
 3433TIP3    H134494   2.770   6.034  11.237 -0.0296 -1.4203 -1.9412
 3433TIP3    H234495   2.871   6.125  11.170 -0.7923  0.9522 -0.0289
 3434TIP3   OH234496   4.134   3.633  11.560 -0.1592  0.1302  0.2902
 3434TIP3    H134497   4.056   3.576  11.562  0.2413 -0.5227 -1.3289
 3434TIP3    H234498   4.114   3.702  11.624 -1.9070 -0.2216  0.1903
 3435TIP3   OH234499   0.105   1.396  11.910 -0.3198  0.4472  0.1396
 3435TIP3    H134500   0.047   1.470  11.927  0.0330  0.8895 -0.5564
 3435TIP3    H234501   0.048   1.319  11.919 -0.6440  0.7820  1.0378
 3436TIP3   OH234502   4.630   5.897  10.453 -0.3811  0.1185 -0.4003
 3436TIP3    H134503   4.717   5.928  10.428 -0.3500  2.1797  1.8828
 3436TIP3    H234504   4.645   5.809  10.489  1.0894  1.0292  1.4146
 3437TIP3   OH234505   3.551   6.719   9.667 -0.1505 -0.1474  0.0311
 3437TIP3    H134506   3.595   6.763   9.594  0.0473 -0.8534 -0.2871
 3437TIP3    H234507   3.612   6.726   9.740 -0.1139  0.0981 -0.0232
 3438TIP3   OH234508   3.095   5.151  11.608  0.4905  0.3558  0.2165
 3438TIP3    H134509   3.011   5.193  11.592  1.1862  1.9681  0.5825
 3438TIP3    H234510   3.126   5.125  11.521 -1.1576 -1.9398  0.2248
 3439TIP3   OH234511   2.791   5.029   9.696 -0.0685  0.0320 -0.3663
 3439TIP3    H134512   2.852   4.986   9.756  0.1952  1.9655  0.8725
 3439TIP3    H234513   2.705   5.008   9.731 -0.0098 -0.6528 -0.6273
 3440TIP3   OH234514   1.476   3.494  11.348  0.0309 -0.3864  0.5226
 3440TIP3    H134515   1.403   3.496  11.287  0.5421  0.4249 -0.0844
 3440TIP3    H234516   1.553   3.479  11.293  0.3881 -0.6886  1.0866
 3441TIP3   OH234517   0.601   3.204   9.421  0.7888  0.1427 -0.0232
 3441TIP3    H134518   0.622   3.286   9.376  0.6682  0.2365  0.0905
 3441TIP3    H234519   0.506   3.198   9.417  0.8103 -0.1126 -0.2403
 3442TIP3   OH234520   2.646   2.629  11.537  0.2036  0.2579  0.4235
 3442TIP3    H134521   2.603   2.544  11.549 -0.9028  0.6214 -0.7622
 3442TIP3    H234522   2.714   2.612  11.472  0.2527  0.2032  0.4884
 3443TIP3   OH234523   6.596   4.970  10.552 -0.0322 -0.2802 -0.7163
 3443TIP3    H134524   6.632   4.905  10.492  0.8274 -1.7860  1.2902
 3443TIP3    H234525   6.664   4.982  10.618 -1.3852  0.3551  0.6392
 3444TIP3   OH234526   2.875   5.395  11.275 -0.2600 -0.2056 -0.1121
 3444TIP3    H134527   2.965   5.393  11.242 -0.4217  1.1060 -0.7011
 3444TIP3    H234528   2.825   5.437  11.205 -1.0620  0.3913  0.7965
 3445TIP3   OH234529   0.039   0.911  11.093 -0.1787  0.1537 -0.0426
 3445TIP3    H134530   0.047   0.892  11.186  0.9880 -1.3533 -0.4042
 3445TIP3    H234531   0.015   0.828  11.053  0.1670  0.5713 -1.1694
 3446TIP3   OH234532   5.143   0.781  11.146 -0.0283  0.2000 -0.0635
 3446TIP3    H134533   5.075   0.786  11.213  1.0320  1.3025  0.9773
 3446TIP3    H234534   5.202   0.853  11.166  2.5804 -1.9004  0.3520
 3447TIP3   OH234535   2.883   0.746  12.080 -0.5141 -0.3610 -0.1060
 3447TIP3    H134536   2.807   0.803  12.079  0.8482  1.5197 -0.5673
 3447TIP3    H234537   2.922   0.759  12.167 -1.3927 -2.3390  0.6534
 3448TIP3   OH234538   0.731   5.249   9.824  0.7149 -0.1474  0.2158
 3448TIP3    H134539   0.695   5.322   9.774  0.3499 -0.2327  0.3492
 3448TIP3    H234540   0.821   5.276   9.845  0.1495  0.8781  1.4514
 3449TIP3   OH234541   5.461   5.121  10.923  0.2599  0.0361  0.3158
 3449TIP3    H134542   5.523   5.052  10.900 -1.6662 -1.6101 -0.1323
 3449TIP3    H234543   5.410   5.085  10.996 -1.3972  0.5812 -0.5274
 3450TIP3   OH234544   5.042   5.547  10.191  1.0089  0.1840 -0.1026
 3450TIP3    H134545   4.972   5.483  10.180  0.9002  0.3748 -0.5441
 3450TIP3    H234546   5.110   5.500  10.239 -0.0316  0.4398  1.6900
 3451TIP3   OH234547   5.434   3.834  10.238  0.4014  0.1524 -0.4045
 3451TIP3    H134548   5.503   3.894  10.210 -0.1624  0.5115 -1.0443
 3451TIP3    H234549   5.362   3.849  10.177 -0.5269  0.3017  0.6893
 3452TIP3   OH234550   5.230   4.432  11.760  0.1939  0.2518 -0.1420
 3452TIP3    H134551   5.234   4.495  11.831 -0.0514 -0.0723  0.1647
 3452TIP3    H234552   5.155   4.376  11.781  0.3814 -0.1183 -0.4254
 3453TIP3   OH234553   0.397   1.376  11.488  0.0535 -0.2944  0.3030
 3453TIP3    H134554   0.344   1.420  11.421  0.2573 -1.1890 -0.4466
 3453TIP3    H234555   0.460   1.443  11.516 -0.4921  0.3056  0.1314
 3454TIP3   OH234556   1.897   2.499  10.781 -0.2286  0.2119  0.6515
 3454TIP3    H134557   1.855   2.582  10.759  0.7577  0.3430 -0.9349
 3454TIP3    H234558   1.914   2.504  10.875 -3.1811  0.3723  1.2719
 3455TIP3   OH234559   2.483   5.302   9.708  0.6908 -0.7573 -0.3347
 3455TIP3    H134560   2.514   5.216   9.681  2.0593 -0.4840  0.3073
 3455TIP3    H234561   2.485   5.300   9.804 -1.1387 -0.6575 -0.2489
 3456TIP3   OH234562   6.315   4.829   7.636  0.3769 -0.2734  0.0244
 3456TIP3    H134563   6.331   4.915   7.676  1.0927 -0.6131  0.4742
 3456TIP3    H234564   6.349   4.766   7.699 -1.1778 -0.9653  0.2213
 3457TIP3   OH234565   4.294   4.981  11.339  0.0162  0.0783 -0.4262
 3457TIP3    H134566   4.211   5.028  11.346 -0.4963 -0.8414 -0.2418
 3457TIP3    H234567   4.322   4.996  11.248  0.2648  1.3714 -0.1632
 3458TIP3   OH234568   6.736   3.957   9.578 -0.0866  0.2474 -0.4267
 3458TIP3    H134569   6.747   3.862   9.577 -0.4460  0.2114 -1.0236
 3458TIP3    H234570   6.727   3.982   9.486  0.1181  0.8735 -0.2830
 3459TIP3   OH234571   3.877   5.809  10.800  0.0761  0.0659  0.3747
 3459TIP3    H134572   3.972   5.819  10.802  0.6276 -3.7611  1.2723
 3459TIP3    H234573   3.849   5.819  10.891 -0.0656 -0.6860  0.4239
 3460TIP3   OH234574   3.364   0.453   9.886  0.4376  0.6116 -0.0140
 3460TIP3    H134575   3.405   0.535   9.860  1.2709 -0.0109 -0.7278
 3460TIP3    H234576   3.412   0.425   9.964 -0.3245  1.1473  0.6679
 3461TIP3   OH234577   2.005   4.084   8.153  0.0852 -0.0469  0.1031
 3461TIP3    H134578   2.065   4.067   8.081  3.4514  2.1667  2.0811
 3461TIP3    H234579   1.960   4.001   8.167  1.8410 -1.5274 -2.2832
 3462TIP3   OH234580   5.804   2.117   9.018  0.4394 -0.1763 -0.2625
 3462TIP3    H134581   5.767   2.033   9.044  0.4762  0.1893  1.0489
 3462TIP3    H234582   5.780   2.177   9.089 -1.7461  1.5599 -2.2686
 3463TIP3   OH234583   2.012   1.189   9.116  0.2911  0.3619  0.6342
 3463TIP3    H134584   1.952   1.154   9.181  0.0353 -0.1660  0.1257
 3463TIP3    H234585   2.066   1.115   9.090  1.9211  1.0513  1.8618
 3464TIP3   OH234586   0.232   1.290  10.817  0.5072 -0.4368  0.9348
 3464TIP3    H134587   0.215   1.284  10.911 -0.8433  0.5669  0.7728
 3464TIP3    H234588   0.166   1.234  10.777 -1.2116  1.7783  0.4350
 3465TIP3   OH234589   3.094   5.445  11.091 -0.2174  0.0871 -0.8013
 3465TIP3    H134590   3.069   5.535  11.069 -4.1463 -0.4172  0.7415
 3465TIP3    H234591   3.146   5.454  11.171 -1.1883  1.0006 -0.2387
 3466TIP3   OH234592   2.484   3.837  10.619  0.8530  0.1015  0.0861
 3466TIP3    H134593   2.410   3.893  10.643  0.3970 -0.5388  0.1954
 3466TIP3    H234594   2.560   3.894  10.627  0.4915  0.4698  1.0502
 3467TIP3   OH234595   5.095   1.334  11.920  0.3438  0.2541  0.1795
 3467TIP3    H134596   5.082   1.420  11.959  2.2477  0.5400  0.2974
 3467TIP3    H234597   5.007   1.305  11.894 -0.3678  2.0624  0.4424
 3468TIP3   OH234598   1.556   4.188   8.905 -0.1831 -0.4583  0.1904
 3468TIP3    H134599   1.624   4.246   8.871 -0.6525 -0.5761 -0.9885
 3468TIP3    H234600   1.482   4.246   8.923 -0.2806 -0.5382  0.0460
 3469TIP3   OH234601   4.083   2.562  11.973 -0.1144 -0.4851 -0.0542
 3469TIP3    H134602   4.098   2.648  11.932 -3.2316  1.3274  2.2101
 3469TIP3    H234603   4.132   2.567  12.055 -2.5278  0.3833  1.4146
 3470TIP3   OH234604   1.146   3.716   9.900 -0.3461  0.2338 -0.5273
 3470TIP3    H134605   1.054   3.730   9.923 -0.2186 -0.0349  0.1494
 3470TIP3    H234606   1.172   3.639   9.950  0.2812  0.3684 -0.6394
 3471TIP3   OH234607   0.578   3.309  11.507 -0.0536  0.1216  0.1360
 3471TIP3    H134608   0.592   3.233  11.563 -0.5996  0.9390  1.4500
 3471TIP3    H234609   0.663   3.352  11.504 -0.0488  0.1403  0.4624
 3472TIP3   OH234610   0.034   4.058  11.859 -0.0258  0.1314  0.4449
 3472TIP3    H134611  -0.017   4.139  11.866 -1.3685 -0.6513  0.1159
 3472TIP3    H234612   0.114   4.083  11.812 -0.5441  1.2062  0.1139
 3473TIP3   OH234613   6.276   1.716   9.580  0.0438 -0.3321  0.2279
 3473TIP3    H134614   6.290   1.637   9.528  0.4163  0.5503 -1.0736
 3473TIP3    H234615   6.274   1.686   9.670 -0.6727 -1.9312 -0.2933
 3474TIP3   OH234616   1.485   6.090  10.601  0.4154  0.4466 -0.0420
 3474TIP3    H134617   1.564   6.037  10.594  2.0111  2.7983 -1.0745
 3474TIP3    H234618   1.426   6.039  10.657  2.7735 -1.2461  1.0363
 3475TIP3   OH234619   0.213   1.591   9.691  0.4395 -0.0214  0.6584
 3475TIP3    H134620   0.221   1.501   9.725  1.7355 -0.7629 -1.3799
 3475TIP3    H234621   0.244   1.646   9.763 -0.4654 -1.1617  1.9942
 3476TIP3   OH234622   6.174   0.411   9.763  0.4780 -0.1312  0.1366
 3476TIP3    H134623   6.221   0.490   9.738 -2.3420  1.4869 -0.4730
 3476TIP3    H234624   6.162   0.419   9.858  2.8345 -1.4574  0.6197
 3477TIP3   OH234625   0.377   0.251  10.129 -0.2885 -0.0356  0.3676
 3477TIP3    H134626   0.367   0.337  10.089 -2.6942  0.0891  1.0889
 3477TIP3    H234627   0.293   0.207  10.114 -0.0035 -1.3194  2.1571
 3478TIP3   OH234628   5.086   0.022   9.276 -0.7423 -0.0345 -0.3510
 3478TIP3    H134629   5.034  -0.045   9.232 -0.9682  0.9169 -1.5911
 3478TIP3    H234630   5.054   0.105   9.240  0.8631  0.6393 -0.3178
 3479TIP3   OH234631   2.011   0.847   9.658  0.1919 -1.0402  0.4884
 3479TIP3    H134632   2.035   0.771   9.711 -0.9143 -0.9159  1.1952
 3479TIP3    H234633   1.984   0.913   9.722  1.1454 -0.0227 -0.1128
 3480TIP3   OH234634   3.155   4.330  10.548 -0.2921 -0.2402  0.1708
 3480TIP3    H134635   3.061   4.324  10.532 -0.0834 -0.9256 -0.8674
 3480TIP3    H234636   3.173   4.260  10.610 -0.6794  0.7944  1.5013
 3481TIP3   OH234637   6.321   1.961  11.116 -0.3657 -0.3911  0.4641
 3481TIP3    H134638   6.354   1.941  11.029  0.5834  0.4166  0.6332
 3481TIP3    H234639   6.250   1.898  11.129 -0.7400 -0.3119 -1.0147
 3482TIP3   OH234640   5.553   6.484   9.937 -0.1562 -0.1890 -0.0742
 3482TIP3    H134641   5.554   6.453  10.028 -3.9515  0.0106  0.1882
 3482TIP3    H234642   5.507   6.416   9.889 -0.0183  0.6514 -1.4327
 3483TIP3   OH234643   4.596   5.729  10.159  0.1163 -0.5506 -0.0719
 3483TIP3    H134644   4.674   5.748  10.211 -1.2067  0.4851  1.6643
 3483TIP3    H234645   4.630   5.709  10.072  2.2755  0.6579  0.4000
 3484TIP3   OH234646   5.257   2.988  10.053 -0.3249  0.4261 -0.4855
 3484TIP3    H134647   5.316   2.962  10.124 -0.1276  1.5603 -0.2218
 3484TIP3    H234648   5.180   2.932  10.065 -1.8385  2.8817  2.7779
 3485TIP3   OH234649   6.063   6.096  10.607  0.1657  0.3513 -0.1102
 3485TIP3    H134650   6.070   6.032  10.678 -0.5121 -1.0784 -1.2760
 3485TIP3    H234651   5.969   6.104  10.592  0.2993  0.7204 -0.7678
 3486TIP3   OH234652   5.787   6.254   9.000 -0.1703 -0.0005 -0.2070
 3486TIP3    H134653   5.695   6.278   8.990 -1.0319 -1.9538  2.0775
 3486TIP3    H234654   5.812   6.217   8.915 -1.6185  0.1399 -0.7219
 3487TIP3   OH234655   0.710   6.637  10.389  0.2361 -0.1640 -0.1224
 3487TIP3    H134656   0.783   6.603  10.337  0.1982  0.9748 -0.9567
 3487TIP3    H234657   0.743   6.718  10.427 -0.8782  0.8946 -1.3163
 3488TIP3   OH234658   1.736   2.367  11.460 -0.0262 -0.3742  0.1128
 3488TIP3    H134659   1.818   2.417  11.464 -1.0057  1.3573 -0.2820
 3488TIP3    H234660   1.680   2.407  11.526 -0.2746 -2.1379  1.0162
 3489TIP3   OH234661   1.561   1.429  11.543 -0.0660  0.4157  0.0641
 3489TIP3    H134662   1.553   1.404  11.451 -0.5583  0.6299  0.0485
 3489TIP3    H234663   1.562   1.346  11.590 -0.3498  0.3217 -0.0936
 3490TIP3   OH234664   1.680   3.659  10.674  1.2099 -0.2092 -0.2947
 3490TIP3    H134665   1.626   3.738  10.685  0.9986 -0.5096  0.9407
 3490TIP3    H234666   1.636   3.610  10.605  1.4219  0.8054 -1.1839
 3491TIP3   OH234667   3.172   2.700   9.157 -1.0856  0.3499 -0.5236
 3491TIP3    H134668   3.102   2.756   9.122 -1.3464 -1.2255 -2.7870
 3491TIP3    H234669   3.158   2.615   9.115 -0.1297 -1.1821  2.0181
 3492TIP3   OH234670   3.337   4.331  10.960  0.0893  0.0880 -0.2366
 3492TIP3    H134671   3.391   4.407  10.940  0.6169  0.2941  1.7714
 3492TIP3    H234672   3.308   4.345  11.050 -0.8214 -1.4916 -0.2495
 3493TIP3   OH234673   3.037   1.551  11.288  0.5548 -0.4140 -0.4295
 3493TIP3    H134674   3.075   1.476  11.243  1.2087  0.4021 -1.2895
 3493TIP3    H234675   2.952   1.520  11.319  0.9239 -1.5801 -0.5267
 3494TIP3   OH234676   0.791   4.144  11.381 -0.1153 -0.3849 -0.3178
 3494TIP3    H134677   0.815   4.114  11.468  1.4780  0.9334 -0.2661
 3494TIP3    H234678   0.839   4.086  11.321  0.6630  0.2099 -0.2720
 3495TIP3   OH234679   1.264   0.653   8.953 -0.1603 -0.1075 -0.2408
 3495TIP3    H134680   1.220   0.736   8.970 -0.4113 -0.0394 -1.1981
 3495TIP3    H234681   1.305   0.631   9.037 -1.1665  0.3272  0.3905
 3496TIP3   OH234682   3.035   3.874  11.174  0.7055 -0.0973 -0.0481
 3496TIP3    H134683   3.046   3.940  11.105 -1.0184  1.1781  0.8309
 3496TIP3    H234684   3.078   3.796  11.139  1.3940  1.0103 -1.8159
 3497TIP3   OH234685   5.123   4.848  10.434 -0.1376 -0.1769  0.3259
 3497TIP3    H134686   5.045   4.848  10.379 -0.9626 -1.7377  1.4162
 3497TIP3    H234687   5.105   4.782  10.501  0.9282  1.4567  2.3378
 3498TIP3   OH234688   2.082   3.943  12.129  0.0620  0.2769 -0.1055
 3498TIP3    H134689   2.144   3.913  12.195  0.4885 -1.6825 -1.3185
 3498TIP3    H234690   2.128   3.933  12.045 -1.5263 -0.3215 -0.9662
 3499TIP3   OH234691   5.892   2.943  11.822 -0.0522 -0.0403 -0.1786
 3499TIP3    H134692   5.829   2.872  11.827 -1.0689  0.6696 -1.8504
 3499TIP3    H234693   5.839   3.022  11.810  1.0899  0.4099 -3.1646
 3500TIP3   OH234694   0.090   4.493   8.237 -0.2074  0.1221  0.1060
 3500TIP3    H134695  -0.000   4.463   8.252 -0.8887  2.3212  0.7268
 3500TIP3    H234696   0.124   4.433   8.170 -2.1281 -0.7428 -0.1727
 3501TIP3   OH234697   3.622   4.214  11.119 -0.3159 -0.0052  0.5627
 3501TIP3    H134698   3.539   4.233  11.075  0.0768 -2.2906 -1.4161
 3501TIP3    H234699   3.599   4.149  11.186 -0.2876  0.1924  0.7637
 3502TIP3   OH234700   2.591   5.501   8.954 -0.4536 -0.0274 -0.0767
 3502TIP3    H134701   2.620   5.450   8.878 -1.9663 -1.2311  0.1098
 3502TIP3    H234702   2.496   5.488   8.958 -1.0552  3.3749 -0.3892
 3503TIP3   OH234703   2.195   2.056  10.447  0.0000 -0.1422  0.0671
 3503TIP3    H134704   2.203   1.991  10.516 -2.1052  1.8104  2.3603
 3503TIP3    H234705   2.168   2.136  10.492 -1.2201  1.3604 -2.9941
 3504TIP3   OH234706   3.264   3.545   9.324 -0.2346  0.6483  0.0624
 3504TIP3    H134707   3.176   3.524   9.293 -0.6361 -0.0175  1.5318
 3504TIP3    H234708   3.297   3.462   9.360  0.7478  1.0371  0.0823
 3505TIP3   OH234709   4.798   2.158  10.270 -0.1378  0.5381 -0.1034
 3505TIP3    H134710   4.830   2.173  10.181  0.0261  0.8795  0.0103
 3505TIP3    H234711   4.857   2.091  10.305  0.0257  0.6668 -0.1287
 3506TIP3   OH234712   6.733   5.225  10.930 -0.2698 -0.2113  0.2037
 3506TIP3    H134713   6.664   5.238  10.864  0.0531 -0.0166 -0.0991
 3506TIP3    H234714   6.741   5.309  10.975 -0.9405 -0.5328  0.9371
 3507TIP3   OH234715   5.416   4.340  11.585  0.2290 -0.1655  0.2748
 3507TIP3    H134716   5.371   4.374  11.508  0.4955 -1.2733 -0.3963
 3507TIP3    H234717   5.350   4.339  11.654 -0.9499 -2.1090 -0.7755
 3508TIP3   OH234718   0.589   2.601   9.977 -0.0199 -0.1955  0.0700
 3508TIP3    H134719   0.516   2.650   9.940 -0.3637 -0.9500 -0.2860
 3508TIP3    H234720   0.549   2.519  10.007  0.1256  0.5719  2.6251
 3509TIP3   OH234721   1.270   5.361  11.408  0.3827 -0.1998 -0.1266
 3509TIP3    H134722   1.254   5.375  11.315  0.7302 -0.7820 -0.2723
 3509TIP3    H234723   1.232   5.275  11.427 -0.4976  0.2961  0.4734
 3510TIP3   OH234724   2.144   5.951  10.236 -0.3467 -0.1414  0.2661
 3510TIP3    H134725   2.221   5.894  10.230  0.3219  0.7933 -0.4014
 3510TIP3    H234726   2.121   5.951  10.328  0.5907 -0.2664  0.5132
 3511TIP3   OH234727   4.208   2.511  11.598 -0.0708  0.0464 -0.0632
 3511TIP3    H134728   4.141   2.558  11.648  0.2111  1.7147 -1.1695
 3511TIP3    H234729   4.291   2.539  11.638  0.0923  0.4167 -0.6471
 3512TIP3   OH234730   1.708   0.695  11.501 -0.4554  0.4169  0.0311
 3512TIP3    H134731   1.665   0.764  11.551 -0.5420 -0.9948  2.0344
 3512TIP3    H234732   1.739   0.633  11.568 -0.6718 -1.6413 -1.6744
 3513TIP3   OH234733   4.988   2.785  10.307  0.8323 -0.2188  0.7253
 3513TIP3    H134734   5.072   2.756  10.271 -0.1333 -1.3673 -0.6739
 3513TIP3    H234735   4.937   2.705  10.317 -1.6561  0.7397 -2.5555
 3514TIP3   OH234736   5.806   2.072  10.558  0.1989  0.9378  0.6980
 3514TIP3    H134737   5.857   2.000  10.595  1.6065  0.7734 -1.4074
 3514TIP3    H234738   5.835   2.149  10.607  1.1053  0.5569  0.7799
 3515TIP3   OH234739   6.673   2.129  10.305  0.1889  0.1004 -0.5139
 3515TIP3    H134740   6.585   2.159  10.331 -0.1769 -0.4815 -1.0554
 3515TIP3    H234741   6.724   2.210  10.299 -0.1613  0.4089  0.3233
 3516TIP3   OH234742   2.867   1.783   9.846 -0.1637 -0.3892  0.5229
 3516TIP3    H134743   2.888   1.849   9.912  0.4436  1.5566 -1.4936
 3516TIP3    H234744   2.773   1.792   9.832 -0.0456  0.2328  0.0963
 3517TIP3   OH234745   1.221   0.822  10.326 -0.3722 -0.5704 -0.2916
 3517TIP3    H134746   1.160   0.870  10.270 -1.8074 -0.6706  1.1051
 3517TIP3    H234747   1.164   0.776  10.388  1.1344  1.7789  3.1270
 3518TIP3   OH234748   6.137   4.426  10.639 -0.1027  0.5235  0.3512
 3518TIP3    H134749   6.146   4.384  10.554 -0.9830 -0.4286  0.7044
 3518TIP3    H234750   6.213   4.484  10.646  0.4295 -0.0242 -0.7155
 3519TIP3   OH234751   5.843   2.508   9.004 -0.0189  0.2445 -0.0745
 3519TIP3    H134752   5.776   2.530   8.940  1.1640  2.1227 -0.7406
 3519TIP3    H234753   5.914   2.469   8.952  0.4749  0.7069  0.2431
 3520TIP3   OH234754   5.322   4.033   8.723  0.5000 -0.3109  0.5117
 3520TIP3    H134755   5.234   4.060   8.698  0.3985 -0.0190  1.1548
 3520TIP3    H234756   5.363   4.004   8.642  1.3601  3.7236 -0.7415
 3521TIP3   OH234757   1.415   5.692  10.566 -0.4755 -0.3320 -0.2048
 3521TIP3    H134758   1.374   5.663  10.485 -1.8019  0.1272  0.2860
 3521TIP3    H234759   1.344   5.730  10.618  0.2800 -0.8763  1.3070
 3522TIP3   OH234760   1.049   4.324  11.874 -0.3521  0.5407  0.1034
 3522TIP3    H134761   1.105   4.291  11.804  0.3572  0.4797  0.6806
 3522TIP3    H234762   1.026   4.413  11.846 -3.2557 -0.7476 -2.0369
 3523TIP3   OH234763   0.765   4.749  11.007 -0.2285  0.0390  0.2080
 3523TIP3    H134764   0.744   4.800  11.085  0.3769 -0.3581  0.6377
 3523TIP3    H234765   0.706   4.783  10.939 -0.6191  0.5218  0.7833
 3524TIP3   OH234766   2.154   1.875  10.632 -0.6573  0.4934 -0.6225
 3524TIP3    H134767   2.068   1.848  10.600 -0.4215 -0.9992 -0.0886
 3524TIP3    H234768   2.137   1.909  10.721 -0.8088  1.1406 -0.8896
 3525TIP3   OH234769   1.172   1.155  11.315  0.1145 -0.8702 -0.2084
 3525TIP3    H134770   1.233   1.136  11.244  2.8385  0.1990  1.7000
 3525TIP3    H234771   1.156   1.249  11.307 -0.9226 -1.0522 -0.3872
 3526TIP3   OH234772   5.977   1.419   9.529  0.4040  0.4088 -0.6123
 3526TIP3    H134773   6.054   1.388   9.576  0.2865  1.1906  0.1195
 3526TIP3    H234774   5.928   1.469   9.593 -0.3487  0.5278 -1.2669
 3527TIP3   OH234775   5.909   2.282   8.698 -0.0291 -0.5787  0.1466
 3527TIP3    H134776   5.898   2.314   8.608 -1.1012 -3.7711 -1.0048
 3527TIP3    H234777   5.820   2.264   8.728  0.4582 -4.4786 -0.2573
 3528TIP3   OH234778   2.301   2.180  11.494  0.1674 -0.0551  0.2368
 3528TIP3    H134779   2.270   2.098  11.457 -1.5669  0.5318  0.3280
 3528TIP3    H234780   2.342   2.155  11.577  0.0220 -0.8534  0.0789
 3529TIP3   OH234781   3.338   3.243  12.060  0.1292 -0.2133 -0.6432
 3529TIP3    H134782   3.405   3.194  12.107 -0.1117 -1.5248 -1.6154
 3529TIP3    H234783   3.255   3.206  12.091 -0.0785  0.0491 -0.8827
 3530TIP3   OH234784   6.564   5.010   8.891 -0.1819 -0.4074  0.2135
 3530TIP3    H134785   6.560   5.071   8.817  0.6874  1.1186  1.3669
 3530TIP3    H234786   6.646   4.963   8.879 -0.4808 -0.8176 -0.2647
 3531TIP3   OH234787   2.244   2.204   9.646 -0.4400 -0.6107 -0.3652
 3531TIP3    H134788   2.293   2.180   9.568 -0.9926  0.4810 -1.0724
 3531TIP3    H234789   2.166   2.149   9.643 -1.4116  0.7723 -1.6562
 3532TIP3   OH234790   1.974   4.593  10.320  0.1693  0.1495 -0.3930
 3532TIP3    H134791   2.018   4.510  10.335 -1.1412 -0.7668 -1.4026
 3532TIP3    H234792   1.990   4.613  10.228 -1.4833 -0.2122 -0.7883
 3533TIP3   OH234793   1.642   4.437   9.221  0.1060 -0.7465 -0.2108
 3533TIP3    H134794   1.599   4.400   9.298 -0.9258  0.7659 -0.0350
 3533TIP3    H234795   1.735   4.417   9.234 -0.2655 -2.2288  0.4272
 3534TIP3   OH234796   4.335   4.154   9.707 -0.8572  0.2441 -0.4331
 3534TIP3    H134797   4.323   4.065   9.738 -0.3314  0.9020  1.8354
 3534TIP3    H234798   4.387   4.197   9.775 -0.4062  2.0792 -1.8395
 3535TIP3   OH234799   0.256   0.542  11.121 -0.4993  0.1667  0.5243
 3535TIP3    H134800   0.347   0.563  11.102 -0.5870  1.9394  1.8828
 3535TIP3    H234801   0.259   0.486  11.198 -0.4636 -2.3523 -1.1730
 3536TIP3   OH234802   6.518   1.766   8.983  0.0124  0.1539 -0.6080
 3536TIP3    H134803   6.563   1.704   8.926 -0.7561 -2.3503  1.3529
 3536TIP3    H234804   6.440   1.793   8.935  0.0055 -0.9517 -1.2192
 3537TIP3   OH234805   1.450   3.940  11.073  0.2419  0.2428  0.3321
 3537TIP3    H134806   1.526   3.975  11.119 -0.0765  2.0927 -0.4242
 3537TIP3    H234807   1.376   3.960  11.130  0.0826  0.6544 -0.0066
 3538TIP3   OH234808   1.962   4.057  11.207 -0.2675 -0.4358  0.2443
 3538TIP3    H134809   1.955   4.125  11.274  1.6076 -1.3776  1.4781
 3538TIP3    H234810   1.882   4.006  11.215 -0.0922 -0.5072  1.7784
 3539TIP3   OH234811   0.371   0.716   9.834 -0.3254 -0.3641 -0.1296
 3539TIP3    H134812   0.282   0.753   9.838 -0.0869  0.8009 -3.1290
 3539TIP3    H234813   0.421   0.779   9.782  1.4447 -2.4761 -1.1400
 3540TIP3   OH234814   5.850   2.401  11.286 -0.2325 -0.3044  0.0854
 3540TIP3    H134815   5.777   2.370  11.340  0.1187  0.3222  0.9485
 3540TIP3    H234816   5.913   2.329  11.287  0.0765 -0.0289  1.1103
 3541TIP3   OH234817   2.955   6.435  11.335 -0.4701  0.0934 -0.1700
 3541TIP3    H134818   2.908   6.508  11.294  1.8351  1.6289 -0.2616
 3541TIP3    H234819   2.996   6.389  11.262 -2.2941 -1.7100 -0.1650
 3542TIP3   OH234820   1.184   2.201   8.382 -0.1575 -0.3917  0.1120
 3542TIP3    H134821   1.134   2.133   8.428 -1.0186  0.3984  0.3745
 3542TIP3    H234822   1.204   2.162   8.297  0.8049 -1.5877  0.8575
 3543TIP3   OH234823   6.124   0.357  10.211 -0.4120  0.3976  0.1354
 3543TIP3    H134824   6.203   0.328  10.165 -0.7923 -1.7861  0.7156
 3543TIP3    H234825   6.053   0.340  10.148 -0.6654 -0.1058  0.5508
 3544TIP3   OH234826   4.723   1.108  11.704  0.5117  0.1897  0.2653
 3544TIP3    H134827   4.775   1.182  11.734  1.8655  0.5337 -2.5908
 3544TIP3    H234828   4.637   1.145  11.682  0.6538  0.5769  0.3642
 3545TIP3   OH234829   2.918   2.642  11.923  0.1796  0.3254  0.0541
 3545TIP3    H134830   2.957   2.593  11.850 -0.5361  1.5174 -1.1822
 3545TIP3    H234831   2.870   2.713  11.881 -1.1525  0.4300  1.6551
 3546TIP3   OH234832   5.430   6.363  10.601 -0.4206  0.2220 -0.0034
 3546TIP3    H134833   5.486   6.428  10.560 -2.5574  1.4767 -1.1533
 3546TIP3    H234834   5.356   6.354  10.541 -1.1076 -1.9067  1.0475
 3547TIP3   OH234835   1.495   0.884   8.702 -0.0770  0.2785  0.0981
 3547TIP3    H134836   1.426   0.822   8.676 -0.3560  0.3996  0.5416
 3547TIP3    H234837   1.553   0.887   8.626  0.6243 -1.4775  0.5015
 3548TIP3   OH234838   2.414   5.124  10.088 -0.0803 -0.2155 -0.2636
 3548TIP3    H134839   2.492   5.131  10.144 -0.6823 -0.4854  0.6292
 3548TIP3    H234840   2.340   5.134  10.148 -0.7413 -0.0423 -1.0871
 3549TIP3   OH234841   1.667   3.191  11.234  0.2836 -0.0808  0.6463
 3549TIP3    H134842   1.647   3.227  11.148 -0.9727 -0.2927  0.8389
 3549TIP3    H234843   1.759   3.215  11.249  1.2052 -1.8152 -1.6266
 3550TIP3   OH234844   6.496   0.936  11.508 -0.5117 -0.3118 -0.1359
 3550TIP3    H134845   6.439   0.972  11.577 -0.7344 -0.2582 -0.3461
 3550TIP3    H234846   6.554   1.009  11.485 -1.4764  0.1700 -1.1109
 3551TIP3   OH234847   0.390   2.039   9.169  0.7872  0.0009 -0.2260
 3551TIP3    H134848   0.378   2.036   9.074  0.6628 -1.2331 -0.1800
 3551TIP3    H234849   0.355   1.956   9.200  1.9495 -0.1383  0.7718
 3552TIP3   OH234850   2.119   4.480  11.603 -0.6173 -0.2558 -0.4726
 3552TIP3    H134851   2.036   4.526  11.611  0.8874  2.6968 -0.3996
 3552TIP3    H234852   2.138   4.480  11.509 -0.9509 -1.5390 -0.5684
 3553TIP3   OH234853   3.941   1.698  11.785 -0.6789 -0.0326  0.0129
 3553TIP3    H134854   3.973   1.782  11.751 -2.9312  1.1609  0.6784
 3553TIP3    H234855   3.856   1.686  11.744 -1.2511 -1.0291  1.4123
 3554TIP3   OH234856   5.071   4.376  10.797  0.0659  0.4737  0.3694
 3554TIP3    H134857   5.154   4.330  10.783  0.2615  1.2989 -1.3049
 3554TIP3    H234858   5.065   4.383  10.893 -0.0521 -3.0930  0.7834
 3555TIP3   OH234859   5.570   0.527   9.880  0.1253 -0.0228  0.3147
 3555TIP3    H134860   5.563   0.620   9.900 -0.2405 -0.2470  1.3325
 3555TIP3    H234861   5.521   0.516   9.799  0.0111  0.6446  0.2879
 3556TIP3   OH234862   3.633   5.634   9.854 -0.0295 -0.6667  0.1085
 3556TIP3    H134863   3.693   5.577   9.902 -1.0134  0.9825  3.6356
 3556TIP3    H234864   3.684   5.713   9.837 -0.0606 -0.7749 -0.5161
 3557TIP3   OH234865   2.388   2.709  10.008  0.2593  0.1501 -0.3656
 3557TIP3    H134866   2.444   2.767  10.059 -0.3786 -0.6650  1.3276
 3557TIP3    H234867   2.429   2.623  10.014  0.9187  0.2535 -2.4268
 3558TIP3   OH234868   3.399   4.370   9.006  0.1243  0.4770  0.1436
 3558TIP3    H134869   3.430   4.461   9.005  0.9793  0.6714  5.9911
 3558TIP3    H234870   3.307   4.377   9.030 -1.0713 -0.3598 -3.6253
 3559TIP3   OH234871   0.576   5.399   9.657 -0.1245  0.5974 -0.0574
 3559TIP3    H134872   0.613   5.481   9.689  1.0602  0.1906 -0.3324
 3559TIP3    H234873   0.565   5.412   9.563  1.3857 -0.0212 -0.3397
 3560TIP3   OH234874   5.189   4.201  11.401  0.6618 -0.0741  0.4043
 3560TIP3    H134875   5.262   4.149  11.367  0.0799 -0.8615  0.3426
 3560TIP3    H234876   5.178   4.171  11.491 -0.5209 -1.0013 -0.0368
 3561TIP3   OH234877   6.786   3.103   9.285  0.0007 -0.0308 -0.5950
 3561TIP3    H134878   6.849   3.084   9.354  0.6147  0.0664 -1.1221
 3561TIP3    H234879   6.753   3.018   9.258 -0.7538 -0.0275  0.2863
 3562TIP3   OH234880   2.646   1.045   9.477 -0.2363  0.8359 -0.1857
 3562TIP3    H134881   2.636   1.001   9.562  2.1343 -0.7698 -0.6468
 3562TIP3    H234882   2.666   1.136   9.500  3.3877 -0.1234  1.2685
 3563TIP3   OH234883   6.660   2.885  11.630  0.2926 -0.2304 -0.1404
 3563TIP3    H134884   6.616   2.813  11.676  0.3350  0.8413  1.6835
 3563TIP3    H234885   6.666   2.955  11.696  3.2619  0.2550 -0.7923
 3564TIP3   OH234886   1.167   0.104   9.626 -0.3092 -0.4548 -0.7727
 3564TIP3    H134887   1.147   0.041   9.556 -0.2236 -0.5042 -0.7540
 3564TIP3    H234888   1.262   0.115   9.620 -0.3906  0.0895 -1.1282
 3565TIP3   OH234889   5.046   3.286  11.293 -0.3605 -0.1189  0.1062
 3565TIP3    H134890   5.004   3.201  11.294  1.1733 -0.9140 -0.3781
 3565TIP3    H234891   5.125   3.275  11.346 -0.6556  1.3000  0.9189
 3566TIP3   OH234892   0.417   3.383   8.762 -0.3760  0.2445 -0.2709
 3566TIP3    H134893   0.407   3.338   8.846  0.3536 -1.7866 -1.2067
 3566TIP3    H234894   0.510   3.379   8.743 -0.3254  1.9621 -0.5496
 3567TIP3   OH234895   0.778   1.167  11.349  0.0578 -0.2672  0.2317
 3567TIP3    H134896   0.757   1.220  11.426 -2.6256 -0.4458 -0.2816
 3567TIP3    H234897   0.803   1.230  11.282  1.9654 -0.0824  1.0599
 3568TIP3   OH234898   6.599   3.574   9.742 -0.1901  0.3280  0.1090
 3568TIP3    H134899   6.564   3.650   9.788 -3.6090  0.9200 -2.9436
 3568TIP3    H234900   6.534   3.505   9.757  0.8270 -0.7595 -0.3437
 3569TIP3   OH234901   0.274   1.802  10.334  0.0554 -0.3031  0.0337
 3569TIP3    H134902   0.181   1.806  10.310  0.1174  0.2957 -0.1138
 3569TIP3    H234903   0.295   1.890  10.365  1.0099  0.0744 -1.5632
 3570TIP3   OH234904   3.548   2.550  11.774  0.2371  0.7223  0.4992
 3570TIP3    H134905   3.641   2.563  11.760  0.3593  0.7984  1.3572
 3570TIP3    H234906   3.521   2.492  11.703  0.5412  2.2152 -0.9021
 3571TIP3   OH234907   0.898   5.892  11.702 -0.9431  0.1603  0.3282
 3571TIP3    H134908   0.823   5.910  11.759 -0.2768 -1.8700  1.9712
 3571TIP3    H234909   0.899   5.797  11.692  1.0534  0.1811 -0.1878
 3572TIP3   OH234910   0.895   3.839   8.687  0.1821  0.2764 -0.1006
 3572TIP3    H134911   0.817   3.892   8.675 -0.4274 -0.5699  0.0932
 3572TIP3    H234912   0.958   3.874   8.624 -0.4509  0.7661 -0.4673
 3573TIP3   OH234913   0.086   5.635   8.746 -0.6369 -0.3615 -0.5071
 3573TIP3    H134914   0.168   5.596   8.714 -1.2352 -0.8958 -1.4564
 3573TIP3    H234915   0.029   5.636   8.669 -2.1140 -1.6167  0.5056
 3574TIP3   OH234916   1.897   0.381  11.149 -0.2471  0.3540  0.4439
 3574TIP3    H134917   1.953   0.458  11.135 -1.6457  1.7135  1.8692
 3574TIP3    H234918   1.846   0.374  11.068 -0.0138  0.8665  0.2494
 3575TIP3   OH234919   6.498   4.082  10.507  0.4124  0.0105 -0.0075
 3575TIP3    H134920   6.414   4.105  10.547  1.3183  1.9722  0.9288
 3575TIP3    H234921   6.522   4.160  10.457  0.9141 -1.1592 -1.6748
 3576TIP3   OH234922   3.847   4.933  11.744 -0.4048  0.3886  0.0826
 3576TIP3    H134923   3.827   4.859  11.801  0.3412 -0.6371 -0.9315
 3576TIP3    H234924   3.935   4.961  11.772  0.9401 -1.5244 -1.8841
 3577TIP3   OH234925   6.563   1.021   8.895  0.3562 -0.9066 -0.1378
 3577TIP3    H134926   6.512   1.018   8.977 -0.8754  1.0799 -0.7430
 3577TIP3    H234927   6.600   0.933   8.886 -1.0984 -1.7576  1.5409
 3578TIP3   OH234928   4.978   1.907  11.181  0.1446 -0.4784  0.1213
 3578TIP3    H134929   5.057   1.853  11.181 -0.6308 -1.8316 -2.6707
 3578TIP3    H234930   4.980   1.952  11.096 -0.5058  2.0140  1.3385
 3579TIP3   OH234931   5.800   0.465  10.368  0.1709 -0.0252 -0.1791
 3579TIP3    H134932   5.807   0.370  10.359 -0.6496 -0.1687  0.5863
 3579TIP3    H234933   5.801   0.480  10.462 -0.1500  0.6920 -0.2896
 3580TIP3   OH234934   6.044   6.429  10.939 -0.1151 -0.4701  0.2939
 3580TIP3    H134935   6.134   6.446  10.966 -0.2249 -0.1697  0.4772
 3580TIP3    H234936   6.048   6.346  10.892 -0.0916 -1.6004  2.1876
 3581TIP3   OH234937   0.663   1.600   9.220 -0.0572  0.3163  0.1606
 3581TIP3    H134938   0.649   1.691   9.192  1.2823  0.0049 -1.6644
 3581TIP3    H234939   0.633   1.548   9.146  1.2392 -0.6471  0.2877
 3582TIP3   OH234940   5.348   4.901  10.278 -0.5574  0.1581 -0.0872
 3582TIP3    H134941   5.266   4.870  10.316 -0.4808 -0.5947 -0.5189
 3582TIP3    H234942   5.335   4.995  10.269 -0.4314  0.4428  2.1155
 3583TIP3   OH234943   2.317   2.904  11.679  0.0071 -0.2084  0.7914
 3583TIP3    H134944   2.222   2.918  11.678  0.0822  0.3035 -0.1278
 3583TIP3    H234945   2.331   2.831  11.620  0.4739  1.9223 -1.9113
 3584TIP3   OH234946   6.162   4.693  11.696 -0.0240 -0.0736 -0.4611
 3584TIP3    H134947   6.172   4.778  11.738  2.4602  0.1803 -1.3703
 3584TIP3    H234948   6.068   4.676  11.696 -0.5055  2.2825  0.4712
 3585TIP3   OH234949   0.504   3.435  10.989  0.8875  0.0305 -0.8599
 3585TIP3    H134950   0.487   3.516  10.941  1.5422 -0.4351 -1.9116
 3585TIP3    H234951   0.467   3.366  10.934  0.3693 -0.4080  0.0070
 3586TIP3   OH234952   1.172   5.159  10.676 -0.0098  0.0210  0.2095
 3586TIP3    H134953   1.232   5.227  10.646  1.2084 -0.5965  1.1546
 3586TIP3    H234954   1.221   5.077  10.664 -1.5251 -0.7522 -1.1279
 3587TIP3   OH234955   6.337   6.756  10.551  0.2015  0.7994 -0.0537
 3587TIP3    H134956   6.293   6.774  10.634 -1.0333  1.9420 -0.9155
 3587TIP3    H234957   6.395   6.831  10.537  1.7576 -0.2332  0.5976
 3588TIP3   OH234958   0.104   0.384   9.354  0.0710 -0.1940  0.0241
 3588TIP3    H134959   0.043   0.311   9.345  0.8334 -1.0519  1.3778
 3588TIP3    H234960   0.117   0.416   9.265 -0.4295 -1.5976 -0.5860
 3589TIP3   OH234961   1.451   1.275   9.032 -0.4290 -0.6987 -0.2228
 3589TIP3    H134962   1.536   1.231   9.041 -0.0188  0.4250  2.1351
 3589TIP3    H234963   1.392   1.228   9.090 -0.3102  0.9676  1.3470
 3590TIP3   OH234964   3.366   2.901   9.152 -0.1119 -0.3739 -0.9199
 3590TIP3    H134965   3.427   2.827   9.152 -0.8531 -1.0176  0.4631
 3590TIP3    H234966   3.285   2.865   9.187 -0.9381  0.7570 -1.6266
 3591TIP3   OH234967   1.590   0.628  10.527 -0.4446  0.0308  0.0161
 3591TIP3    H134968   1.672   0.608  10.572 -0.4139  2.3786  1.1457
 3591TIP3    H234969   1.525   0.570  10.567  0.0827  0.3291  1.3244
 3592TIP3   OH234970   5.688   4.834   8.093 -0.3983 -0.1312 -0.3866
 3592TIP3    H134971   5.596   4.818   8.114  0.3016 -3.1740  0.8549
 3592TIP3    H234972   5.696   4.811   8.000 -1.0206  1.0286 -0.7475
 3593TIP3   OH234973   5.496   2.005   9.652  0.5918 -0.0671  0.4859
 3593TIP3    H134974   5.556   2.006   9.577 -1.1469  1.0028 -0.9796
 3593TIP3    H234975   5.416   2.045   9.619 -0.4199 -0.0087  2.8121
 3594TIP3   OH234976   1.580   2.037  11.689  0.1183  0.2356  0.0252
 3594TIP3    H134977   1.649   2.005  11.631 -1.0586 -1.4714 -0.5262
 3594TIP3    H234978   1.499   2.027  11.638 -0.6363  1.5632  0.8802
 3595TIP3   OH234979   5.775   6.541   9.721  0.0990 -0.2092  0.4243
 3595TIP3    H134980   5.751   6.461   9.676  0.9012 -0.0592 -0.2777
 3595TIP3    H234981   5.704   6.555   9.784 -0.3341 -1.1499  0.1558
 3596TIP3   OH234982   0.351   5.294   9.170 -0.4556 -0.4704 -0.0340
 3596TIP3    H134983   0.281   5.280   9.107 -0.8278  0.3173  0.1910
 3596TIP3    H234984   0.430   5.262   9.126 -0.5946  0.6715 -1.1599
 3597TIP3   OH234985   6.687   5.431  12.135 -0.2686 -0.2489  0.0545
 3597TIP3    H134986   6.781   5.447  12.148 -0.4434  2.4467 -1.1834
 3597TIP3    H234987   6.674   5.438  12.041 -1.5806 -1.7710  0.0731
 3598TIP3   OH234988   5.194   3.582  10.846 -0.5567  0.0648  0.5076
 3598TIP3    H134989   5.184   3.558  10.938 -1.5068  2.0483  0.9889
 3598TIP3    H234990   5.118   3.544  10.803 -0.6364 -0.0362  0.7337
 3599TIP3   OH234991   1.157   5.607   9.754 -0.1208  0.2325 -0.2032
 3599TIP3    H134992   1.236   5.616   9.700  1.1192  0.0450  1.4956
 3599TIP3    H234993   1.115   5.693   9.749  1.6372  1.2279  0.9445
 3600TIP3   OH234994   3.352   2.921   9.608  0.0965 -0.1746 -0.1634
 3600TIP3    H134995   3.413   2.868   9.659  0.4011 -1.2859 -1.6089
 3600TIP3    H234996   3.405   2.995   9.576 -0.2398  0.8499  1.5514
 3601TIP3   OH234997   0.989   4.125   9.751 -0.3847  0.4091 -0.0464
 3601TIP3    H134998   1.024   4.214   9.750 -0.3507  0.4309 -2.1806
 3601TIP3    H234999   0.898   4.134   9.779 -0.0169  0.9253  1.0288
 3602TIP3   OH235000   4.109   0.648  11.794 -0.0276  0.6629 -0.1821
 3602TIP3    H135001   4.123   0.555  11.777  1.9229  0.4062  2.2285
 3602TIP3    H235002   4.014   0.656  11.805 -0.1115 -1.3950  1.1273
 3603TIP3   OH235003   6.413   0.694   9.310  0.4135 -0.3864  0.0460
 3603TIP3    H135004   6.341   0.675   9.250  0.6281  0.9382 -0.6691
 3603TIP3    H235005   6.471   0.618   9.303  1.4715  0.5388 -3.0406
 3604TIP3   OH235006   2.963   2.775  11.510  0.1164  0.0461  0.2664
 3604TIP3    H135007   3.024   2.840  11.543 -0.2817  0.1854  0.7443
 3604TIP3    H235008   2.950   2.797  11.418 -0.4454  0.9868  0.5586
 3605TIP3   OH235009   4.537   4.917   9.598 -0.4085  0.0938  0.0247
 3605TIP3    H135010   4.574   4.894   9.684 -0.5024 -1.3813 -0.2948
 3605TIP3    H235011   4.614   4.928   9.541 -0.3749 -0.0709  0.0369
 3606TIP3   OH235012   0.541   0.384  10.296  0.0429 -0.4108  0.1635
 3606TIP3    H135013   0.492   0.323  10.240  0.5068 -0.5549 -0.0908
 3606TIP3    H235014   0.632   0.373  10.269  0.3962 -1.1316  1.5569
 3607TIP3   OH235015   6.240   1.246   9.358 -0.3192  0.3986 -0.6370
 3607TIP3    H135016   6.185   1.201   9.295 -1.9492  0.8490  0.3876
 3607TIP3    H235017   6.260   1.180   9.425 -0.1129  0.4003 -0.6951
 3608TIP3   OH235018   4.491   2.923  11.263  0.1953 -0.2439  0.0058
 3608TIP3    H135019   4.463   2.842  11.219  0.1145 -0.4385  0.4053
 3608TIP3    H235020   4.579   2.939  11.230 -0.2743  0.2163 -1.0475
 3609TIP3   OH235021   1.799   1.155  10.022  0.3984  0.0039 -0.3895
 3609TIP3    H135022   1.747   1.225   9.982 -0.5994 -0.5865 -0.1564
 3609TIP3    H235023   1.852   1.200  10.088 -0.2353  0.5439 -0.2350
 3610TIP3   OH235024   2.155   4.237   9.085  0.3512 -0.3984 -0.6676
 3610TIP3    H135025   2.211   4.251   9.162 -0.7242 -0.8436  0.2308
 3610TIP3    H235026   2.216   4.229   9.012  1.4573 -0.7678  0.2609
 3611TIP3   OH235027   1.683   3.850   9.636 -0.1367 -0.0800  0.4867
 3611TIP3    H135028   1.760   3.885   9.591 -0.3467 -1.2486 -0.8174
 3611TIP3    H235029   1.715   3.824   9.722  0.9942 -0.7645 -0.1228
 3612TIP3   OH235030   2.725   4.113   9.846  0.0540 -0.6179 -0.0876
 3612TIP3    H135031   2.746   4.029   9.886  2.3416  0.3487  0.9531
 3612TIP3    H235032   2.786   4.175   9.887  0.0388  1.1320 -2.4866
 3613TIP3   OH235033   2.397   1.372  11.780 -0.0990 -0.0372  0.1127
 3613TIP3    H135034   2.435   1.288  11.753  0.3841  0.4816 -0.8881
 3613TIP3    H235035   2.389   1.365  11.875  0.0068 -1.1862  0.0543
 3614TIP3   OH235036   5.041   3.133   8.934  0.2981  0.2578  0.5863
 3614TIP3    H135037   5.043   3.150   8.840 -1.5763 -0.3606  0.3864
 3614TIP3    H235038   4.978   3.197   8.969 -0.6227 -0.8904  1.0760
 3615TIP3   OH235039   0.967   4.575  11.037  0.1539  0.1094 -0.2657
 3615TIP3    H135040   0.902   4.641  11.013  1.5222  1.2516 -0.9620
 3615TIP3    H235041   0.942   4.498  10.985 -0.9241  0.3542 -0.1429
 3616TIP3   OH235042   1.798   5.730  11.659 -0.2755 -0.8677 -0.1725
 3616TIP3    H135043   1.724   5.776  11.698 -0.8683  0.0781 -2.2490
 3616TIP3    H235044   1.842   5.688  11.733 -2.0122 -0.2307  1.3059
 3617TIP3   OH235045   2.937   1.976  11.711  0.0922  0.5214 -0.0035
 3617TIP3    H135046   2.981   1.928  11.641  1.4349  1.3063  0.2682
 3617TIP3    H235047   2.985   1.953  11.791 -1.3367 -0.2686  0.6735
 3618TIP3   OH235048   0.293   6.117   9.750  0.2062  0.2642 -0.0918
 3618TIP3    H135049   0.337   6.182   9.804  0.4511  0.2928 -0.3295
 3618TIP3    H235050   0.306   6.146   9.660  0.6940 -0.3473 -0.2268
 3619TIP3   OH235051   3.091   2.823  12.056 -0.0916  0.3338 -0.1766
 3619TIP3    H135052   3.034   2.748  12.072 -1.3551  1.2101 -0.4658
 3619TIP3    H235053   3.121   2.811  11.966  0.4491 -0.2836  0.0719
 3620TIP3   OH235054   4.755   0.653  11.550  0.0537 -0.2584 -0.1193
 3620TIP3    H135055   4.723   0.742  11.561 -1.9358 -0.7307 -1.4648
 3620TIP3    H235056   4.685   0.608  11.503  1.6289 -2.1457 -0.8117
 3621TIP3   OH235057   4.270   0.200   9.987 -0.0280 -0.3423 -0.1367
 3621TIP3    H135058   4.191   0.161  10.024  0.6142 -1.5792 -0.0066
 3621TIP3    H235059   4.239   0.264   9.923 -1.1266 -0.1378  0.5747
 3622TIP3   OH235060   5.720   0.600  11.285  0.8065  0.3999 -0.0873
 3622TIP3    H135061   5.814   0.609  11.267  0.7834 -0.0681 -0.4736
 3622TIP3    H235062   5.706   0.651  11.364  1.5651 -0.2693  0.5070
 3623TIP3   OH235063   2.776   2.565  10.866 -0.1595  0.1477  0.0510
 3623TIP3    H135064   2.766   2.641  10.923 -1.3644 -1.2307  1.7981
 3623TIP3    H235065   2.687   2.546  10.836  0.1144 -0.5650 -0.3318
 3624TIP3   OH235066   3.735   5.436  11.694  0.1256  0.0668 -0.9474
 3624TIP3    H135067   3.742   5.531  11.695  1.8472 -0.0222  1.1098
 3624TIP3    H235068   3.804   5.407  11.634  1.2331  0.0832  0.2680
 3625TIP3   OH235069   1.404   0.984   8.048 -0.2466  0.2874  0.2221
 3625TIP3    H135070   1.350   0.914   8.010  0.2601 -0.4867  0.9011
 3625TIP3    H235071   1.340   1.049   8.079 -0.8753 -0.9310  1.6400
 3626TIP3   OH235072   3.647   1.244  11.309 -0.2225  0.1385 -0.2332
 3626TIP3    H135073   3.633   1.199  11.226 -1.1939  0.1092 -0.0602
 3626TIP3    H235074   3.559   1.269  11.338  0.2904  2.5471 -0.5567
 3627TIP3   OH235075   2.868   2.619   9.284 -0.2498 -0.0053  0.2038
 3627TIP3    H135076   2.869   2.708   9.249 -2.9659  0.3242  0.7754
 3627TIP3    H235077   2.851   2.629   9.377 -2.2194 -1.1299  0.0165
 3628TIP3   OH235078   5.039   1.653  10.041  0.0222  0.3074  0.5439
 3628TIP3    H135079   5.090   1.658   9.961  0.1038  1.5743  0.6504
 3628TIP3    H235080   5.103   1.635  10.110 -0.2542 -2.7135  0.1643
 3629TIP3   OH235081   5.363   2.092  10.735  0.4724  0.3035  0.0361
 3629TIP3    H135082   5.289   2.129  10.782  0.2927  0.9836 -0.7612
 3629TIP3    H235083   5.334   2.087  10.644  1.8453  1.8447 -0.5277
 3630TIP3   OH235084   0.173   5.494  10.340  0.2505 -0.4297 -0.4669
 3630TIP3    H135085   0.242   5.433  10.316  0.4835  0.0649 -1.0817
 3630TIP3    H235086   0.214   5.554  10.402  0.0447 -0.8293  0.0705
 3631TIP3   OH235087   0.683   1.723   8.812 -0.6637 -0.1559  0.2630
 3631TIP3    H135088   0.634   1.762   8.740  0.4804 -0.0288 -0.4746
 3631TIP3    H235089   0.727   1.797   8.854 -1.4031 -0.2174  1.1682
 3632TIP3   OH235090   0.315   6.019  11.571 -0.0860 -0.2612 -0.6729
 3632TIP3    H135091   0.279   5.939  11.532  1.7437 -0.7016 -1.5740
 3632TIP3    H235092   0.312   6.083  11.501 -1.4999  0.5010  0.0351
 3633TIP3   OH235093   2.404   1.210  10.415  0.1849 -1.0944 -0.4653
 3633TIP3    H135094   2.447   1.184  10.496 -0.8608 -1.9294 -0.1389
 3633TIP3    H235095   2.315   1.175  10.423 -1.0863  1.8238 -0.4218
 3634TIP3   OH235096   4.140   0.403  11.609 -0.1996 -0.0221 -0.6540
 3634TIP3    H135097   4.177   0.315  11.610 -3.1006 -1.3863  1.4335
 3634TIP3    H235098   4.050   0.391  11.579 -2.0290  1.4164  3.4417
 3635TIP3   OH235099   4.644   2.081  11.017  0.2772 -0.5807 -0.0186
 3635TIP3    H135100   4.552   2.064  11.037  1.0430 -2.8112  2.1738
 3635TIP3    H235101   4.688   2.077  11.102  2.3310  1.2428 -0.9024
 3636TIP3   OH235102   5.678   0.766   8.988  0.0828 -0.2635 -0.3319
 3636TIP3    H135103   5.595   0.727   8.963  0.1483 -0.2543 -0.5708
 3636TIP3    H235104   5.736   0.692   9.007  0.0187 -0.2697 -0.1577
 3637TIP3   OH235105   0.625   5.047  10.192 -0.1280  0.1201 -0.4851
 3637TIP3    H135106   0.550   5.003  10.231 -0.0352  0.7700  0.4499
 3637TIP3    H235107   0.664   5.096  10.264  2.5364 -1.9287 -0.3690
 3638TIP3   OH235108   1.032   2.018   8.548  0.0198  0.0291 -0.5248
 3638TIP3    H135109   1.017   2.036   8.641 -1.1921  2.7525 -1.1406
 3638TIP3    H235110   0.959   1.962   8.522 -0.9403  1.1130 -0.2718
 3639TIP3   OH235111   5.607   2.478  10.744  0.6071 -0.2479 -0.0881
 3639TIP3    H135112   5.562   2.543  10.797 -1.7887 -0.6376 -1.4863
 3639TIP3    H235113   5.567   2.487  10.657 -0.0161 -3.6807 -0.3020
 3640TIP3   OH235114   2.199   1.410   9.128  0.5446 -0.1151 -0.2154
 3640TIP3    H135115   2.135   1.340   9.129  0.2223  0.1684 -0.6527
 3640TIP3    H235116   2.209   1.433   9.036 -0.1240  1.1083 -0.0013
 3641TIP3   OH235117   5.479   4.739  11.476  0.3050 -0.1991  0.0771
 3641TIP3    H135118   5.404   4.790  11.508  2.3063  1.8853  1.8165
 3641TIP3    H235119   5.532   4.803  11.428  1.0748 -1.5793 -0.9712
 3642TIP3   OH235120   4.007   1.900  10.559 -0.1764 -0.0353  0.0367
 3642TIP3    H135121   4.077   1.834  10.562 -0.0163  0.1414  0.1842
 3642TIP3    H235122   3.926   1.849  10.568  0.0195 -0.0205  2.5247
 3643TIP3   OH235123   3.554   0.804   8.708  0.4687  0.2829  0.3061
 3643TIP3    H135124   3.469   0.813   8.665  1.1445  2.7231 -0.6782
 3643TIP3    H235125   3.610   0.762   8.642  0.7815  1.5015 -0.2404
 3644TIP3   OH235126   5.540   5.539  11.065 -0.1943  0.3727 -0.2773
 3644TIP3    H135127   5.512   5.616  11.114 -1.9889 -1.9709  2.7234
 3644TIP3    H235128   5.463   5.513  11.014 -0.2343 -0.5079  0.2231
 3645TIP3   OH235129   3.173   3.163  11.701 -0.6342 -0.3190 -0.3631
 3645TIP3    H135130   3.180   3.126  11.613 -0.6859 -0.8406 -0.1542
 3645TIP3    H235131   3.199   3.091  11.759  0.4690  0.3486  0.0024
 3646TIP3   OH235132   5.972   5.454   8.848  0.3880  0.2255 -0.3482
 3646TIP3    H135133   5.894   5.493   8.887 -1.1051 -1.1009 -1.8441
 3646TIP3    H235134   5.984   5.501   8.766  2.2447  1.5745  0.6299
 3647TIP3   OH235135   0.260   5.489   8.599  0.4123 -0.2839 -0.1683
 3647TIP3    H135136   0.186   5.429   8.593 -0.5725  0.9329 -0.7883
 3647TIP3    H235137   0.337   5.433   8.596 -0.3934 -1.4158 -3.0236
 3648TIP3   OH235138   6.184   5.810   9.663 -0.1131  0.0599  0.0668
 3648TIP3    H135139   6.261   5.786   9.611 -1.4131 -1.2805 -1.3313
 3648TIP3    H235140   6.220   5.839   9.747  1.9070 -0.6793 -0.4886
 3649TIP3   OH235141   1.898   3.074  10.632 -0.2903  0.0805  1.0446
 3649TIP3    H135142   1.949   3.001  10.667 -0.9672  0.1432  2.2198
 3649TIP3    H235143   1.896   3.138  10.703 -0.3724  0.9064  0.3088
 3650TIP3   OH235144   5.823   4.314   9.870 -0.0474  0.1553 -0.2995
 3650TIP3    H135145   5.838   4.221   9.885 -2.3145  0.0825  2.6122
 3650TIP3    H235146   5.789   4.319   9.781 -1.2876 -2.0799 -0.0382
 3651TIP3   OH235147   0.379   0.743   8.906  0.1283 -0.3087  0.5043
 3651TIP3    H135148   0.432   0.738   8.985  2.0182  0.2808 -0.6447
 3651TIP3    H235149   0.434   0.704   8.838 -1.7625 -1.5201 -0.3982
 3652TIP3   OH235150   0.973   0.969  11.390  0.8266  0.0487  0.2953
 3652TIP3    H135151   0.900   1.030  11.390  0.5321 -0.2758 -1.2041
 3652TIP3    H235152   1.049   1.022  11.364  1.0226  0.2512  1.2451
 3653TIP3   OH235153   4.940   2.553  11.908  0.2661  0.1148  0.0002
 3653TIP3    H135154   4.967   2.462  11.898  0.8944  0.2871  0.0362
 3653TIP3    H235155   4.878   2.553  11.981  0.5356 -0.2329  0.2282
 3654TIP3   OH235156   1.135   1.648   8.559  0.1624 -0.6297 -0.0014
 3654TIP3    H135157   1.132   1.640   8.464  1.0864 -0.2807 -0.0778
 3654TIP3    H235158   1.044   1.648   8.587 -0.1686  0.5189 -1.0014
 3655TIP3   OH235159   4.066   5.095  11.639  0.3802  0.0173  0.1657
 3655TIP3    H135160   4.026   5.180  11.658  0.7194  0.4959 -1.1274
 3655TIP3    H235161   4.159   5.114  11.627  0.1227 -0.0118 -2.6869
 3656TIP3   OH235162   1.367   4.508   9.860 -0.1989 -0.7216 -0.1107
 3656TIP3    H135163   1.322   4.566   9.799  0.7406  0.4317  0.2633
 3656TIP3    H235164   1.301   4.484   9.924 -0.4692  0.3801  0.0380
 3657TIP3   OH235165   4.656   4.993  10.096  0.0517  0.2896  0.0370
 3657TIP3    H135166   4.659   4.907  10.138 -1.5125  0.9605  1.6961
 3657TIP3    H235167   4.581   4.988  10.037  0.3237  0.3398 -0.3159
 3658TIP3   OH235168   4.381   0.088  10.610 -0.0207 -0.7695 -0.4107
 3658TIP3    H135169   4.390  -0.006  10.626  0.6984 -1.0269 -2.1123
 3658TIP3    H235170   4.320   0.093  10.537 -3.0597  0.3168  1.9617
 3659TIP3   OH235171   6.454   5.725  11.131 -0.1010 -0.0632 -0.0868
 3659TIP3    H135172   6.497   5.651  11.087 -2.2390 -2.5457  1.7224
 3659TIP3    H235173   6.487   5.721  11.221  1.2365  2.5031 -0.3834
 3660TIP3   OH235174   5.452   1.446   9.326 -0.4087  0.1867  0.1784
 3660TIP3    H135175   5.421   1.398   9.250 -0.4204 -0.0056  0.3034
 3660TIP3    H235176   5.388   1.516   9.338 -0.8665 -0.2825  0.5120
 3661TIP3   OH235177   2.297   4.054  10.262  0.6136 -0.0639  0.5265
 3661TIP3    H135178   2.225   4.047  10.323  2.0163 -1.1135  2.1580
 3661TIP3    H235179   2.352   4.125  10.297  1.4949 -0.7572  0.5906
 3662TIP3   OH235180   1.716   4.253  11.550 -0.5012 -0.1280  0.1030
 3662TIP3    H135181   1.662   4.202  11.490  1.0920 -0.7203 -0.8983
 3662TIP3    H235182   1.702   4.211  11.635 -1.2871 -0.5207 -0.2094
 3663TIP3   OH235183   5.021   3.849  11.719 -0.2144 -0.0242  0.4277
 3663TIP3    H135184   5.042   3.755  11.716  0.4470  0.1241  0.2536
 3663TIP3    H235185   4.948   3.855  11.780  0.4164 -0.5330  1.2462
 3664TIP3   OH235186   6.308   0.594   8.718  0.1688  0.1331 -0.3659
 3664TIP3    H135187   6.376   0.540   8.677 -0.0651  0.0272 -0.6182
 3664TIP3    H235188   6.333   0.684   8.696  1.1498  0.2100  0.9512
 3665TIP3   OH235189   3.752   2.047  11.442 -0.2025  0.0386 -0.2181
 3665TIP3    H135190   3.662   2.021  11.420  0.4150 -2.9210  0.3230
 3665TIP3    H235191   3.747   2.142  11.451 -3.6090 -0.1060  1.1603
 3666TIP3   OH235192   2.153   5.147  10.202  0.0139  0.4167  0.1916
 3666TIP3    H135193   2.135   5.057  10.230 -1.1783  0.0743 -1.4996
 3666TIP3    H235194   2.093   5.162  10.129 -1.2338  3.3071  1.6725
 3667TIP3   OH235195   6.231   5.817  11.026 -0.2213 -0.1727  0.3385
 3667TIP3    H135196   6.226   5.912  11.027  0.7496 -0.0932  2.5175
 3667TIP3    H235197   6.317   5.796  11.061  1.3049 -1.8885 -3.7760
 3668TIP3   OH235198   3.374   3.153  11.092 -0.0348  0.0016 -0.1307
 3668TIP3    H135199   3.405   3.235  11.132  0.4733 -1.2460  2.1953
 3668TIP3    H235200   3.280   3.154  11.107  0.0906 -0.2360  0.7196
 3669TIP3   OH235201   2.878   4.550  10.068 -0.3314 -0.0756  0.8630
 3669TIP3    H135202   2.957   4.575  10.021 -0.2063  1.1423  1.6752
 3669TIP3    H235203   2.817   4.621  10.052 -1.0987 -0.7688  0.6511
 3670TIP3   OH235204   5.939   3.714  10.534  0.0360  0.1685  0.8888
 3670TIP3    H135205   5.928   3.639  10.593 -0.8070 -0.0646  0.4565
 3670TIP3    H235206   6.031   3.738  10.543 -0.0166 -0.0293  2.0853
 3671TIP3   OH235207   0.330   2.588  11.852 -0.3699 -0.6191  0.0839
 3671TIP3    H135208   0.364   2.559  11.937 -1.8091  1.1775  1.3477
 3671TIP3    H235209   0.391   2.657  11.825 -0.0745 -0.9929 -0.2080
 3672TIP3   OH235210   2.895   3.959  10.409  0.6192 -0.5288  0.0059
 3672TIP3    H135211   2.932   4.017  10.343  2.4040 -1.8092 -0.1917
 3672TIP3    H235212   2.906   3.871  10.373 -2.9371 -1.0692 -0.1701
 3673TIP3   OH235213   1.088   1.414   9.776  0.1163  0.1373 -0.1167
 3673TIP3    H135214   1.047   1.332   9.804  2.4452 -0.7485  0.9615
 3673TIP3    H235215   1.047   1.481   9.832 -0.1843 -0.6385  0.6176
 3674TIP3   OH235216   0.036   3.453   9.995 -0.1838  0.0202  0.2522
 3674TIP3    H135217   0.058   3.520   9.930  2.1002 -0.5276  0.3702
 3674TIP3    H235218  -0.011   3.501  10.063  0.2007  1.2504 -0.3158
 3675TIP3   OH235219   6.631   1.209   8.528 -0.0145  0.3007 -0.8917
 3675TIP3    H135220   6.658   1.117   8.526  2.9933  1.0278  0.1261
 3675TIP3    H235221   6.554   1.211   8.585 -0.1025 -1.5706 -0.9038
 3676TIP3   OH235222   1.602   4.603   9.967  0.4670 -0.7868  0.9838
 3676TIP3    H135223   1.658   4.525   9.963  1.3352 -0.1214 -0.2998
 3676TIP3    H235224   1.525   4.579   9.915 -0.0065 -1.3422  1.9159
 3677TIP3   OH235225   6.142   2.901   8.421  0.1413 -0.4645 -0.0757
 3677TIP3    H135226   6.212   2.900   8.486  0.9196  1.4992 -0.8020
 3677TIP3    H235227   6.187   2.887   8.337 -0.5605 -0.7649 -0.4130
 3678TIP3   OH235228   2.977   0.083  10.410  0.2657 -0.2567  0.2034
 3678TIP3    H135229   2.915   0.055  10.478  1.5593 -0.6109  1.2733
 3678TIP3    H235230   2.983   0.008  10.350  1.9683 -1.4904  1.8036
 3679TIP3   OH235231   3.642   2.824  10.468 -0.3926  0.2948 -0.3066
 3679TIP3    H135232   3.580   2.819  10.540  0.1560 -3.6640  0.1150
 3679TIP3    H235233   3.588   2.817  10.389 -0.6998  0.1068 -0.0815
 3680TIP3   OH235234   0.813   1.320  11.112 -0.8406 -0.3769  0.2749
 3680TIP3    H135235   0.766   1.396  11.145  0.0445 -1.1993  3.8784
 3680TIP3    H235236   0.896   1.355  11.081 -0.4548  0.2246  1.8681
 3681TIP3   OH235237   5.061   1.032   9.294 -0.2927 -0.2721  0.1668
 3681TIP3    H135238   5.008   1.031   9.214 -1.0353 -0.3484  0.6534
 3681TIP3    H235239   5.091   1.122   9.302  0.3686 -0.4153 -0.5696
 3682TIP3   OH235240   3.403   4.154  10.598 -0.0690  0.4932  0.2258
 3682TIP3    H135241   3.360   4.099  10.663  0.5446 -0.6419 -0.2804
 3682TIP3    H235242   3.477   4.193  10.644  0.0033  0.1833  0.3740
 3683TIP3   OH235243   3.898   2.558   9.118 -0.3807 -0.1907  0.4126
 3683TIP3    H135244   3.973   2.551   9.177  1.2553  0.1799 -1.5144
 3683TIP3    H235245   3.847   2.480   9.134 -0.2916  0.1608  2.6839
 3684TIP3   OH235246   0.581   2.527  11.558 -0.1842 -0.5618  0.6792
 3684TIP3    H135247   0.542   2.506  11.473  0.3567  2.7131 -0.5249
 3684TIP3    H235248   0.510   2.569  11.606  0.3081  0.3073  0.6611
 3685TIP3   OH235249   1.312   5.946  10.752 -0.0895  0.7376  0.0185
 3685TIP3    H135250   1.379   5.975  10.814  0.5590  0.2758 -0.4580
 3685TIP3    H235251   1.276   5.866  10.790  1.3885 -0.4132 -0.9290
 3686TIP3   OH235252   2.512   2.593  11.927  0.8488  0.4217 -0.7616
 3686TIP3    H135253   2.542   2.517  11.877  2.6596  0.2266  0.5216
 3686TIP3    H235254   2.564   2.592  12.007 -0.4892  1.9087  0.2002
 3687TIP3   OH235255   2.462   6.103   9.737  0.3964  1.2679  0.0492
 3687TIP3    H135256   2.386   6.105   9.679 -0.5225 -0.9002  1.0489
 3687TIP3    H235257   2.537   6.108   9.678 -0.5128  1.5509 -1.1156
 3688TIP3   OH235258   5.281   5.527   9.571  0.2665 -0.0735 -0.3483
 3688TIP3    H135259   5.195   5.559   9.597  0.6399 -0.3203  1.2385
 3688TIP3    H235260   5.277   5.433   9.586  1.1543  0.0565  0.7539
 3689TIP3   OH235261   6.578   0.720   9.901 -0.2946  0.1452 -0.3667
 3689TIP3    H135262   6.592   0.747   9.992 -0.8702 -1.3086  0.1973
 3689TIP3    H235263   6.626   0.638   9.893 -2.2057 -1.0166 -0.6071
 3690TIP3   OH235264   1.082   3.270  11.038  0.0071 -0.0853  0.5183
 3690TIP3    H135265   1.170   3.272  11.076 -0.1027  1.1542  0.7264
 3690TIP3    H235266   1.081   3.343  10.976 -0.0601 -1.6107 -1.3645
 3691TIP3   OH235267   3.765   6.288  11.198 -0.2240  0.5073 -0.4607
 3691TIP3    H135268   3.746   6.268  11.107 -0.3525 -0.6157 -0.2051
 3691TIP3    H235269   3.861   6.281  11.205 -0.3567 -1.5173 -0.0739
 3692TIP3   OH235270   6.565   2.018  11.724  0.4941  0.0852 -0.2197
 3692TIP3    H135271   6.636   2.072  11.689  2.0725  0.4030  3.0681
 3692TIP3    H235272   6.601   1.983  11.805 -2.9298 -0.2280  1.3006
 3693TIP3   OH235273   1.154   2.253  10.997 -0.1905 -0.3010 -0.4850
 3693TIP3    H135274   1.139   2.270  10.904  0.3880 -0.6898 -0.6497
 3693TIP3    H235275   1.205   2.172  10.999  0.8076  0.3215  0.1212
 3694TIP3   OH235276   5.418   1.997  10.271  0.1377 -0.0125  0.5931
 3694TIP3    H135277   5.481   2.008  10.343 -0.5524  0.1414  1.1853
 3694TIP3    H235278   5.333   2.019  10.310 -0.3850 -0.9339  0.0088
 3695TIP3   OH235279   6.059   4.117   8.915 -0.1524  0.3616  0.8260
 3695TIP3    H135280   5.981   4.103   8.861 -0.0036  1.6392  0.2362
 3695TIP3    H235281   6.129   4.070   8.869 -0.2505  0.5397  0.4919
 3696TIP3   OH235282   0.096   4.628   9.785  0.0023  0.1005 -0.9625
 3696TIP3    H135283   0.074   4.640   9.877  2.3861 -0.6888 -0.2125
 3696TIP3    H235284   0.013   4.603   9.743 -0.7732 -1.6358  1.3775
 3697TIP3   OH235285   2.537   3.119  11.434  0.1901 -0.2332  0.3851
 3697TIP3    H135286   2.448   3.133  11.401 -0.1079  0.1667  1.3350
 3697TIP3    H235287   2.589   3.103  11.355 -0.8475 -1.2163 -0.1330
 3698TIP3   OH235288   2.697   3.656  11.930  0.2312 -0.0287 -0.8490
 3698TIP3    H135289   2.635   3.604  11.878  0.9467 -1.4048 -0.3783
 3698TIP3    H235290   2.735   3.718  11.868 -0.9498  0.2268 -1.3400
 3699TIP3   OH235291   6.760   1.923   8.969 -0.1555  0.0352  0.3130
 3699TIP3    H135292   6.701   1.860   9.011  1.1389 -1.6501 -0.2402
 3699TIP3    H235293   6.839   1.872   8.951  1.4473  2.1790  0.9496
 3700TIP3   OH235294   6.452   3.058   9.702 -0.3020 -0.1771  0.4366
 3700TIP3    H135295   6.449   2.997   9.776  0.2153  0.4079  0.9486
 3700TIP3    H235296   6.515   3.020   9.641 -0.4939 -0.4978  0.4340
 3701TIP3   OH235297   4.192   0.655  11.500 -0.5065 -0.1768  0.0825
 3701TIP3    H135298   4.171   0.562  11.511 -0.7320 -0.1327  0.0430
 3701TIP3    H235299   4.149   0.697  11.575 -0.2312 -0.1291  0.2142
 3702TIP3   OH235300   1.515   2.732   8.862 -0.2466 -0.2030  0.3107
 3702TIP3    H135301   1.557   2.719   8.777  1.2695 -1.2565  1.1819
 3702TIP3    H235302   1.501   2.643   8.895  2.1790  0.1299  2.5532
 3703TIP3   OH235303   2.436   6.131   9.998 -0.2352 -0.2968  0.4592
 3703TIP3    H135304   2.447   6.223   9.972 -1.3195 -0.1238  0.5217
 3703TIP3    H235305   2.456   6.081   9.919  0.1359  0.0066  0.3571
 3704TIP3   OH235306   5.132   5.775   9.500 -0.4112 -0.2909 -0.0351
 3704TIP3    H135307   5.061   5.826   9.459 -0.8782 -0.6328  0.3491
 3704TIP3    H235308   5.139   5.696   9.446  0.5337  0.3059 -0.8286
 3705TIP3   OH235309   4.798   4.861   9.496 -0.2534  0.4072  0.4006
 3705TIP3    H135310   4.817   4.768   9.484 -1.5746  0.0192  1.1712
 3705TIP3    H235311   4.817   4.900   9.410  2.6630 -0.1079  0.7125
 3706TIP3   OH235312   0.419   2.419  11.342 -0.2478 -0.5588  0.2120
 3706TIP3    H135313   0.401   2.492  11.282 -0.2496 -0.0033  0.8828
 3706TIP3    H235314   0.441   2.346  11.284 -0.1031  0.0099 -0.4684
 3707TIP3   OH235315   1.593   1.173   8.745 -0.1322  0.3238 -0.6369
 3707TIP3    H135316   1.543   1.092   8.754  0.1191  0.2681  0.3352
 3707TIP3    H235317   1.634   1.186   8.830 -0.8016  1.8922 -0.5057
 3708TIP3   OH235318   4.416   3.800  11.750  0.4544  0.1102 -0.2682
 3708TIP3    H135319   4.352   3.730  11.760 -0.6941  1.1202 -0.4015
 3708TIP3    H235320   4.475   3.768  11.681  0.3556 -0.9920  0.1305
 3709TIP3   OH235321   1.702   4.294  11.182 -0.0054 -0.0584  0.0771
 3709TIP3    H135322   1.720   4.217  11.236  1.7790  1.8509  2.4740
 3709TIP3    H235323   1.619   4.327  11.216 -0.5867 -0.6717 -0.7055
 3710TIP3   OH235324   1.311   1.543  11.683  0.0311 -0.1851  0.5109
 3710TIP3    H135325   1.223   1.527  11.649 -0.8223  1.6624  1.6642
 3710TIP3    H235326   1.369   1.506  11.617 -1.5908 -2.8309  0.4378
 3711TIP3   OH235327   4.748   5.427  11.137  0.3556 -0.2028 -0.0053
 3711TIP3    H135328   4.828   5.460  11.178  0.2602 -1.2777  1.0900
 3711TIP3    H235329   4.743   5.474  11.054  1.6314  0.5530  0.3148
 3712TIP3   OH235330   4.937   3.064  12.021 -0.1327 -0.4103  0.5314
 3712TIP3    H135331   4.848   3.029  12.018 -0.2665 -0.4554  2.7532
 3712TIP3    H235332   4.937   3.137  11.960 -1.3796 -1.0725 -0.2911
 3713TIP3   OH235333   5.567   2.127  10.453  0.3068  0.1144  0.0402
 3713TIP3    H135334   5.659   2.120  10.479  0.6353 -0.2392 -1.1745
 3713TIP3    H235335   5.542   2.217  10.476  0.9564  0.2228  0.3303
 3714TIP3   OH235336   4.919   1.300   8.319  0.0644  0.8489  0.3137
 3714TIP3    H135337   4.920   1.394   8.300 -1.4122  0.6436 -1.0169
 3714TIP3    H235338   4.969   1.261   8.248  1.2584  0.6585  1.2377
 3715TIP3   OH235339   1.948   4.777  10.669 -0.3110 -0.2506 -0.5033
 3715TIP3    H135340   1.918   4.733  10.749 -1.0238  0.3051 -0.4485
 3715TIP3    H235341   1.912   4.865  10.676  0.9796  0.3040 -0.6750
 3716TIP3   OH235342   0.942   4.968   9.341  0.3554 -0.0850  0.0973
 3716TIP3    H135343   0.954   4.954   9.435 -0.0509 -1.6369 -0.0627
 3716TIP3    H235344   1.021   4.933   9.301 -0.5621 -1.8210 -0.2945
 3717TIP3   OH235345   2.697   1.111   9.866  0.7148  0.1669 -0.1288
 3717TIP3    H135346   2.720   1.035   9.813 -0.5382 -1.7482  1.8817
 3717TIP3    H235347   2.605   1.127   9.848  0.1993 -0.6634  1.5145
 3718TIP3   OH235348   2.072   0.733   8.723 -0.1350 -0.2144  0.3896
 3718TIP3    H135349   2.082   0.639   8.710  1.8010 -0.1241  0.9305
 3718TIP3    H235350   2.146   0.758   8.778  0.1882  1.8590 -0.8805
 3719TIP3   OH235351   5.810   4.720  11.222  0.4410 -0.3929 -0.1312
 3719TIP3    H135352   5.796   4.706  11.128 -0.1183  0.5426 -0.1962
 3719TIP3    H235353   5.766   4.803  11.241  1.7548  0.1537  0.6747
 3720TIP3   OH235354   4.428   1.569   9.304 -0.3373 -0.0444  0.5054
 3720TIP3    H135355   4.369   1.493   9.307 -1.4355  0.7364 -0.4266
 3720TIP3    H235356   4.445   1.582   9.211  0.6599  0.2543  0.7215
 3721TIP3   OH235357   5.268   6.445  11.240 -0.0848 -0.5823 -0.0527
 3721TIP3    H135358   5.276   6.404  11.326  0.1384 -0.8794 -0.2114
 3721TIP3    H235359   5.208   6.519  11.253  1.1294  0.3106  0.6928
 3722TIP3   OH235360   1.325   2.424   8.687 -0.1550 -0.3635  0.0651
 3722TIP3    H135361   1.412   2.423   8.646 -0.4351  0.9206 -0.6041
 3722TIP3    H235362   1.264   2.434   8.614 -0.7945 -0.1151  0.6273
 3723TIP3   OH235363   3.237   1.103   9.619 -0.1733  0.1728  0.0496
 3723TIP3    H135364   3.281   1.174   9.665 -1.2380  0.5035  0.5898
 3723TIP3    H235365   3.257   1.120   9.526 -0.2063  1.0447  0.1866
 3724TIP3   OH235366   4.699   1.332   8.967  1.2482 -0.1091 -0.2178
 3724TIP3    H135367   4.663   1.405   8.916  0.8439 -1.1685 -1.5112
 3724TIP3    H235368   4.645   1.330   9.047 -0.0779 -0.2143 -1.0790
 3725TIP3   OH235369   6.707   0.973   8.406  0.0567 -0.0858  0.3531
 3725TIP3    H135370   6.748   1.004   8.325 -0.3439  2.1328  0.9269
 3725TIP3    H235371   6.628   0.928   8.378  0.9477 -1.1332 -0.5661
 3726TIP3   OH235372   4.813   6.700   9.885 -0.2358  0.3464 -0.1324
 3726TIP3    H135373   4.771   6.697   9.799 -0.6852  0.8856  0.0576
 3726TIP3    H235374   4.774   6.777   9.928 -1.0816 -0.7164  1.0853
 3727TIP3   OH235375   1.651   5.713  10.236 -0.1562  0.5549 -0.5682
 3727TIP3    H135376   1.635   5.761  10.155  0.4306  0.6038 -0.6595
 3727TIP3    H235377   1.738   5.741  10.263 -0.0833  0.0398 -0.2707
 3728TIP3   OH235378   1.508   1.133  10.276  0.3445 -0.2453  0.1028
 3728TIP3    H135379   1.468   1.129  10.189 -2.2969 -0.8457  1.2657
 3728TIP3    H235380   1.528   1.042  10.298  2.4575  0.0286 -0.4168
 3729TIP3   OH235381   3.009   0.069  10.877 -0.1861  0.4233  0.0521
 3729TIP3    H135382   2.934   0.043  10.931 -1.0047  0.8660 -0.8212
 3729TIP3    H235383   3.013   0.164  10.885  2.2039  0.2135  2.4804
 3730TIP3   OH235384   1.077   1.489  11.565 -0.2966 -0.2198  0.8820
 3730TIP3    H135385   1.004   1.437  11.600 -0.0884 -0.9012  0.3253
 3730TIP3    H235386   1.039   1.535  11.490 -0.4002  0.1853  1.1828
 3731TIP3   OH235387   5.572   6.504  11.808  0.1840 -0.0347 -0.0297
 3731TIP3    H135388   5.657   6.464  11.788 -0.1953  0.1861 -2.2978
 3731TIP3    H235389   5.593   6.573  11.871  1.4655 -0.9178  0.5619
 3732TIP3   OH235390   4.181   1.962   9.562  0.0627 -0.1813 -0.5495
 3732TIP3    H135391   4.255   1.965   9.624 -0.8942  0.3697  0.6039
 3732TIP3    H235392   4.203   1.890   9.502  1.4387 -0.1578 -0.1088
 3733TIP3   OH235393   3.712   4.969  11.281 -0.0609  0.1164  0.2759
 3733TIP3    H135394   3.722   4.927  11.366  0.9020 -1.0095 -0.3591
 3733TIP3    H235395   3.705   5.063  11.301  1.8381  0.0624  1.5220
 3734TIP3   OH235396   1.884   3.723   9.332  0.8917  0.1877  0.1171
 3734TIP3    H135397   1.964   3.737   9.282  0.9020 -1.9740 -0.6068
 3734TIP3    H235398   1.899   3.639   9.376 -0.2610  0.6518  1.4650
 3735TIP3   OH235399   4.841   3.314   8.948 -0.1767 -0.8387  0.0140
 3735TIP3    H135400   4.802   3.382   8.894  2.0353  2.5595  2.3216
 3735TIP3    H235401   4.788   3.313   9.028  1.3525  0.2363  1.0999
 3736TIP3   OH235402   0.518   2.197   8.688  0.1303 -0.2663  0.9529
 3736TIP3    H135403   0.531   2.267   8.623 -1.1764  0.8759  1.8659
 3736TIP3    H235404   0.426   2.173   8.679  0.4168 -1.4801  1.0763
 3737TIP3   OH235405   1.571   4.947  11.728  0.6717 -0.0074  0.4934
 3737TIP3    H135406   1.655   4.994  11.726  1.1872 -0.8787 -2.1514
 3737TIP3    H235407   1.596   4.855  11.724 -0.4074 -0.2741 -0.3894
 3738TIP3   OH235408   5.407   1.736  10.135  0.4686 -0.0917 -0.1687
 3738TIP3    H135409   5.433   1.825  10.157  0.5694 -0.1222 -0.1634
 3738TIP3    H235410   5.357   1.706  10.211 -1.0899  0.5767 -0.8907
 3739TIP3   OH235411   3.071   6.126  10.391  0.4001  0.2710 -0.2604
 3739TIP3    H135412   3.152   6.115  10.343 -0.3431  1.9145 -2.0050
 3739TIP3    H235413   3.098   6.165  10.475  1.4276  0.6629 -0.7565
 3740TIP3   OH235414   5.924   2.751  10.212 -0.3502 -0.1959  0.0797
 3740TIP3    H135415   5.995   2.800  10.170  0.3203  0.2009  1.6119
 3740TIP3    H235416   5.851   2.759  10.151  0.0612  1.8190 -0.2365
 3741TIP3   OH235417   0.315   5.270  10.198  0.3498  0.0913 -0.1717
 3741TIP3    H135418   0.368   5.347  10.180 -0.6293  0.9403  0.4719
 3741TIP3    H235419   0.302   5.229  10.113 -1.3537  2.1367 -0.9992
 3742TIP3   OH235420   0.263   3.934  10.766 -0.3859 -0.1020 -0.2349
 3742TIP3    H135421   0.209   3.906  10.840 -2.6599 -1.6884 -2.3483
 3742TIP3    H235422   0.333   3.868  10.761 -1.6892 -1.5010 -0.9433
 3743TIP3   OH235423   1.885   1.345   9.665 -0.3413 -0.5501  0.1076
 3743TIP3    H135424   1.814   1.285   9.689  0.0198 -1.4699 -1.0335
 3743TIP3    H235425   1.899   1.329   9.572  0.3464  0.7236 -0.0366
 3744TIP3   OH235426   2.013   6.622   9.438 -0.7447 -0.3522 -0.0655
 3744TIP3    H135427   1.919   6.639   9.447 -1.1878 -2.9064  0.8997
 3744TIP3    H235428   2.028   6.544   9.491  1.7083 -0.7146 -1.1874
 3745TIP3   OH235429   4.656   0.259  10.958  0.0501  1.0853  0.3096
 3745TIP3    H135430   4.643   0.277  11.051 -1.2315  1.6380  0.0508
 3745TIP3    H235431   4.717   0.327  10.929  0.3104  1.0222  0.7012
 3746TIP3   OH235432   6.605   4.415  10.474 -0.1746  0.0475  0.3207
 3746TIP3    H135433   6.573   4.404  10.384  0.7062  1.5364 -0.2182
 3746TIP3    H235434   6.689   4.371  10.475 -0.1365  0.1233  0.3858
 3747TIP3   OH235435   1.760   6.679   9.235  0.3662 -0.3092 -0.5231
 3747TIP3    H135436   1.690   6.713   9.178  0.6552  1.7835  0.2789
 3747TIP3    H235437   1.782   6.752   9.292  1.1438 -1.8748  1.2923
 3748TIP3   OH235438   6.455   6.187  10.682 -0.5576 -0.1052  0.9590
 3748TIP3    H135439   6.448   6.096  10.654  0.5715 -0.6422  2.2613
 3748TIP3    H235440   6.507   6.229  10.614 -0.1666 -0.7091  0.8719
 3749TIP3   OH235441   6.044   2.349  10.997 -0.2875 -0.9273 -0.1168
 3749TIP3    H135442   6.056   2.405  10.920  0.9667  0.2307  0.8494
 3749TIP3    H235443   5.966   2.298  10.979  0.0277 -0.7428 -2.1827
 3750TIP3   OH235444   5.782   2.751  11.678  0.2386 -0.0894  0.3825
 3750TIP3    H135445   5.830   2.671  11.659  0.8198 -0.1051  1.7937
 3750TIP3    H235446   5.825   2.818  11.625  0.5865 -0.4654  0.1856
 3751TIP3   OH235447   4.343   1.779   9.442  0.2412  0.0045  0.4471
 3751TIP3    H135448   4.409   1.728   9.394 -1.2032 -1.5835  0.0365
 3751TIP3    H235449   4.301   1.715   9.500  1.3449  1.6962  3.2694
 3752TIP3   OH235450   2.791   3.222   9.971 -0.8784 -0.0603 -0.2892
 3752TIP3    H135451   2.737   3.297   9.945 -1.0698 -0.3281 -0.6894
 3752TIP3    H235452   2.879   3.243   9.939 -0.5762  0.6943  0.9831
 3753TIP3   OH235453   0.430   5.622   9.199  0.0478  0.0462  0.2794
 3753TIP3    H135454   0.414   5.616   9.105  0.2122  1.3165  0.1531
 3753TIP3    H235455   0.484   5.701   9.209  1.4341 -0.9938  1.2735
 3754TIP3   OH235456   2.899   0.986   9.163 -0.1368 -0.0389 -0.6608
 3754TIP3    H135457   2.936   1.014   9.079  1.5047  0.7294  0.2777
 3754TIP3    H235458   2.955   0.912   9.190  0.8374  1.1886  0.8153
 3755TIP3   OH235459   3.582   1.230   8.677 -0.0682  0.0093 -0.1896
 3755TIP3    H135460   3.546   1.184   8.602  1.3059 -0.7558 -0.4216
 3755TIP3    H235461   3.506   1.253   8.731 -0.9876 -0.1984 -1.3760
 3756TIP3   OH235462   3.885   1.162  11.574  0.1914 -0.4100  0.1144
 3756TIP3    H135463   3.908   1.152  11.482  1.4067 -0.2515  0.3824
 3756TIP3    H235464   3.880   1.072  11.608  0.6713 -0.4449  0.1001
 3757TIP3   OH235465   6.644   6.598  10.598 -0.1187  0.1161 -0.7118
 3757TIP3    H135466   6.701   6.670  10.625  1.3551 -0.7940 -1.2122
 3757TIP3    H235467   6.572   6.639  10.551  0.5644  1.2655 -0.7806
 3758TIP3   OH235468   0.763   3.300  10.317  0.4143 -0.1809  0.5137
 3758TIP3    H135469   0.785   3.210  10.291 -0.0607 -0.3775  0.7876
 3758TIP3    H235470   0.725   3.291  10.405 -1.1059  0.1129 -0.0891
 3759TIP3   OH235471   6.572   6.459   9.804  0.4958  0.1178  0.2885
 3759TIP3    H135472   6.545   6.418   9.886 -0.3015 -2.4114 -1.1055
 3759TIP3    H235473   6.493   6.458   9.749  1.2225  0.9061 -0.8271
 3760TIP3   OH235474   5.269   2.160   9.655  0.1175  0.0069 -0.4280
 3760TIP3    H135475   5.277   2.211   9.735  2.2428  2.2505 -1.9451
 3760TIP3    H235476   5.196   2.199   9.609  1.0458  1.0187 -1.0840
 3761TIP3   OH235477   0.682   2.184   9.395  0.2845 -0.2991 -0.1398
 3761TIP3    H135478   0.710   2.275   9.387 -0.3026 -0.2458 -2.2621
 3761TIP3    H235479   0.635   2.181   9.478  0.9473  1.1505  0.3260
 3762TIP3   OH235480   0.225   5.762   9.915  0.0211  0.3301  0.5221
 3762TIP3    H135481   0.300   5.791   9.862  0.6179 -0.2747  1.0230
 3762TIP3    H235482   0.154   5.751   9.851  0.3835  0.7783  0.0218
 3763TIP3   OH235483   4.832   4.972   8.602 -0.0549  0.6197 -0.1071
 3763TIP3    H135484   4.741   5.002   8.600 -0.0703  0.5316 -1.7818
 3763TIP3    H235485   4.884   5.051   8.614 -0.3666  0.5597  1.9440
 3764TIP3   OH235486   2.822   0.133   9.726  0.1776 -0.2849  0.1926
 3764TIP3    H135487   2.784   0.209   9.680  1.4051  0.8329  0.9365
 3764TIP3    H235488   2.764   0.118   9.800 -0.6988 -0.8086 -0.5838
 3765TIP3   OH235489   3.455   3.975  10.423 -0.5789 -0.1668 -0.3362
 3765TIP3    H135490   3.368   3.960  10.387 -0.5027  1.2911 -1.2323
 3765TIP3    H235491   3.446   4.052  10.479 -0.5047 -1.9017  2.2284
 3766TIP3   OH235492   5.212   0.924   9.723  1.0784  0.2097 -0.2495
 3766TIP3    H135493   5.270   0.938   9.798 -0.0627  0.4417  0.6131
 3766TIP3    H235494   5.171   1.009   9.708 -1.1078 -0.5685  0.9430
 3767TIP3   OH235495   0.260   4.728   8.242 -0.2864 -0.4746 -0.4957
 3767TIP3    H135496   0.271   4.684   8.157  0.7386 -2.1230  0.4359
 3767TIP3    H235497   0.219   4.662   8.297 -0.4888  0.4193  0.4416
 3768TIP3   OH235498   1.687   1.783  11.838 -0.1152 -0.0766 -0.3025
 3768TIP3    H135499   1.607   1.786  11.891  0.2975  0.5949  0.2882
 3768TIP3    H235500   1.758   1.786  11.902  0.4603  3.4483 -0.9111
 3769TIP3   OH235501   2.616   2.816  10.170  0.3802  0.0306 -0.3554
 3769TIP3    H135502   2.584   2.854  10.252  2.5611 -1.4729  1.3113
 3769TIP3    H235503   2.693   2.869  10.148  2.4115 -2.0831  1.0652
 3770TIP3   OH235504   3.513   0.338  10.074  0.1007  0.2884 -0.1312
 3770TIP3    H135505   3.544   0.251  10.049  0.1123  0.0463  0.7141
 3770TIP3    H235506   3.487   0.329  10.166 -0.6347  0.9819 -0.2620
 3771TIP3   OH235507   3.766   4.401  10.869  0.1229  0.5914 -0.0902
 3771TIP3    H135508   3.830   4.428  10.935 -0.1149  0.6681  0.1108
 3771TIP3    H235509   3.681   4.414  10.912 -0.0316  0.6582 -0.4191
 3772TIP3   OH235510   5.157   2.302   8.120 -0.0225 -0.2307  0.0398
 3772TIP3    H135511   5.194   2.253   8.046 -1.0309 -1.4120  0.2737
 3772TIP3    H235512   5.204   2.270   8.196 -0.2524 -0.3964  0.1161
 3773TIP3   OH235513   4.450   0.692  11.111  0.4035 -0.5899  0.2332
 3773TIP3    H135514   4.539   0.718  11.134  0.0624  0.1173  0.7916
 3773TIP3    H235515   4.421   0.640  11.186 -0.1197  0.3108  0.6703
 3774TIP3   OH235516   3.141   4.828  10.323  0.0968  1.0623  0.0414
 3774TIP3    H135517   3.106   4.887  10.257  1.6002  1.5091 -0.3928
 3774TIP3    H235518   3.173   4.885  10.392 -0.9099  0.6195  0.8930
 3775TIP3   OH235519   5.452   5.033   9.163 -0.0438 -0.2654 -0.4784
 3775TIP3    H135520   5.527   5.054   9.107 -0.5610 -0.7527 -1.3827
 3775TIP3    H235521   5.491   5.009   9.247  0.7536  0.4648 -0.6274
 3776TIP3   OH235522   4.793   4.759  10.179 -0.6631  0.0301 -0.1632
 3776TIP3    H135523   4.824   4.755  10.269 -0.7564 -1.5513 -0.1751
 3776TIP3    H235524   4.767   4.670  10.158  0.7815  0.0108 -2.2489
 3777TIP3   OH235525   0.296   0.920   8.452  0.2233 -0.2235  0.2252
 3777TIP3    H135526   0.349   0.999   8.442  0.3129 -0.3592 -0.3719
 3777TIP3    H235527   0.229   0.944   8.516  0.8522  0.0266  0.8087
 3778TIP3   OH235528   5.813   6.694  11.269 -0.2933 -0.7014 -0.0874
 3778TIP3    H135529   5.770   6.660  11.348 -1.4188 -1.4323 -0.9804
 3778TIP3    H235530   5.776   6.642  11.197  0.9785 -0.3026 -1.0702
 3779TIP3   OH235531   1.220   0.574  11.304  0.2407 -0.1038  0.2014
 3779TIP3    H135532   1.220   0.626  11.383  1.4019 -0.7727  0.6602
 3779TIP3    H235533   1.158   0.618  11.246 -1.2192 -0.0401  1.7467
 3780TIP3   OH235534   2.148   2.060   8.412  0.0192 -0.5809  0.3631
 3780TIP3    H135535   2.095   2.139   8.426 -0.0871 -0.6394  0.2809
 3780TIP3    H235536   2.149   2.017   8.498  1.8094  0.5893  0.9967
 3781TIP3   OH235537   1.657   4.132   9.191 -0.1952  0.3343 -0.1298
 3781TIP3    H135538   1.671   4.041   9.218 -2.4448  0.4178  1.6136
 3781TIP3    H235539   1.730   4.151   9.132  0.4852 -2.5072 -0.3591
 3782TIP3   OH235540   6.227   6.467  10.039  0.0590 -0.0054 -0.4008
 3782TIP3    H135541   6.179   6.469   9.956 -0.4673 -0.0249 -0.1025
 3782TIP3    H235542   6.160   6.450  10.105  0.3454  0.8159  0.1173
 3783TIP3   OH235543   1.303   2.289  10.210 -0.4227 -0.1383  0.2079
 3783TIP3    H135544   1.299   2.384  10.221  0.7456  0.2411 -2.1373
 3783TIP3    H235545   1.396   2.269  10.202 -0.7334 -1.2444 -0.9274
 3784TIP3   OH235546   6.453   6.668  11.435 -0.1573  0.0496 -0.5123
 3784TIP3    H135547   6.501   6.719  11.370  2.2653 -1.3974  0.0020
 3784TIP3    H235548   6.479   6.706  11.519  0.4231 -0.9702 -0.2090
 3785TIP3   OH235549   3.318   5.918  11.691 -0.4300 -0.2646  0.3225
 3785TIP3    H135550   3.269   5.915  11.773 -1.4235  0.2216 -0.2319
 3785TIP3    H235551   3.354   5.829  11.681  0.2702 -0.1454  1.6011
 3786TIP3   OH235552   5.249   3.200   8.351  0.0417 -0.1595 -0.1215
 3786TIP3    H135553   5.312   3.230   8.417 -1.1464 -1.8410  1.8812
 3786TIP3    H235554   5.174   3.259   8.361  0.2432  0.2057 -0.6992
 3787TIP3   OH235555   1.476   6.310  10.307  0.3564 -0.1297  0.0779
 3787TIP3    H135556   1.499   6.228  10.350  1.9571  1.2086  1.9827
 3787TIP3    H235557   1.514   6.303  10.219  0.8524 -1.2403  0.3682
 3788TIP3   OH235558   6.555   5.663  11.386  1.0131 -0.0649  0.3477
 3788TIP3    H135559   6.507   5.591  11.428 -0.3786  0.7267  0.1801
 3788TIP3    H235560   6.644   5.654  11.419  0.8623 -1.8128  0.3966
 3789TIP3   OH235561   4.333   2.591   9.873  1.0261  0.3278  0.3414
 3789TIP3    H135562   4.335   2.580   9.778  2.1309  1.8939  0.1449
 3789TIP3    H235563   4.267   2.659   9.887  0.3063 -0.4519  0.7741
 3790TIP3   OH235564   0.850   2.473  11.265 -0.0249 -0.5958  0.4845
 3790TIP3    H135565   0.795   2.395  11.273  0.1068 -1.1404 -2.6447
 3790TIP3    H235566   0.815   2.533  11.330 -2.4541 -1.9837  0.6067
 3791TIP3   OH235567   0.330   4.339  11.868  0.1935  0.2990  0.1263
 3791TIP3    H135568   0.300   4.278  11.800 -0.7331 -0.1581  0.9118
 3791TIP3    H235569   0.249   4.380  11.899  0.7375  1.3942  0.1175
 3792TIP3   OH235570   2.366   1.567  10.784  0.3172 -0.0280 -0.4931
 3792TIP3    H135571   2.334   1.566  10.693 -0.0650  1.4232 -0.3988
 3792TIP3    H235572   2.288   1.553  10.837  0.1054  1.5914 -0.3279
 3793TIP3   OH235573   3.743   6.508  10.704  0.2156  0.7918 -0.1826
 3793TIP3    H135574   3.747   6.587  10.758  1.2110 -0.6338  2.0086
 3793TIP3    H235575   3.651   6.498  10.682  0.0019  2.2545 -0.0147
 3794TIP3   OH235576   3.363   0.877   9.614  0.3650 -0.0901 -0.4215
 3794TIP3    H135577   3.322   0.961   9.632 -0.1767 -0.5763  0.7135
 3794TIP3    H235578   3.439   0.875   9.673 -0.3856 -0.9384  0.5469
 3795TIP3   OH235579   3.973   6.416  10.164  0.8074  0.1458  0.1795
 3795TIP3    H135580   3.910   6.488  10.165  1.0616  0.3741  0.1387
 3795TIP3    H235581   3.979   6.388  10.255  1.8080  1.1655  0.4482
 3796TIP3   OH235582   5.963   1.836   8.944 -0.5672  0.1022  0.7104
 3796TIP3    H135583   5.973   1.903   8.876  0.9301  1.7668  2.4704
 3796TIP3    H235584   5.870   1.812   8.940 -0.8676  1.3332 -0.8090
 3797TIP3   OH235585   2.145   3.455  10.363  0.3896  0.1434  0.2388
 3797TIP3    H135586   2.171   3.536  10.407 -0.6464  0.3581  0.4741
 3797TIP3    H235587   2.052   3.445  10.384  0.0744 -0.1906 -1.2319
 3798TIP3   OH235588   0.438   6.655   9.982  0.3668  0.0542  0.1581
 3798TIP3    H135589   0.450   6.593  10.054  1.6856 -0.5094 -0.5286
 3798TIP3    H235590   0.522   6.701   9.976  0.5466 -0.4559 -1.5341
 3799TIP3   OH235591   0.615   2.212  11.572  0.1515  0.2154  0.2623
 3799TIP3    H135592   0.620   2.267  11.494 -0.1030 -0.7407 -0.4490
 3799TIP3    H235593   0.639   2.270  11.644 -1.4960  1.6539 -0.2653
 3800TIP3   OH235594   2.497   0.271  10.427 -0.2056  0.4445  0.1319
 3800TIP3    H135595   2.516   0.334  10.498  0.3958  0.5224 -0.0896
 3800TIP3    H235596   2.557   0.296  10.357 -0.4264  0.0263 -0.2078
 3801TIP3   OH235597   1.341   1.816   7.440  0.2859  0.4570  0.6995
 3801TIP3    H135598   1.414   1.841   7.496  0.7151 -0.5694  0.6122
 3801TIP3    H235599   1.306   1.899   7.409  0.5867  1.0071  1.7854
 3802TIP3   OH235600   4.702   5.210   9.588  0.2996  0.6994  0.1550
 3802TIP3    H135601   4.797   5.207   9.600  0.5047  2.9676 -0.4373
 3802TIP3    H235602   4.689   5.186   9.496  0.3679  0.9903  0.0681
 3803TIP3   OH235603   4.307   3.872   9.514 -0.0029  0.4261 -0.1454
 3803TIP3    H135604   4.217   3.858   9.542 -0.0657 -2.1748 -1.2855
 3803TIP3    H235605   4.301   3.930   9.439 -0.7114  0.4324 -0.0829
 3804TIP3   OH235606   2.639   1.512  10.790 -0.5480  0.3007 -0.1641
 3804TIP3    H135607   2.559   1.552  10.758 -1.3920 -1.3309 -0.1901
 3804TIP3    H235608   2.630   1.419  10.770 -0.2172 -0.5261  2.9298
 3805TIP3   OH235609   5.446   3.901   8.929 -0.4387 -1.2505 -0.2192
 3805TIP3    H135610   5.498   3.824   8.906  0.4198 -0.4642 -1.0195
 3805TIP3    H235611   5.436   3.949   8.847  2.2686  1.3887  0.8000
 3806TIP3   OH235612   3.068   6.372  11.078  0.0632  0.7457 -0.7621
 3806TIP3    H135613   3.051   6.293  11.027  2.7390  0.4059 -1.3023
 3806TIP3    H235614   3.079   6.441  11.013 -0.8667  1.2960 -0.3614
 3807TIP3   OH235615   2.555   6.654  10.873  0.0146  0.6773  0.2500
 3807TIP3    H135616   2.549   6.565  10.839  0.1536  0.3404  1.0813
 3807TIP3    H235617   2.517   6.650  10.961  0.8832  1.2166  0.6808
 3808TIP3   OH235618   5.032   2.561  11.127 -0.0945 -0.3294  0.7503
 3808TIP3    H135619   4.989   2.595  11.206  1.7027  0.8952  1.2661
 3808TIP3    H235620   5.121   2.541  11.155  0.0128 -1.8587 -0.5146
 3809TIP3   OH235621   1.649   5.218  10.807 -0.6277 -0.9213  0.6105
 3809TIP3    H135622   1.605   5.291  10.851 -0.3537 -1.3833  1.6899
 3809TIP3    H235623   1.584   5.148  10.807 -1.9220  0.0596 -2.8771
 3810TIP3   OH235624   5.160   1.803  10.635  0.2430  0.5968  0.6808
 3810TIP3    H135625   5.235   1.745  10.621 -0.4825 -0.4611  1.0291
 3810TIP3    H235626   5.086   1.757  10.594 -0.4221  1.0979  1.2908
 3811TIP3   OH235627   4.130   6.094   9.730 -0.5926  0.1077 -0.1247
 3811TIP3    H135628   4.145   6.067   9.821  1.7088  1.5355 -0.0008
 3811TIP3    H235629   4.175   6.029   9.677  0.9404  1.0650 -0.0445
 3812TIP3   OH235630   6.342   1.310   8.911 -0.2427  0.0454 -0.8433
 3812TIP3    H135631   6.378   1.291   8.998  1.9725  0.1081 -1.6727
 3812TIP3    H235632   6.331   1.405   8.911 -0.1918  0.0522 -0.6333
 3813TIP3   OH235633   5.801   2.593   8.706  0.0323  0.2056 -0.1117
 3813TIP3    H135634   5.882   2.595   8.656 -0.2502  0.2101 -0.5758
 3813TIP3    H235635   5.745   2.531   8.659  0.3473 -1.0791  1.1138
 3814TIP3   OH235636   6.131   1.695   7.818  0.0010 -0.4279  0.0861
 3814TIP3    H135637   6.053   1.680   7.764  0.5907  0.7631 -1.1566
 3814TIP3    H235638   6.189   1.622   7.796 -0.9588 -1.6919  1.5078
 3815TIP3   OH235639   1.496   4.426   8.597  0.3708 -0.0788 -0.6783
 3815TIP3    H135640   1.563   4.406   8.663 -0.0338  0.4397 -0.0977
 3815TIP3    H235641   1.477   4.342   8.556  0.5197 -0.4408 -0.0216
 3816TIP3   OH235642   6.706   5.113  11.818  0.2574 -0.4356  0.3123
 3816TIP3    H135643   6.713   5.085  11.909  0.3578 -0.3554  0.3298
 3816TIP3    H235644   6.710   5.209  11.822  0.6511 -0.4459  0.1892
 3817TIP3   OH235645   3.817   5.833   9.733 -0.1757 -0.4600 -0.8116
 3817TIP3    H135646   3.811   5.763   9.669  3.2902 -0.7935 -0.9279
 3817TIP3    H235647   3.850   5.909   9.684 -0.5353  0.2396 -0.0143
 3818TIP3   OH235648   0.321   4.080  10.417  0.1547 -0.4621  0.2709
 3818TIP3    H135649   0.236   4.101  10.455  0.1748 -0.2635  0.2096
 3818TIP3    H235650   0.315   3.987  10.396 -0.2578 -0.3216 -0.2612
 3819TIP3   OH235651   0.369   5.869   9.434  0.2749  0.1140 -0.8821
 3819TIP3    H135652   0.327   5.865   9.348  0.1134  0.1163 -0.8040
 3819TIP3    H235653   0.437   5.935   9.424  0.2356  0.1380 -0.9997
 3820TIP3   OH235654   4.685   2.416   9.275 -0.3949 -0.2356 -0.2440
 3820TIP3    H135655   4.617   2.469   9.317 -1.2552 -2.9751  2.2201
 3820TIP3    H235656   4.638   2.366   9.209 -0.4120 -0.7054  0.1162
 3821TIP3   OH235657   0.778   2.378  10.392  0.3034 -0.1079 -0.0684
 3821TIP3    H135658   0.695   2.380  10.440  0.2320 -0.6208 -0.1673
 3821TIP3    H235659   0.760   2.326  10.314 -0.0818  2.2365 -1.6522
 3822TIP3   OH235660   2.819   0.769  11.633 -0.5023 -0.1254 -0.3774
 3822TIP3    H135661   2.761   0.841  11.607  2.0042  1.3501 -2.3277
 3822TIP3    H235662   2.801   0.700  11.570  0.1932  0.5397 -1.3270
 3823TIP3   OH235663   5.200   6.092   9.605 -0.0781 -0.4503  0.5646
 3823TIP3    H135664   5.264   6.032   9.568 -0.3746 -0.9871  0.9014
 3823TIP3    H235665   5.173   6.147   9.532  2.2765  1.2020  0.8322
 3824TIP3   OH235666   0.368   5.760   8.567 -0.3021  0.4124 -0.8766
 3824TIP3    H135667   0.432   5.751   8.496 -0.0315 -1.9033 -0.3944
 3824TIP3    H235668   0.308   5.687   8.556  0.2781 -0.5741  1.7769
 3825TIP3   OH235669   1.317   3.307  11.210 -0.1818 -0.4954  0.0631
 3825TIP3    H135670   1.386   3.303  11.144  0.5764 -1.6100  0.8895
 3825TIP3    H235671   1.323   3.224  11.257 -0.8014  0.2020  1.4361
 3826TIP3   OH235672   0.222   2.600  11.585 -0.1092 -0.5233  0.5670
 3826TIP3    H135673   0.254   2.600  11.676 -0.8463 -2.1573  0.8679
 3826TIP3    H235674   0.170   2.680  11.578  1.4596  0.5768  0.9954
 3827TIP3   OH235675   6.707   3.726   8.845 -0.1831  0.0588 -0.7830
 3827TIP3    H135676   6.737   3.755   8.931 -0.2686 -1.5011 -0.2124
 3827TIP3    H235677   6.655   3.648   8.862 -1.1468  0.3709 -2.1542
 3828TIP3   OH235678   2.073   0.698   9.391  0.2485 -0.3128  0.0316
 3828TIP3    H135679   2.163   0.718   9.414 -0.5279  1.3209  2.0611
 3828TIP3    H235680   2.023   0.774   9.422 -1.6896 -0.5189 -2.2760
 3829TIP3   OH235681   4.288   1.267  10.289 -0.2628  0.1947  0.1935
 3829TIP3    H135682   4.316   1.250  10.379 -1.0167  0.9847  0.5916
 3829TIP3    H235683   4.193   1.266  10.293 -0.3735  2.9400 -0.0266
 3830TIP3   OH235684   1.807   5.433   9.927  0.2452  0.7889  0.1472
 3830TIP3    H135685   1.824   5.526   9.914 -0.6736  0.9005 -0.2765
 3830TIP3    H235686   1.786   5.425  10.020  1.4502  0.8159  0.4424
 3831TIP3   OH235687   3.460   2.929  10.683  0.2335 -0.0498  0.2909
 3831TIP3    H135688   3.379   2.882  10.663 -0.6640  1.7392 -0.4472
 3831TIP3    H235689   3.440   3.021  10.664  1.9506  0.6450  1.6006
 3832TIP3   OH235690   3.666   1.189  10.350  0.9905 -0.1289 -0.1723
 3832TIP3    H135691   3.751   1.233  10.358  0.9810  0.4164 -2.3854
 3832TIP3    H235692   3.687   1.098  10.332  1.1150  0.0103 -0.7390
 3833TIP3   OH235693   1.577   0.093   9.462  0.5284  0.0599 -0.0397
 3833TIP3    H135694   1.535   0.010   9.443 -0.7881  0.6400  0.2506
 3833TIP3    H235695   1.664   0.069   9.495  0.1966 -1.1889 -0.0328
 3834TIP3   OH235696   5.825   4.632   8.423 -0.0773 -0.3078 -0.3151
 3834TIP3    H135697   5.855   4.721   8.403 -1.5338  0.2241 -0.2283
 3834TIP3    H235698   5.732   4.632   8.399 -0.4498 -1.3832  1.0192
 3835TIP3   OH235699   3.980   6.595   9.737 -0.1449  0.1896  0.0415
 3835TIP3    H135700   3.923   6.658   9.781 -1.6127 -0.2924 -1.1131
 3835TIP3    H235701   3.983   6.520   9.796 -0.9825  0.0933 -0.0309
 3836TIP3   OH235702   4.380   0.742   8.831  0.4946 -0.0677  0.4240
 3836TIP3    H135703   4.405   0.788   8.750  0.2443 -1.4587 -0.4884
 3836TIP3    H235704   4.291   0.773   8.849  1.1672  1.5519  1.1799
 3837TIP3   OH235705   0.961   3.920   9.489 -0.5372  0.5716 -0.6708
 3837TIP3    H135706   0.902   3.898   9.562 -0.4986  1.0727 -0.4847
 3837TIP3    H235707   0.985   4.012   9.504 -0.9027  0.8285 -1.5703
 3838TIP3   OH235708   6.653   0.372  11.041  0.4181 -0.1865 -0.2648
 3838TIP3    H135709   6.743   0.353  11.017  0.6006  0.1508  0.1300
 3838TIP3    H235710   6.620   0.428  10.971  0.7761  0.3584  0.0003
 3839TIP3   OH235711   2.674   4.243  11.192  0.7143 -0.4888  0.0058
 3839TIP3    H135712   2.679   4.316  11.131  2.2410 -1.3438 -0.9436
 3839TIP3    H235713   2.686   4.165  11.138 -0.6556 -1.4520  1.0307
 3840TIP3   OH235714   0.481   6.372  10.596 -0.2348  0.4320  0.4351
 3840TIP3    H135715   0.500   6.405  10.508 -0.5160  0.4238  0.3703
 3840TIP3    H235716   0.565   6.338  10.628 -0.3277 -0.4544 -0.2137
 3841TIP3   OH235717   4.547   6.443  11.771  0.0096 -0.0498  0.4034
 3841TIP3    H135718   4.587   6.505  11.831 -2.0522  2.8809 -0.9975
 3841TIP3    H235719   4.455   6.438  11.798 -0.2930 -1.0522 -0.6726
 3842TIP3   OH235720   4.037   5.109  11.333  0.9214  0.3551 -0.2402
 3842TIP3    H135721   4.018   5.040  11.397  1.3209  1.6013  1.2751
 3842TIP3    H235722   3.952   5.131  11.296  0.2977  1.1677  1.5502
 3843TIP3   OH235723   2.612   4.053  12.132 -0.1878  0.4915 -0.3263
 3843TIP3    H135724   2.645   4.010  12.054 -1.6815  0.8859 -1.2244
 3843TIP3    H235725   2.658   4.137  12.135  2.9047 -1.1128  1.5608
 3844TIP3   OH235726   3.011   5.524   9.440 -0.1055  0.2370  0.6311
 3844TIP3    H135727   3.073   5.591   9.411  0.0273 -0.6403 -1.2457
 3844TIP3    H235728   2.978   5.485   9.359 -0.9110 -1.3176  1.6577
 3845TIP3   OH235729   0.484   0.830   9.569  0.1279 -0.5406  0.2406
 3845TIP3    H135730   0.538   0.809   9.492  0.1827  1.2852 -0.2629
 3845TIP3    H235731   0.548   0.846   9.639  0.1385 -0.7668  0.2832
 3846TIP3   OH235732   3.456   1.714  11.434  0.0705  0.4377 -0.1162
 3846TIP3    H135733   3.385   1.663  11.473  1.5748 -0.2497  1.9010
 3846TIP3    H235734   3.481   1.664  11.355 -1.6645  0.7343 -0.8972
 3847TIP3   OH235735   2.976   6.795   9.931 -0.0131 -0.3786 -0.0967
 3847TIP3    H135736   2.911   6.735   9.894  1.1187 -2.3890  1.0270
 3847TIP3    H235737   2.987   6.863   9.864 -2.2189 -0.7114 -0.9000
 3848TIP3   OH235738   6.190   6.479  11.903 -0.2501 -0.3378 -0.2498
 3848TIP3    H135739   6.114   6.464  11.846 -0.3722 -1.0974  0.1010
 3848TIP3    H235740   6.238   6.549  11.860 -1.7468  0.9644  0.1131
 3849TIP3   OH235741   1.071   0.091   9.014 -0.4165 -0.1551  0.1892
 3849TIP3    H135742   1.026   0.175   9.015  1.7046  1.0514  0.3247
 3849TIP3    H235743   1.115   0.088   8.929  1.8026  0.2192  1.2407
 3850TIP3   OH235744   0.166   3.836   9.321  0.4113  0.9197 -0.4234
 3850TIP3    H135745   0.105   3.843   9.247 -0.1973  1.0433  0.0814
 3850TIP3    H235746   0.180   3.926   9.349 -0.2489  0.7945  0.3217
 3851TIP3   OH235747   2.913   2.854  11.240 -0.2278 -0.7838 -0.6016
 3851TIP3    H135748   2.862   2.819  11.167 -1.5221 -0.5721  0.1701
 3851TIP3    H235749   2.865   2.932  11.268  0.8752 -0.2114 -0.2592
 3852TIP3   OH235750   4.723   3.403  10.055  0.2280 -0.1956  0.4370
 3852TIP3    H135751   4.639   3.403  10.101 -0.0314 -1.0791 -0.0105
 3852TIP3    H235752   4.768   3.481  10.087 -1.1872  0.8891 -0.0594
 3853TIP3   OH235753   3.201   2.574  10.255  0.4537 -0.2528 -0.1065
 3853TIP3    H135754   3.272   2.617  10.303 -1.7500  2.3380  1.1082
 3853TIP3    H235755   3.172   2.504  10.313  0.4285  0.2759  0.5314
 3854TIP3   OH235756   5.203   4.717  11.752  0.2153 -0.2318 -0.3571
 3854TIP3    H135757   5.215   4.781  11.681 -0.1626 -0.7787 -0.9255
 3854TIP3    H235758   5.142   4.652  11.716 -2.8262  1.2607  1.5857
 3855TIP3   OH235759   3.079   2.244   8.608  0.3191  0.2461  0.3204
 3855TIP3    H135760   3.008   2.261   8.547 -1.1127 -1.6425  1.3404
 3855TIP3    H235761   3.069   2.310   8.676 -1.5916 -0.9653  1.3145
 3856TIP3   OH235762   1.219   3.759   8.687 -0.4683 -0.5581  0.6620
 3856TIP3    H135763   1.181   3.752   8.774 -0.9505 -0.5259  0.4613
 3856TIP3    H235764   1.244   3.851   8.679 -0.0936 -0.6406  0.8994
 3857TIP3   OH235765   2.050   5.677  11.765  0.1206 -0.2864  0.1812
 3857TIP3    H135766   2.105   5.752  11.785 -0.7750  0.9468 -1.7302
 3857TIP3    H235767   2.095   5.632  11.693  0.0660 -0.9284  0.5345
 3858TIP3   OH235768   4.519   2.606   9.383  0.2878  0.5716  0.1704
 3858TIP3    H135769   4.479   2.681   9.340 -1.1117  1.0764  2.1658
 3858TIP3    H235770   4.575   2.644   9.451 -0.1165 -0.1496  0.9367
 3859TIP3   OH235771   2.550   2.503  10.030  0.1733  0.6271 -0.2552
 3859TIP3    H135772   2.570   2.456   9.949 -1.7209 -2.1262  0.7215
 3859TIP3    H235773   2.607   2.463  10.096 -2.5252 -1.5738  0.9045
 3860TIP3   OH235774   2.485   0.729  11.406 -0.3319  0.4682  0.1532
 3860TIP3    H135775   2.556   0.778  11.364 -1.1472  0.0075 -1.8845
 3860TIP3    H235776   2.529   0.667  11.463  0.8840  0.5853 -0.6188
 3861TIP3   OH235777   4.617   0.868  11.590 -0.3648  0.0888 -0.2936
 3861TIP3    H135778   4.661   0.946  11.624  1.6842 -0.0717 -2.3247
 3861TIP3    H235779   4.560   0.901  11.521 -2.4758  0.1218  1.3542
 3862TIP3   OH235780   5.293   6.317  10.142  0.1679  0.0357 -0.0806
 3862TIP3    H135781   5.388   6.309  10.153  0.0231 -0.5959  0.8507
 3862TIP3    H235782   5.267   6.233  10.105 -0.2509 -0.5399  1.4470
 3863TIP3   OH235783   1.816   4.444   9.953  0.3963  0.2776  0.4110
 3863TIP3    H135784   1.873   4.521   9.962 -1.7097  2.3105 -2.0203
 3863TIP3    H235785   1.815   4.426   9.859 -0.0236 -2.1221  0.8008
 3864TIP3   OH235786   6.667   2.604  11.663  0.2717 -0.1991  0.0966
 3864TIP3    H135787   6.711   2.532  11.616 -1.0272 -0.5874 -0.5712
 3864TIP3    H235788   6.718   2.614  11.744  0.4385 -1.9319  0.2459
 3865TIP3   OH235789   2.033   2.743   9.701  0.2419  0.1828  0.3984
 3865TIP3    H135790   2.068   2.797   9.772  0.5835 -0.4881  0.7487
 3865TIP3    H235791   1.979   2.677   9.746 -0.5586  0.5086 -0.0544
 3866TIP3   OH235792   5.570   1.855  10.548  0.3377  0.4301  0.0677
 3866TIP3    H135793   5.543   1.947  10.545  0.8562  0.5616 -1.6960
 3866TIP3    H235794   5.666   1.858  10.550  0.3542 -0.0701  0.1718
 3867TIP3   OH235795   5.542   1.131  10.442 -0.1511 -0.4108  0.5691
 3867TIP3    H135796   5.470   1.147  10.504 -0.4051  0.1918  0.1293
 3867TIP3    H235797   5.563   1.217  10.407 -0.1462 -0.7697 -0.3316
 3868TIP3   OH235798   5.573   3.072   9.207 -0.2359 -0.3390  0.0592
 3868TIP3    H135799   5.649   3.048   9.260 -0.2097 -2.5036 -0.8715
 3868TIP3    H235800   5.607   3.081   9.118 -0.6387  1.3073  0.0343
 3869TIP3   OH235801   0.609   4.566  10.660 -0.0277 -0.8218  0.5667
 3869TIP3    H135802   0.518   4.542  10.682 -1.5259  0.8337 -3.0416
 3869TIP3    H235803   0.609   4.661  10.661  1.6124 -0.8000  0.1234
 3870TIP3   OH235804   1.698   1.622  10.700 -0.1046  0.2816 -0.4910
 3870TIP3    H135805   1.636   1.551  10.688 -0.9977  0.7781  0.9123
 3870TIP3    H235806   1.668   1.667  10.779  1.8045  0.7979 -0.0001
 3871TIP3   OH235807   1.246   3.402  11.763 -0.4115 -0.2876 -0.2784
 3871TIP3    H135808   1.301   3.469  11.723 -0.2433 -1.0191 -1.3041
 3871TIP3    H235809   1.159   3.418  11.727 -0.4833 -0.2978 -0.1120
 3872TIP3   OH235810   2.466   5.512  10.229 -0.6257  0.3603  0.0060
 3872TIP3    H135811   2.410   5.447  10.271  0.0831  0.1397  0.6406
 3872TIP3    H235812   2.407   5.584  10.207 -1.1555  0.1500  0.6894
 3873TIP3   OH235813   2.627   1.078  10.524 -0.2975 -0.0787  0.5808
 3873TIP3    H135814   2.635   1.058  10.431  1.1610 -1.2342  0.9102
 3873TIP3    H235815   2.690   1.019  10.566 -2.9874 -1.7332  2.5835
 3874TIP3   OH235816   4.539   2.113  10.185 -0.1073 -0.2858  0.0902
 3874TIP3    H135817   4.618   2.101  10.238  0.0457  2.3806  0.5960
 3874TIP3    H235818   4.571   2.134  10.098 -0.0907  2.4610  0.6597
 3875TIP3   OH235819   3.126   1.300  11.912  0.4853 -0.4887 -0.0044
 3875TIP3    H135820   3.196   1.235  11.908  1.8755  0.9622  0.2115
 3875TIP3    H235821   3.051   1.251  11.946  1.6161 -1.8919  0.5686
 3876TIP3   OH235822   5.050   0.492   9.379 -0.1305 -0.2385 -0.2387
 3876TIP3    H135823   5.088   0.442   9.451  1.1751 -0.1066 -0.8171
 3876TIP3    H235824   5.033   0.427   9.310  2.1495  0.1270 -1.2326
 3877TIP3   OH235825   1.950   0.464  10.615 -0.1703  0.2383  0.1914
 3877TIP3    H135826   1.940   0.369  10.606 -0.6488  0.3451 -0.5288
 3877TIP3    H235827   1.952   0.496  10.525 -1.8835  1.0843  0.4120
 3878TIP3   OH235828   2.622   6.135  10.932  0.4344  0.7336  0.0800
 3878TIP3    H135829   2.614   6.046  10.897 -0.7382  0.7150  0.3546
 3878TIP3    H235830   2.690   6.128  10.998  0.3276  0.0207  0.1271
 3879TIP3   OH235831   1.257   5.969  11.601  0.4863  0.0366  0.4887
 3879TIP3    H135832   1.190   6.021  11.555 -0.0078  0.0310  1.1819
 3879TIP3    H235833   1.260   6.007  11.688  2.1069  0.6642  0.1829
 3880TIP3   OH235834   5.558   0.892   8.629  0.2667 -0.3313 -0.1976
 3880TIP3    H135835   5.634   0.880   8.572  2.0118  1.2386  1.6054
 3880TIP3    H235836   5.582   0.966   8.685 -1.7820 -1.0443  1.7952
 3881TIP3   OH235837   3.709   2.881  11.835 -0.0279  0.0806 -0.0885
 3881TIP3    H135838   3.635   2.854  11.889  0.8458 -0.5826  0.8144
 3881TIP3    H235839   3.679   2.960  11.791 -1.6052 -0.6850 -0.4714
 3882TIP3   OH235840   2.778   1.054   8.439  0.7860 -0.7285 -0.0854
 3882TIP3    H135841   2.727   1.123   8.482  0.6349 -1.5606  1.1111
 3882TIP3    H235842   2.713   1.004   8.389  0.8180 -0.3275 -0.5372
 3883TIP3   OH235843   4.503   2.266   9.930  0.3454 -0.3828 -0.3512
 3883TIP3    H135844   4.418   2.305   9.949  0.4141  0.3388 -1.4394
 3883TIP3    H235845   4.484   2.191   9.874  0.2692 -1.5911  1.2101
 3884TIP3   OH235846   5.172   0.300  11.307 -0.5685 -0.5870  0.0453
 3884TIP3    H135847   5.136   0.264  11.226 -0.5030 -0.5622  0.0046
 3884TIP3    H235848   5.251   0.346  11.280 -1.3950  0.7968 -0.1135
 3885TIP3   OH235849   4.043   4.489  11.000  0.1905 -0.4794 -0.2783
 3885TIP3    H135850   3.972   4.509  11.062 -0.4844  0.7158 -1.3699
 3885TIP3    H235851   4.123   4.511  11.048 -0.3951  2.4227 -0.4258
 3886TIP3   OH235852   0.574   6.114  11.168  0.2773  0.1987 -0.0379
 3886TIP3    H135853   0.579   6.033  11.219  0.5690  0.6019  0.5910
 3886TIP3    H235854   0.548   6.086  11.081 -3.0850 -0.2635  0.9713
 3887TIP3   OH235855   3.628   0.022  10.590 -0.2332 -0.5160 -0.0630
 3887TIP3    H135856   3.708   0.013  10.641  0.4263  0.3505 -0.8962
 3887TIP3    H235857   3.595   0.109  10.614 -0.8548 -0.8178  0.1770
 3888TIP3   OH235858   1.851   1.927   7.904 -0.2052  0.0898  0.3468
 3888TIP3    H135859   1.852   2.023   7.911  0.5577  0.4295 -2.7999
 3888TIP3    H235860   1.936   1.900   7.939  0.2923  0.7739 -0.2871
 3889TIP3   OH235861   1.589   5.818   9.960  0.3497  0.4591 -0.3726
 3889TIP3    H135862   1.639   5.900   9.960  1.3812 -0.1344 -1.3660
 3889TIP3    H235863   1.499   5.845   9.940  0.6969  1.3389 -0.8183
 3890TIP3   OH235864   3.922   0.858   9.760 -0.3408  0.4196 -0.1741
 3890TIP3    H135865   3.935   0.857   9.665  0.1546  0.5391 -0.1115
 3890TIP3    H235866   4.005   0.889   9.795 -0.2143 -0.4535  0.3418
 3891TIP3   OH235867   5.593   4.554  11.652 -0.4333  0.5512 -0.4662
 3891TIP3    H135868   5.576   4.599  11.570  0.1324 -1.0710 -1.5080
 3891TIP3    H235869   5.526   4.486  11.657 -1.3026  1.4338  1.1124
 3892TIP3   OH235870   1.513   6.661  11.645  0.1431 -0.0392 -0.1891
 3892TIP3    H135871   1.427   6.674  11.606 -1.4870 -3.0498  1.9574
 3892TIP3    H235872   1.540   6.747  11.675 -3.4851  0.6307  1.5700
 3893TIP3   OH235873   1.582   2.076   7.794  0.1460  0.4409 -0.5012
 3893TIP3    H135874   1.665   2.091   7.840 -0.2345  0.3800  0.2291
 3893TIP3    H235875   1.593   2.120   7.710  0.1972  2.2135  0.3692
 3894TIP3   OH235876   5.563   1.000   9.143 -0.3142  0.8373  0.1711
 3894TIP3    H135877   5.646   0.953   9.158  1.2012  2.7315 -1.6138
 3894TIP3    H235878   5.497   0.931   9.139  1.1292 -0.7396  1.7905
 3895TIP3   OH235879   3.870   0.311  11.546  0.1478  0.3200 -0.7697
 3895TIP3    H135880   3.793   0.348  11.588  0.9182  1.3251 -0.2025
 3895TIP3    H235881   3.888   0.231  11.596  0.7737  1.2478  0.5484
 3896TIP3   OH235882   1.207   6.306   9.501  0.2421  0.6961  0.1275
 3896TIP3    H135883   1.124   6.353   9.502  0.0182  0.3007  0.8930
 3896TIP3    H235884   1.271   6.369   9.534  0.0343  0.6475  0.6403
 3897TIP3   OH235885   5.597   6.324  10.180 -0.1436 -0.1333 -0.0552
 3897TIP3    H135886   5.584   6.381  10.256 -1.1167  0.7408 -0.8504
 3897TIP3    H235887   5.648   6.251  10.214  0.1135  0.6215  1.2637
 3898TIP3   OH235888   0.373   2.604  11.139 -0.4769 -0.0811 -0.5969
 3898TIP3    H135889   0.278   2.603  11.133 -0.4976  2.5659 -1.8792
 3898TIP3    H235890   0.403   2.601  11.048  0.7431 -1.6119 -0.2004
 3899TIP3   OH235891   1.831   0.913   8.962 -0.2352 -0.1362 -0.1957
 3899TIP3    H135892   1.805   0.886   8.874  1.1891  0.3388 -0.7849
 3899TIP3    H235893   1.875   0.837   8.998  1.4029  0.4641 -0.8558
 3900TIP3   OH235894   0.111   5.641   9.024  0.4971  0.6193 -0.5408
 3900TIP3    H135895   0.104   5.642   8.928 -0.2987 -0.4319 -0.4995
 3900TIP3    H235896   0.021   5.630   9.055  0.9109 -0.5090  0.2960
 3901TIP3   OH235897   1.556   3.474   9.921 -0.3073  0.8426  0.1297
 3901TIP3    H135898   1.616   3.460   9.848 -2.2125  1.3180 -1.6107
 3901TIP3    H235899   1.489   3.533   9.887 -1.9001  0.1662  1.8912
 3902TIP3   OH235900   1.173   4.061  10.932 -1.0028  0.0005  0.0719
 3902TIP3    H135901   1.111   3.995  10.902 -0.4612 -0.3162 -0.3839
 3902TIP3    H235902   1.218   4.089  10.852 -0.3637  0.0138  0.4301
 3903TIP3   OH235903   3.624   3.804   8.938  0.4582 -0.5072  0.8846
 3903TIP3    H135904   3.588   3.781   8.852  1.1005  1.4932  0.0171
 3903TIP3    H235905   3.612   3.725   8.991 -0.7947 -1.4905 -0.7606
 3904TIP3   OH235906   6.326   5.019  10.883  0.4099 -0.0647 -0.0253
 3904TIP3    H135907   6.361   5.041  10.797  0.9364  1.0025  0.4372
 3904TIP3    H235908   6.266   4.946  10.867  2.4399 -1.6173 -0.9074
 3905TIP3   OH235909   1.403   0.736   9.791  1.0299  0.3761  0.2934
 3905TIP3    H135910   1.432   0.649   9.765  1.6835  0.8052 -0.4645
 3905TIP3    H235911   1.361   0.723   9.876 -0.8772 -1.0184 -0.7939
 3906TIP3   OH235912   6.652   1.889   8.019 -0.0858  0.3975  0.2942
 3906TIP3    H135913   6.709   1.848   7.954  0.4500 -0.5748  1.3552
 3906TIP3    H235914   6.567   1.895   7.975  0.6978  1.5097 -1.1611
 3907TIP3   OH235915   3.860   1.175   8.637 -0.1112  0.5563  0.2847
 3907TIP3    H135916   3.879   1.105   8.698  0.2729 -0.9419 -1.4666
 3907TIP3    H235917   3.772   1.205   8.660 -1.0206 -1.7249 -0.0102
 3908TIP3   OH235918   1.287   0.714  10.066  0.2974 -0.6079  0.6338
 3908TIP3    H135919   1.215   0.774  10.089 -0.7634 -0.4493 -2.5678
 3908TIP3    H235920   1.356   0.734  10.130 -0.1513  3.7696  0.0975
 3909TIP3   OH235921   4.195   3.230   9.533 -0.2150 -0.5771  0.2981
 3909TIP3    H135922   4.246   3.226   9.452 -0.5787 -3.4059  0.1000
 3909TIP3    H235923   4.225   3.309   9.576  1.6234 -0.1603 -1.5566
 3910TIP3   OH235924   4.409   1.745  10.134 -0.8228  0.4723 -0.3400
 3910TIP3    H135925   4.334   1.790  10.094 -1.2139  1.0377  0.9714
 3910TIP3    H235926   4.451   1.811  10.188 -0.7030 -0.4143  0.6968
 3911TIP3   OH235927   3.851   3.590  10.330  0.2321 -0.3002 -0.2157
 3911TIP3    H135928   3.778   3.651  10.317  1.3980  1.3662  0.6620
 3911TIP3    H235929   3.811   3.512  10.369 -1.4561 -0.5635 -2.2874
 3912TIP3   OH235930   0.593   0.884   8.539  0.3622  0.1350 -0.6329
 3912TIP3    H135931   0.642   0.861   8.460  3.1505  0.5216  0.8496
 3912TIP3    H235932   0.577   0.978   8.531  2.2132  0.5556 -0.0497
 3913TIP3   OH235933   2.801   5.288   9.912 -0.5274  0.0405 -0.1739
 3913TIP3    H135934   2.838   5.333   9.836  0.1236 -0.5088 -0.1870
 3913TIP3    H235935   2.708   5.312   9.911 -0.3159  0.8635 -0.5456
 3914TIP3   OH235936   5.279   2.704  10.566 -0.0470  0.1263  0.5763
 3914TIP3    H135937   5.370   2.676  10.562  0.3820  1.3930  0.9782
 3914TIP3    H235938   5.229   2.623  10.579  1.0019 -0.5906  0.2570
 3915TIP3   OH235939   6.297   2.027   8.876  0.0816  0.0952 -0.0107
 3915TIP3    H135940   6.211   2.068   8.886 -0.2935 -1.0781  2.3526
 3915TIP3    H235941   6.280   1.950   8.821 -0.4954 -0.3583  0.7792
 3916TIP3   OH235942   1.903   1.879   8.517  0.7174  0.0727 -0.1739
 3916TIP3    H135943   1.985   1.828   8.515 -0.6617 -2.2559 -1.1378
 3916TIP3    H235944   1.893   1.911   8.427  0.4765  0.2251 -0.0916
 3917TIP3   OH235945   6.593   5.656  10.747  0.1016 -0.2336  0.3948
 3917TIP3    H135946   6.556   5.582  10.698 -0.4476  0.4532 -0.2611
 3917TIP3    H235947   6.649   5.701  10.685 -1.0115  0.9544  0.2017
 3918TIP3   OH235948   2.736   1.897  11.277  0.3527 -0.0011 -0.0274
 3918TIP3    H135949   2.671   1.827  11.273  3.1354 -2.8013 -0.1498
 3918TIP3    H235950   2.763   1.909  11.186  0.6145  0.5104  0.1151
 3919TIP3   OH235951   5.083   2.453  10.408 -0.5298 -0.3750 -0.1117
 3919TIP3    H135952   5.068   2.427  10.317 -2.3256 -0.2209  0.1024
 3919TIP3    H235953   4.995   2.455  10.447 -0.3304  3.6803  0.5113
 3920TIP3   OH235954   1.092   2.270  10.660 -0.5654 -0.2086 -0.3619
 3920TIP3    H135955   1.021   2.307  10.608  1.0788  0.0722 -2.5292
 3920TIP3    H235956   1.137   2.210  10.601 -0.6660 -2.6266  1.8135
 3921TIP3   OH235957   5.754   4.774   9.125 -0.1566 -0.5219 -0.0252
 3921TIP3    H135958   5.706   4.855   9.106 -0.2242 -0.9162 -1.6584
 3921TIP3    H235959   5.755   4.727   9.042  0.3979 -1.9381  0.7580
 3922TIP3   OH235960   2.286   2.192  10.091 -0.2684 -0.5084  0.7139
 3922TIP3    H135961   2.208   2.238  10.122 -0.0862  0.7634 -0.6415
 3922TIP3    H235962   2.359   2.247  10.119  0.1898 -1.6970  1.9777
 3923TIP3   OH235963   0.561   2.270   8.978 -0.8085 -0.3778  0.8515
 3923TIP3    H135964   0.560   2.256   8.884  0.6382  0.8444  0.6079
 3923TIP3    H235965   0.599   2.190   9.014 -0.2834 -0.3853  0.2897
 3924TIP3   OH235966   4.597   1.397  11.655 -0.1258  0.0827  0.1354
 3924TIP3    H135967   4.533   1.418  11.723 -0.2149 -0.1032  0.1095
 3924TIP3    H235968   4.565   1.442  11.576 -0.8266 -0.9076 -0.1598
 3925TIP3   OH235969   2.078   2.363  10.109  0.1334 -0.1463 -0.7909
 3925TIP3    H135970   2.128   2.428  10.059  1.4169  0.3636  1.0493
 3925TIP3    H235971   1.992   2.402  10.120  1.0685  1.5993  0.8225
 3926TIP3   OH235972   6.044   0.974  10.548 -0.0982  0.2397  0.4142
 3926TIP3    H135973   5.976   0.919  10.585 -0.0537 -0.4195 -0.4486
 3926TIP3    H235974   6.103   0.913  10.503  0.1783  0.9473 -0.2122
 3927TIP3   OH235975   3.611   3.595   9.148 -0.0389 -0.1709  0.5679
 3927TIP3    H135976   3.591   3.517   9.199  0.3008 -1.0304 -0.5652
 3927TIP3    H235977   3.706   3.606   9.156  0.5144 -1.9877 -2.0501
 3928TIP3   OH235978   0.881   0.311  10.642 -0.8723 -0.2511  0.6445
 3928TIP3    H135979   0.859   0.372  10.572 -1.0632 -1.3317 -0.2597
 3928TIP3    H235980   0.797   0.275  10.671 -0.6253 -1.8484 -0.4842
 3929TIP3   OH235981   3.838   3.150  10.175 -0.3755 -0.5126 -0.2924
 3929TIP3    H135982   3.787   3.152  10.256  1.2211 -0.4074  0.7565
 3929TIP3    H235983   3.778   3.184  10.109 -1.4333  0.3139  1.0211
 3930TIP3   OH235984   0.619   1.808   8.333  0.3298  0.5484  0.2080
 3930TIP3    H135985   0.646   1.857   8.256  1.3856  0.0510  0.2453
 3930TIP3    H235986   0.541   1.854   8.365 -0.2479  0.6255 -1.2655
 3931TIP3   OH235987   6.061   6.786  10.384 -0.4227 -0.2898  0.4219
 3931TIP3    H135988   6.154   6.775  10.402  0.0380  0.2847 -1.4147
 3931TIP3    H235989   6.029   6.840  10.457  0.2247 -2.0013  2.0817
 3932TIP3   OH235990   0.723   1.594  10.914 -0.0168 -0.0645 -0.3768
 3932TIP3    H135991   0.680   1.516  10.950 -1.8933 -0.1212 -2.5341
 3932TIP3    H235992   0.721   1.657  10.986 -0.0712 -1.4026  0.8517
 3933TIP3   OH235993   2.618   5.346  10.616 -0.3865  0.0365 -0.3530
 3933TIP3    H135994   2.663   5.397  10.549 -2.9163  1.6419 -0.9598
 3933TIP3    H235995   2.674   5.269  10.630  0.9091  0.3419 -3.2703
 3934TIP3   OH235996   4.890   2.911   8.995 -0.3022  0.0439  0.1928
 3934TIP3    H135997   4.943   2.991   8.992 -0.0606 -0.1124  0.2337
 3934TIP3    H235998   4.880   2.885   8.903  1.7710 -1.2735  0.2597
 3935TIP3   OH235999   5.541   1.254  11.504 -0.1523  0.1311 -0.4936
 3935TIP3    H136000   5.445   1.252  11.495 -0.2475  0.7927  0.2401
 3935TIP3    H236001   5.556   1.306  11.583  0.7364 -1.5460  0.4982
 3936TIP3   OH236002   1.509   1.338  10.990  0.1819 -0.3370  0.1614
 3936TIP3    H136003   1.564   1.265  10.961  0.3499  0.2465 -1.0377
 3936TIP3    H236004   1.420   1.310  10.968  0.4028  0.6166 -2.1779
 3937TIP3   OH236005   0.212   4.150   9.385 -0.6636 -0.2690  0.1865
 3937TIP3    H136006   0.137   4.208   9.398 -0.3046  0.1993  0.2058
 3937TIP3    H236007   0.273   4.173   9.454 -0.3312 -0.3684 -0.0715
 3938TIP3   OH236008   5.146   3.366  10.523  0.6816  0.0597  0.1989
 3938TIP3    H136009   5.073   3.358  10.462 -0.1389  2.2381  0.7890
 3938TIP3    H236010   5.224   3.348  10.470 -0.0565  1.0408 -1.2797
 3939TIP3   OH236011   2.745   3.737   9.733  0.0446  0.0927 -0.6482
 3939TIP3    H136012   2.694   3.770   9.807  1.0637 -1.3115  0.7570
 3939TIP3    H236013   2.836   3.744   9.762  0.4209 -1.1857 -1.4411
 3940TIP3   OH236014   6.295   1.817   8.277 -0.1883  0.0645  0.0908
 3940TIP3    H136015   6.340   1.776   8.203 -1.5995 -1.4925  0.0330
 3940TIP3    H236016   6.256   1.897   8.241  0.7311  0.3166 -0.3579
 3941TIP3   OH236017   0.283   0.384   9.670 -0.2114  0.2109  0.1311
 3941TIP3    H136018   0.329   0.392   9.754 -2.7815 -1.4603  1.8563
 3941TIP3    H236019   0.292   0.291   9.647  1.4761  0.8558 -2.1911
 3942TIP3   OH236020   6.495   4.153   8.912 -0.0274 -0.3469  0.6617
 3942TIP3    H136021   6.529   4.182   8.827  1.4503 -0.7718  1.0713
 3942TIP3    H236022   6.419   4.100   8.890  0.3858 -0.5271 -0.4235
 3943TIP3   OH236023   5.783   5.646  10.451  0.4177  0.0765 -0.7195
 3943TIP3    H136024   5.729   5.677  10.524 -0.5051  0.9552 -1.7365
 3943TIP3    H236025   5.810   5.558  10.477  2.3118  1.3008  1.8517
 3944TIP3   OH236026   1.377   3.472   8.732  0.1288 -0.7036  0.0354
 3944TIP3    H136027   1.302   3.454   8.676  1.8536 -0.3842 -2.5520
 3944TIP3    H236028   1.452   3.472   8.673  1.7691  2.7517  1.8081
 3945TIP3   OH236029   1.228   3.760   9.559  0.1452  0.0044  0.1520
 3945TIP3    H136030   1.192   3.813   9.631 -0.0853 -0.0842  0.1013
 3945TIP3    H236031   1.271   3.823   9.502 -0.2689  0.1556  0.0088
 3946TIP3   OH236032   5.667   4.157  10.115  0.2533  0.6383 -0.1201
 3946TIP3    H136033   5.631   4.230  10.166 -0.5293 -0.7449  1.4137
 3946TIP3    H236034   5.592   4.121  10.068  0.4505  0.2679 -0.1565
 3947TIP3   OH236035   3.522   0.724   8.973  0.0148  0.1366 -0.1104
 3947TIP3    H136036   3.512   0.784   8.899  0.1695  1.7410  1.1230
 3947TIP3    H236037   3.604   0.677   8.955  1.0689  1.8765 -0.0638
 3948TIP3   OH236038   5.616   4.215   8.564 -0.1933 -0.0105 -0.7435
 3948TIP3    H136039   5.563   4.139   8.540  0.3803 -0.7835  0.3431
 3948TIP3    H236040   5.672   4.230   8.488  2.2996 -3.0366  0.2967
 3949TIP3   OH236041   4.871   4.692  10.433  0.4006 -0.1094 -0.3488
 3949TIP3    H136042   4.927   4.669  10.507 -0.2344  2.1590  0.9398
 3949TIP3    H236043   4.793   4.638  10.444  0.8572 -0.7391 -0.1437
 3950TIP3   OH236044   4.843   5.728  10.241 -0.3998  0.3345 -0.3103
 3950TIP3    H136045   4.882   5.780  10.311 -1.4630 -0.3355  0.8437
 3950TIP3    H236046   4.915   5.677  10.205  0.0949  0.3718  0.6028
 3951TIP3   OH236047   1.274   1.640   9.718 -0.6734  0.2098  0.6625
 3951TIP3    H136048   1.240   1.551   9.725  0.9667 -0.5160 -0.2173
 3951TIP3    H236049   1.248   1.668   9.630  0.0155  0.0683  0.4100
 3952TIP3   OH236050   4.319   4.207  10.708 -0.2559 -0.2155  0.1734
 3952TIP3    H136051   4.294   4.114  10.707  1.3045 -0.6695 -1.1469
 3952TIP3    H236052   4.252   4.249  10.762 -1.5727 -1.9375 -0.0216
 3953TIP3   OH236053   4.556   0.546  10.886 -0.0587  0.1024 -0.2001
 3953TIP3    H136054   4.642   0.575  10.856  0.6739 -0.1882  1.5176
 3953TIP3    H236055   4.536   0.604  10.961  0.1857 -1.9477  1.5422
 3954TIP3   OH236056   5.029   3.846   9.251  0.2173  0.3933 -0.4141
 3954TIP3    H136057   5.084   3.900   9.194  1.5440 -0.4354  0.0175
 3954TIP3    H236058   4.940   3.861   9.221  0.6280  2.1535 -0.8467
 3955TIP3   OH236059   6.577   5.165   9.718  0.4623 -0.1079 -0.0117
 3955TIP3    H136060   6.503   5.184   9.775  0.7092 -0.5479  0.4613
 3955TIP3    H236061   6.542   5.109   9.649  0.0665  0.7762 -0.5529
 3956TIP3   OH236062   0.094   3.343  10.427 -0.1474 -0.9362 -0.4494
 3956TIP3    H136063   0.121   3.338  10.335  1.3517 -4.4076  0.0134
 3956TIP3    H236064   0.038   3.421  10.432  1.4271  0.5858 -3.7931
 3957TIP3   OH236065   5.168   0.058  11.490 -0.4344 -0.0552 -0.4324
 3957TIP3    H136066   5.185   0.149  11.468 -0.7477  0.1260  0.0553
 3957TIP3    H236067   5.124   0.061  11.575  0.0804 -0.6940 -0.1336
 3958TIP3   OH236068   1.389   0.228   9.162 -0.0793 -0.6882 -0.5204
 3958TIP3    H136069   1.477   0.262   9.170 -0.8436  1.5549 -0.9665
 3958TIP3    H236070   1.371   0.228   9.068 -0.5720 -1.0883 -0.4325
 3959TIP3   OH236071   0.441   4.210   8.751  0.1165 -0.7328 -0.3536
 3959TIP3    H136072   0.452   4.165   8.835  0.6370  0.9447  0.5183
 3959TIP3    H236073   0.426   4.140   8.688  2.3273 -2.2554  0.6964
 3960TIP3   OH236074   5.637   5.523  11.806  0.2557 -0.6274 -0.2620
 3960TIP3    H136075   5.678   5.537  11.891 -0.0834 -2.3538  0.2258
 3960TIP3    H236076   5.613   5.610  11.776 -2.1533 -0.0952  2.7029
 3961TIP3   OH236077   3.696   1.725  11.662 -0.4678  0.2979  0.1091
 3961TIP3    H136078   3.627   1.669  11.697 -1.2386  0.7668 -0.6254
 3961TIP3    H236079   3.661   1.758  11.579  0.9565 -0.0926 -0.6903
 3962TIP3   OH236080   4.851   4.232  10.711  0.1487 -0.0962  0.0679
 3962TIP3    H136081   4.938   4.257  10.741  0.0085 -0.1473  0.5255
 3962TIP3    H236082   4.859   4.225  10.615  1.6214 -3.8501  0.3249
 3963TIP3   OH236083   5.537   3.137   8.730  0.4152 -0.6562 -0.3404
 3963TIP3    H136084   5.484   3.185   8.666  0.3863 -2.0322 -1.4001
 3963TIP3    H236085   5.584   3.072   8.678 -0.5781 -2.6947  1.1398
 3964TIP3   OH236086   1.495   4.380  10.748  0.4392 -0.4944  0.4215
 3964TIP3    H136087   1.440   4.335  10.685  0.0679 -0.4210  0.6902
 3964TIP3    H236088   1.560   4.315  10.774 -0.0969 -0.8866  0.8113
 3965TIP3   OH236089   1.808   6.373  10.441 -0.2269  0.6218 -0.3167
 3965TIP3    H136090   1.811   6.339  10.530  0.1890 -0.0688 -0.5896
 3965TIP3    H236091   1.861   6.312  10.389 -0.6904  0.8531 -1.0917
 3966TIP3   OH236092   5.353   1.440  10.799  0.6374  0.3891 -0.2056
 3966TIP3    H136093   5.328   1.473  10.886 -0.0806 -0.3243 -0.1249
 3966TIP3    H236094   5.427   1.494  10.773  2.4339 -0.8747  1.8793
 3967TIP3   OH236095   5.498   2.651  10.937  0.6465 -0.2029 -0.5686
 3967TIP3    H136096   5.526   2.602  11.014  1.5608 -0.2300 -0.9086
 3967TIP3    H236097   5.402   2.640  10.935  0.7854 -1.7507 -0.4782
 3968TIP3   OH236098   2.332   1.861  11.546  0.6493  0.5815 -0.6430
 3968TIP3    H136099   2.237   1.872  11.537  0.1975 -2.3881 -0.6997
 3968TIP3    H236100   2.353   1.903  11.629 -1.1718 -0.5254  0.4671
 3969TIP3   OH236101   2.679   4.172  10.159  0.2115  0.6448 -0.2973
 3969TIP3    H136102   2.763   4.190  10.201 -0.3179  1.5603  0.4170
 3969TIP3    H236103   2.673   4.236  10.089  0.3089  0.2722 -0.6504
 3970TIP3   OH236104   3.011   1.545   9.967  0.0404 -0.6721  0.1615
 3970TIP3    H136105   2.946   1.475   9.966  0.7484 -1.3592  0.3779
 3970TIP3    H236106   2.966   1.621   9.931 -0.3517 -1.5936 -1.3679
 3971TIP3   OH236107   2.644   2.394  11.792 -0.4091 -0.3657  0.3873
 3971TIP3    H136108   2.608   2.318  11.838 -0.2257 -1.4984 -1.2572
 3971TIP3    H236109   2.738   2.377  11.786 -0.5373 -0.6956 -1.1366
 3972TIP3   OH236110   3.728   6.586  11.085  0.1573 -0.4705 -0.0906
 3972TIP3    H136111   3.637   6.603  11.059  0.6005  0.0795 -1.3762
 3972TIP3    H236112   3.736   6.491  11.084 -0.6857 -0.5682  1.0968
 3973TIP3   OH236113   0.800   2.586   8.634 -0.0679 -0.5246 -0.8366
 3973TIP3    H136114   0.849   2.619   8.559  1.7105 -0.1139  0.4301
 3973TIP3    H236115   0.823   2.494   8.640  0.6356 -0.3209 -0.2120
 3974TIP3   OH236116   5.738   4.583   8.684  0.7482  0.8073  0.7638
 3974TIP3    H136117   5.695   4.666   8.663 -0.7442  0.2637  1.5279
 3974TIP3    H236118   5.808   4.575   8.619 -0.9789  1.2309 -1.2700
 3975TIP3   OH236119   2.182   3.633  11.806 -0.4180 -0.0762 -0.3235
 3975TIP3    H136120   2.263   3.593  11.773 -0.0455 -0.2822  0.8190
 3975TIP3    H236121   2.190   3.630  11.901 -2.6041 -1.8966 -0.1031
 3976TIP3   OH236122   3.703   4.298  10.413  0.1962 -0.1918  0.6068
 3976TIP3    H136123   3.739   4.385  10.432 -0.8708  0.5457 -0.5681
 3976TIP3    H236124   3.681   4.262  10.499 -2.2205  1.9999  1.0304
 3977TIP3   OH236125   5.347   3.749   9.724  0.3049  0.1710  0.2775
 3977TIP3    H136126   5.253   3.759   9.741  0.1287  1.7726 -1.3836
 3977TIP3    H236127   5.361   3.654   9.723 -1.5346 -0.1336 -0.5642
 3978TIP3   OH236128   4.845   2.959  11.375 -0.1103 -0.3968 -0.8119
 3978TIP3    H136129   4.790   2.889  11.411  0.5960 -0.5425  0.0299
 3978TIP3    H236130   4.858   3.019  11.449 -1.4225  1.1076 -1.7449
 3979TIP3   OH236131   0.836   4.972  11.189 -0.3504 -0.1933 -0.3769
 3979TIP3    H136132   0.861   5.064  11.197  0.3606 -0.2699 -1.4515
 3979TIP3    H236133   0.896   4.936  11.123 -2.0174 -0.8858 -1.5981
 3980TIP3   OH236134   1.901   4.899  11.164 -0.1895 -0.2482 -0.2441
 3980TIP3    H136135   1.922   4.850  11.085 -1.8259 -0.8377 -0.3481
 3980TIP3    H236136   1.865   4.982  11.133  2.0041  0.8535 -0.0668
 3981TIP3   OH236137   6.114   4.625   9.479 -0.1024 -0.3902  0.2892
 3981TIP3    H136138   6.071   4.602   9.396 -0.2441  1.8642 -0.3332
 3981TIP3    H236139   6.056   4.589   9.547 -0.9025 -0.7915 -0.5772
 3982TIP3   OH236140   1.190   3.283  10.268 -0.0624  0.3020 -0.0064
 3982TIP3    H136141   1.220   3.309  10.181  1.1482  2.0782  0.8849
 3982TIP3    H236142   1.118   3.343  10.288 -0.0344  0.2051  0.3961
 3983TIP3   OH236143   3.194   4.593  10.648  0.3342 -0.1109  0.2596
 3983TIP3    H136144   3.280   4.598  10.689 -1.1702 -0.8830  3.8702
 3983TIP3    H236145   3.196   4.510  10.599  1.3408 -0.5465  0.9992
 3984TIP3   OH236146   2.499   0.500  10.665 -0.0644  0.3310  0.3114
 3984TIP3    H136147   2.431   0.542  10.612 -0.7582 -0.7305  0.3435
 3984TIP3    H236148   2.491   0.542  10.751  0.9727  1.9576 -0.3346
 3985TIP3   OH236149   3.354   4.389   9.838  0.5631  0.1588  0.3591
 3985TIP3    H136150   3.326   4.379   9.747 -0.2841 -0.9566  0.7303
 3985TIP3    H236151   3.322   4.311   9.882  1.9520  0.1367  1.3965
 3986TIP3   OH236152   5.575   2.582  11.205 -0.0530 -0.2440 -0.4415
 3986TIP3    H136153   5.658   2.542  11.178 -0.6958 -0.7366 -1.7599
 3986TIP3    H236154   5.594   2.619  11.292  1.4752 -0.5418 -0.6106
 3987TIP3   OH236155   2.354   1.316   9.332  0.3688  0.2130  0.4376
 3987TIP3    H136156   2.314   1.360   9.257 -0.1281  1.2745  1.2879
 3987TIP3    H236157   2.345   1.223   9.313  1.2242  0.4370 -1.3094
 3988TIP3   OH236158   0.153   0.934   9.195  0.5910  0.1796  0.2894
 3988TIP3    H136159   0.227   0.968   9.143  0.5692  0.0380  0.1657
 3988TIP3    H236160   0.194   0.901   9.275  1.0541 -2.5742 -0.9910
 3989TIP3   OH236161   4.030   2.235  10.550  0.0728  0.4437  0.7445
 3989TIP3    H136162   4.038   2.140  10.536 -0.3560  0.7049 -1.7356
 3989TIP3    H236163   4.085   2.253  10.626  1.4221 -1.5760  0.3213
 3990TIP3   OH236164   5.402   1.353  10.157  0.4486 -0.2822 -0.0486
 3990TIP3    H136165   5.464   1.416  10.194  1.0919 -2.1157  2.2371
 3990TIP3    H236166   5.350   1.324  10.233  0.0513 -2.3441 -1.0446
 3991TIP3   OH236167   5.511   3.328  11.237  0.1783 -0.4080 -0.6137
 3991TIP3    H136168   5.551   3.411  11.211  0.8904 -0.3194  0.7059
 3991TIP3    H236169   5.584   3.268  11.248 -0.3837 -1.4867 -2.3503
 3992TIP3   OH236170   4.184   4.793  11.026  0.0346  0.7208 -0.4946
 3992TIP3    H136171   4.268   4.839  11.016  1.0431 -0.4389  1.9092
 3992TIP3    H236172   4.208   4.707  11.061 -2.0850 -0.1602 -1.0689
 3993TIP3   OH236173   0.368   4.761   9.383 -0.8374  0.1418 -0.1589
 3993TIP3    H136174   0.317   4.691   9.341  1.3428 -1.1980 -0.7722
 3993TIP3    H236175   0.333   4.766   9.472 -1.0563 -1.8085 -0.0750
 3994TIP3   OH236176   0.926   1.255  10.634 -0.2823  0.3895 -0.6307
 3994TIP3    H136177   0.865   1.314  10.677 -1.7344 -0.4803 -1.4306
 3994TIP3    H236178   0.876   1.215  10.563  1.4264  0.1967 -1.8136
 3995TIP3   OH236179   0.022   1.127   8.888  0.3068  0.7522  0.8980
 3995TIP3    H136180   0.071   1.133   8.970  0.8585  0.6143  0.5783
 3995TIP3    H236181  -0.062   1.088   8.914  0.5363  0.5680  1.3720
 3996TIP3   OH236182   2.428   0.193   9.487  0.5275  0.3040 -0.6610
 3996TIP3    H136183   2.415   0.103   9.519  0.4357  0.6104  0.1890
 3996TIP3    H236184   2.513   0.218   9.522  0.0148  0.9759  0.1417
 3997TIP3   OH236185   4.599   2.627  10.962  0.3256  0.7839 -0.0409
 3997TIP3    H136186   4.546   2.558  10.924 -0.5910  0.4714  1.7266
 3997TIP3    H236187   4.663   2.648  10.894 -0.4122 -0.6374 -1.2244
 3998TIP3   OH236188   6.730   2.401   9.278  0.0394 -0.2707 -0.0823
 3998TIP3    H136189   6.647   2.381   9.235 -0.5290 -1.5423  1.5051
 3998TIP3    H236190   6.767   2.316   9.302 -0.0021  0.3313  2.4670
 3999TIP3   OH236191   2.697   1.082  11.852  0.0255 -0.0909 -0.0156
 3999TIP3    H136192   2.607   1.096  11.823  0.0917  0.2913 -0.0506
 3999TIP3    H236193   2.750   1.132  11.790  0.3442 -1.1470 -0.6202
 4000TIP3   OH236194   4.810   5.643   9.541  0.0441  0.5597 -0.1994
 4000TIP3    H136195   4.721   5.628   9.508 -0.1900  0.0623  0.6147
 4000TIP3    H236196   4.851   5.700   9.476 -0.6927  0.3473 -0.8638
 4001TIP3   OH236197   2.409   3.576   8.757 -0.4330  0.2362  0.1197
 4001TIP3    H136198   2.386   3.501   8.701 -1.1352  0.8645 -0.4485
 4001TIP3    H236199   2.423   3.648   8.696  0.6814  0.4682  0.6328
 4002TIP3   OH236200   4.844   5.382  11.770  0.1925  0.2981 -0.5085
 4002TIP3    H136201   4.805   5.294  11.772  0.0730  0.3593 -0.0406
 4002TIP3    H236202   4.937   5.367  11.754 -0.0647  0.1671 -2.0396
 4003TIP3   OH236203   3.611   5.951  10.626  0.1446  0.0380  0.4690
 4003TIP3    H136204   3.577   5.992  10.705  1.2297  0.7707  0.5689
 4003TIP3    H236205   3.568   5.998  10.554  0.7064  0.7812  0.6011
 4004TIP3   OH236206   2.555   3.648  11.562  0.4071 -0.3197 -0.2881
 4004TIP3    H136207   2.498   3.709  11.515 -0.5959 -1.4769 -0.6361
 4004TIP3    H236208   2.642   3.688  11.559  0.3182 -0.1476 -2.8209
 4005TIP3   OH236209   6.786   5.706  10.101  0.1965 -0.3472 -0.2819
 4005TIP3    H136210   6.866   5.676  10.058  0.4795 -0.1961  0.1305
 4005TIP3    H236211   6.735   5.746  10.031  0.1527 -1.0916 -0.6910
 4006TIP3   OH236212   5.451   2.043  11.557  0.1582  0.5251 -0.2461
 4006TIP3    H136213   5.500   2.125  11.551  0.8708  0.0879 -0.5018
 4006TIP3    H236214   5.518   1.975  11.562 -0.3934  0.0672  2.0808
 4007TIP3   OH236215   0.339   2.597  10.318 -0.5169  0.1082  0.4039
 4007TIP3    H136216   0.273   2.666  10.315 -2.8347 -2.0031 -0.3830
 4007TIP3    H236217   0.361   2.588  10.411 -1.5428  0.6637  0.7124
 4008TIP3   OH236218   5.883   2.120   9.856  0.1891  0.0908 -0.3967
 4008TIP3    H136219   5.979   2.121   9.852  0.5091 -1.2226  3.0510
 4008TIP3    H236220   5.860   2.202   9.899 -0.0902 -0.2156  0.0495
 4009TIP3   OH236221   0.628   3.704   9.324 -0.0794 -0.3451 -0.6300
 4009TIP3    H136222   0.632   3.793   9.290  1.1103 -1.0230 -2.3959
 4009TIP3    H236223   0.567   3.709   9.398 -1.5727  1.5099 -1.9088
 4010TIP3   OH236224   1.158   0.362  10.451 -0.0291  0.1762  0.3797
 4010TIP3    H136225   1.109   0.284  10.476 -0.3214  0.1599 -0.2138
 4010TIP3    H236226   1.163   0.358  10.355  0.9198  0.3140  0.4149
 4011TIP3   OH236227   6.543   0.479   9.275  0.1234  0.1806  0.0118
 4011TIP3    H136228   6.511   0.424   9.346  0.8631 -0.2905 -0.0159
 4011TIP3    H236229   6.557   0.420   9.202 -0.3345  0.6153 -0.4355
 4012TIP3   OH236230   4.758   3.844  10.638  0.2735  0.1321  0.4100
 4012TIP3    H136231   4.819   3.775  10.608 -0.7477  0.1642 -1.9667
 4012TIP3    H236232   4.674   3.819  10.600 -1.1274  0.4220  3.1244
 4013TIP3   OH236233   1.342   0.027  11.533 -0.0598 -0.4775  0.2089
 4013TIP3    H136234   1.414   0.020  11.470  0.8955 -0.1073  1.2321
 4013TIP3    H236235   1.345   0.118  11.563  0.0996 -0.8798  1.4687
 4014TIP3   OH236236   5.606   3.574  10.489 -0.7220  0.4603  0.4322
 4014TIP3    H136237   5.680   3.603  10.436  1.2480 -0.6258  2.4519
 4014TIP3    H236238   5.578   3.492  10.450 -2.1311  1.7120 -1.4029
 4015TIP3   OH236239   5.878   1.598   7.736 -0.4018  0.6094  0.2300
 4015TIP3    H136240   5.833   1.534   7.681  1.1978 -1.2702  1.0055
 4015TIP3    H236241   5.837   1.588   7.822  1.0872 -0.8413  0.8426
 4016TIP3   OH236242   3.128   4.324   9.059 -0.2254  0.0399  0.1560
 4016TIP3    H136243   3.118   4.255   8.994  1.2582 -0.2046  0.1482
 4016TIP3    H236244   3.082   4.399   9.021  0.8695  0.0023 -1.3610
 4017TIP3   OH236245   1.269   2.046  11.812 -0.3169 -0.0395 -0.3263
 4017TIP3    H136246   1.315   2.081  11.736  1.1191 -2.0533 -0.4628
 4017TIP3    H236247   1.181   2.024  11.780  0.9017 -2.8441 -2.0774
 4018TIP3   OH236248   4.932   3.628  10.579 -0.2840  0.2157 -0.0375
 4018TIP3    H136249   4.980   3.573  10.641  1.8248  2.6335  0.6567
 4018TIP3    H236250   4.995   3.645  10.509 -0.1460  3.1190  0.6668
 4019TIP3   OH236251   0.806   3.755  11.366  0.0056  0.0632  0.2400
 4019TIP3    H136252   0.791   3.671  11.322  1.4308 -0.7882  1.2840
 4019TIP3    H236253   0.777   3.821  11.303 -1.0958 -1.1979 -0.6295
 4020TIP3   OH236254   4.473   2.258  11.395  0.3342 -0.0188  0.5299
 4020TIP3    H136255   4.568   2.248  11.392  0.3966 -0.6290  2.7291
 4020TIP3    H236256   4.458   2.335  11.450 -0.4553  0.0600  0.2307
 4021TIP3   OH236257   5.043   4.795   8.565  0.2881 -0.7504 -0.4695
 4021TIP3    H136258   4.965   4.851   8.563  0.2528 -0.8121 -2.2855
 4021TIP3    H236259   5.116   4.856   8.571  0.1339 -0.6962  1.3897
 4022TIP3   OH236260   4.102   5.049  11.041 -0.4225  0.1749 -0.1778
 4022TIP3    H136261   4.185   5.072  11.083  0.1011 -1.3050 -0.3261
 4022TIP3    H236262   4.094   4.954  11.054 -1.0190 -0.0776 -2.0076
 4023TIP3   OH236263   5.939   1.566  11.733 -0.1403  0.3462  0.4734
 4023TIP3    H136264   5.994   1.492  11.708 -0.2485  0.6173 -0.6178
 4023TIP3    H236265   6.001   1.640  11.741 -0.4183  0.8605 -1.6525
 4024TIP3   OH236266   6.494   2.764  11.051 -0.6370 -0.3837 -0.5210
 4024TIP3    H136267   6.548   2.685  11.052 -1.5224 -1.0471 -1.4666
 4024TIP3    H236268   6.441   2.758  11.130  0.1801 -0.0680  0.0665
 4025TIP3   OH236269   0.921   3.993  11.185  0.9139 -0.4626  0.2310
 4025TIP3    H136270   0.966   3.910  11.166 -0.5580 -1.1036 -0.6463
 4025TIP3    H236271   0.906   4.032  11.099  0.5861  0.1692  0.5672
 4026TIP3   OH236272   1.202   3.802  11.668  0.0927 -0.2594  0.1443
 4026TIP3    H136273   1.264   3.872  11.687 -0.1057 -0.1106  0.2420
 4026TIP3    H236274   1.166   3.824  11.582 -0.6115  0.2240  0.5580
 4027TIP3   OH236275   6.080   2.495  11.862  0.4884  0.6996 -0.1835
 4027TIP3    H136276   6.069   2.582  11.901  1.6974  0.5609  0.5367
 4027TIP3    H236277   6.000   2.448  11.883 -0.0717  1.5522 -0.3652
 4028TIP3   OH236278   2.555   5.499   9.552  0.2796 -0.1553  0.0580
 4028TIP3    H136279   2.547   5.419   9.603 -1.6151 -1.0767 -1.5874
 4028TIP3    H236280   2.600   5.473   9.472 -2.6852 -0.2515 -1.6929
 4029TIP3   OH236281   0.406   1.975   8.897  0.0380 -0.2393 -0.2555
 4029TIP3    H136282   0.440   1.945   8.813  0.8009  2.1298 -0.8444
 4029TIP3    H236283   0.324   2.019   8.875  0.5442  0.9291  0.1340
 4030TIP3   OH236284   3.824   3.001  11.035 -0.3629 -0.2884  0.4035
 4030TIP3    H136285   3.738   3.042  11.032  0.5459  1.7552 -1.9284
 4030TIP3    H236286   3.882   3.071  11.067  0.7228 -0.9521 -0.0507
 4031TIP3   OH236287   1.831   3.834  11.932 -0.5169 -0.2606 -0.4968
 4031TIP3    H136288   1.739   3.827  11.909 -1.0616  0.1590  1.3299
 4031TIP3    H236289   1.837   3.917  11.980  0.4296 -1.1137  0.9421
 4032TIP3   OH236290   5.088   2.956  11.269 -0.0723  0.0902 -0.0532
 4032TIP3    H136291   5.007   2.908  11.287  0.0280 -0.3749 -0.8049
 4032TIP3    H236292   5.157   2.895  11.294  0.1054  1.2984  2.7882
 4033TIP3   OH236293   5.790   4.941   9.574 -0.0459 -0.7408  0.4548
 4033TIP3    H136294   5.846   4.937   9.497  1.4324 -1.7971  1.5349
 4033TIP3    H236295   5.836   5.000   9.634 -2.0527  1.5400 -0.0673
 4034TIP3   OH236296   4.794   4.560  11.357  0.6132 -0.1871  0.1175
 4034TIP3    H136297   4.728   4.599  11.413 -0.3845  1.1149 -1.8491
 4034TIP3    H236298   4.871   4.549  11.413 -0.6100  0.1804  1.9232
 4035TIP3   OH236299   6.770   4.611  10.622  0.3792 -0.2549  0.0798
 4035TIP3    H136300   6.827   4.541  10.652  0.3282 -0.3024  0.0679
 4035TIP3    H236301   6.782   4.613  10.527 -0.6744 -1.1936 -0.0923
 4036TIP3   OH236302   6.635   4.406   8.296  0.3548 -0.5120  0.1491
 4036TIP3    H136303   6.595   4.342   8.355  1.7239 -1.0648  0.5237
 4036TIP3    H236304   6.571   4.417   8.226 -0.3344 -1.5581  0.5834
 4037TIP3   OH236305   2.593   0.032   9.936 -0.1912 -0.5195  0.0580
 4037TIP3    H136306   2.521   0.020   9.999 -0.4609 -1.0775 -0.3480
 4037TIP3    H236307   2.652  -0.041   9.954  0.1580 -0.1919  0.2347
 4038TIP3   OH236308   0.773   3.122  10.722  0.4674 -0.0883 -0.1943
 4038TIP3    H136309   0.685   3.088  10.738  0.4249 -0.5205 -1.2659
 4038TIP3    H236310   0.819   3.112  10.806 -0.4775  0.0883  0.3508
 4039TIP3   OH236311   1.588   4.920  10.229  0.3706  0.0213  0.0575
 4039TIP3    H136312   1.559   4.907  10.138 -1.6409 -1.1342  0.7898
 4039TIP3    H236313   1.527   4.985  10.264  0.4523 -0.3372  0.8757
 4040TIP3   OH236314   0.440   3.122  10.642  0.2108  0.1895 -0.1460
 4040TIP3    H136315   0.372   3.055  10.644 -0.4677  0.8607  1.5789
 4040TIP3    H236316   0.509   3.086  10.586 -0.8390 -1.2228 -0.5684
 4041TIP3   OH236317   5.925   4.620  10.183 -0.1777  0.2508 -0.2118
 4041TIP3    H136318   5.966   4.577  10.258 -0.3426  0.5530  0.0527
 4041TIP3    H236319   5.999   4.649  10.129 -0.0502 -2.0845 -1.4035
 4042TIP3   OH236320   4.876   5.874   9.392  0.2600  0.0870 -0.2568
 4042TIP3    H136321   4.818   5.923   9.451  1.3457  1.8738 -0.6115
 4042TIP3    H236322   4.859   5.911   9.306  1.1339 -0.1249 -0.5281
 4043TIP3   OH236323   5.378   0.491   9.059  0.0015 -0.3297  0.1762
 4043TIP3    H136324   5.374   0.415   9.118  0.8121  0.0522  0.7375
 4043TIP3    H236325   5.298   0.485   9.007 -0.6477 -0.7727  1.2021
 4044TIP3   OH236326   5.302   0.202  10.864  0.1282  0.5191 -0.2151
 4044TIP3    H136327   5.367   0.156  10.917  1.5018  1.1430 -1.2769
 4044TIP3    H236328   5.292   0.287  10.906  1.0987  0.9557 -0.8441
 4045TIP3   OH236329   6.403   0.177   8.699  0.5041  1.1105  0.5128
 4045TIP3    H136330   6.382   0.205   8.610 -0.3711 -0.3648  0.2255
 4045TIP3    H236331   6.339   0.221   8.754  0.2167  1.0189  0.2551
 4046TIP3   OH236332   2.207   6.037  11.363 -0.1020 -0.0373  0.4948
 4046TIP3    H136333   2.197   5.945  11.384  0.8156 -0.2573  0.0253
 4046TIP3    H236334   2.170   6.047  11.275  1.3821 -0.3390 -0.1942
 4047TIP3   OH236335   0.341   5.541  10.022 -0.1362 -0.4193  0.6547
 4047TIP3    H136336   0.280   5.610   9.997 -2.6030 -3.2314 -2.0171
 4047TIP3    H236337   0.422   5.587  10.044 -1.5490  3.2876 -1.0458
 4048TIP3   OH236338   6.144   0.189  11.619  0.5529  0.0004 -0.5253
 4048TIP3    H136339   6.158   0.094  11.619  0.8216 -0.0230 -2.8569
 4048TIP3    H236340   6.062   0.201  11.570  1.6314  1.0178 -2.2073
 4049TIP3   OH236341   4.405   4.779  10.152 -0.0973  0.5622  0.5317
 4049TIP3    H136342   4.344   4.791  10.225 -1.9184 -1.9542 -0.4342
 4049TIP3    H236343   4.411   4.866  10.112 -2.4781  1.0910  1.1357
 4050TIP3   OH236344   5.558   0.480   9.522 -0.1542 -0.2886  0.1397
 4050TIP3    H136345   5.653   0.479   9.522 -0.1404  0.1579 -0.6565
 4050TIP3    H236346   5.532   0.388   9.522  0.2859 -0.4137 -0.3035
 4051TIP3   OH236347   6.319   1.775   8.749  0.7702 -0.0138 -0.7815
 4051TIP3    H136348   6.362   1.743   8.669  3.3753 -0.6876  0.7619
 4051TIP3    H236349   6.264   1.702   8.776 -1.0562  0.6383 -2.4858
 4052TIP3   OH236350   2.469   1.996  10.613  0.1067 -0.1184 -0.7408
 4052TIP3    H136351   2.437   1.962  10.696 -0.1917  0.3437 -0.6606
 4052TIP3    H236352   2.449   1.927  10.549  0.4188 -0.5076 -0.4167
 4053TIP3   OH236353   1.491   1.926  11.014 -0.3180  0.1359  1.1157
 4053TIP3    H136354   1.490   1.843  10.967 -0.3011  0.8933 -0.2980
 4053TIP3    H236355   1.510   1.903  11.105 -0.2472 -1.3823  0.7395
 4054TIP3   OH236356   0.003   3.754  10.073  0.7378  0.1374  0.1186
 4054TIP3    H136357   0.075   3.726  10.016  1.4896 -0.4035  1.2981
 4054TIP3    H236358  -0.021   3.841  10.041  1.8012  0.2523 -0.4003
 4055TIP3   OH236359   5.720   5.114  11.080 -0.0625  0.1395  0.3635
 4055TIP3    H136360   5.720   5.200  11.122  1.5351 -0.5145  1.8254
 4055TIP3    H236361   5.796   5.116  11.022 -1.7121  0.6965 -1.8929
 4056TIP3   OH236362   1.068   0.906   9.787 -0.5565  0.3202 -0.7707
 4056TIP3    H136363   1.019   0.840   9.837 -1.0135  0.7142 -0.6974
 4056TIP3    H236364   1.104   0.857   9.712  1.5467 -0.6680  0.7795
 4057TIP3   OH236365   0.842   1.250  12.132  0.0575  0.5432 -0.0400
 4057TIP3    H136366   0.840   1.214  12.221  0.4791  1.4442  0.3444
 4057TIP3    H236367   0.850   1.345  12.144  2.1931  0.5553 -1.0325
 4058TIP3   OH236368   0.661   5.607   8.962  0.1467  0.4166  0.2016
 4058TIP3    H136369   0.646   5.562   8.879  0.7917 -0.4968  0.5647
 4058TIP3    H236370   0.588   5.668   8.970 -1.7882 -1.8207  0.5613
 4059TIP3   OH236371   4.229   2.648  12.199  0.3717  0.4881  0.3304
 4059TIP3    H136372   4.187   2.606  12.274 -1.3117 -0.1137 -0.8872
 4059TIP3    H236373   4.211   2.742  12.210 -2.1734  0.1962 -0.5725
 4060TIP3   OH236374   1.682   1.136   9.031  0.0002 -0.2265 -0.6697
 4060TIP3    H136375   1.722   1.058   8.991  1.7847  0.2204  0.1310
 4060TIP3    H236376   1.717   1.136   9.121 -2.6183 -0.3253  0.4508
 4061TIP3   OH236377   1.037   3.540   9.611 -0.1365  0.6922  0.2753
 4061TIP3    H136378   1.055   3.595   9.687  2.1859  0.5719 -0.1073
 4061TIP3    H236379   1.052   3.597   9.536 -2.9815  0.9786 -0.1889
 4062TIP3   OH236380   2.337   0.141  10.668 -0.3159  0.4595 -0.2126
 4062TIP3    H136381   2.319   0.059  10.713  0.1415 -0.4278 -1.5906
 4062TIP3    H236382   2.431   0.138  10.649  0.0742  2.1039  1.2270
 4063TIP3   OH236383   0.203   4.885  11.365 -0.1964 -0.6331  0.3488
 4063TIP3    H136384   0.130   4.826  11.344 -0.9439  1.1867 -2.8993
 4063TIP3    H236385   0.272   4.827  11.395 -1.9611 -2.7724  0.5673
 4064TIP3   OH236386   0.998   2.984   9.484  0.3684 -0.4308 -0.3572
 4064TIP3    H136387   0.927   3.018   9.430  0.0877 -1.9187 -0.9776
 4064TIP3    H236388   1.027   3.059   9.536 -0.9232  0.4650 -0.8795
 4065TIP3   OH236389   1.129   5.833  10.134 -0.1832  0.2120  0.0270
 4065TIP3    H136390   1.162   5.744  10.121  0.6954  0.7284 -1.5139
 4065TIP3    H236391   1.058   5.842  10.071  0.0365  0.7442 -0.1482
 4066TIP3   OH236392   5.837   5.197  11.984  0.5172 -0.0382  0.0659
 4066TIP3    H136393   5.830   5.288  12.013 -0.5813  0.5169 -1.7885
 4066TIP3    H236394   5.772   5.189  11.914  1.7917 -1.7787 -0.9809
 4067TIP3   OH236395   5.708   6.106   9.343 -0.0228 -0.6908  0.0158
 4067TIP3    H136396   5.625   6.154   9.341 -0.7051 -1.8124 -1.5730
 4067TIP3    H236397   5.710   6.066   9.430 -0.4863  0.4103  0.5619
 4068TIP3   OH236398   0.398   3.293   9.018 -0.3276 -0.8252  0.0722
 4068TIP3    H136399   0.461   3.223   9.037  0.5023  0.0552  0.6846
 4068TIP3    H236400   0.420   3.362   9.081 -0.4007  0.4321 -1.2383
 4069TIP3   OH236401   1.730   2.833   9.789 -0.1636 -0.1068  0.5650
 4069TIP3    H136402   1.739   2.741   9.815  0.3905  0.4013  2.2744
 4069TIP3    H236403   1.738   2.831   9.694  0.7000 -1.7433  0.6256
 4070TIP3   OH236404   1.050   1.441   8.768 -0.3257 -0.4986  0.8630
 4070TIP3    H136405   1.009   1.365   8.810 -1.4154  0.6322  1.9299
 4070TIP3    H236406   1.130   1.455   8.819  0.8826 -2.0163 -0.5095
 4071TIP3   OH236407   3.554   3.138   9.573  0.0971  0.3601  0.2989
 4071TIP3    H136408   3.612   3.213   9.582  2.0617 -1.1227  0.5648
 4071TIP3    H236409   3.547   3.124   9.478  0.2723  0.4829  0.2682
 4072TIP3   OH236410   5.630   5.230   9.716 -0.5651 -0.2405 -0.1464
 4072TIP3    H136411   5.685   5.192   9.784 -0.6266  1.3589  0.8425
 4072TIP3    H236412   5.691   5.273   9.656 -0.6371  0.5402  0.3209
 4073TIP3   OH236413   1.411   2.358   8.369 -0.1239 -0.5982  0.1752
 4073TIP3    H136414   1.356   2.414   8.314 -0.6995 -0.2143  1.1201
 4073TIP3    H236415   1.360   2.277   8.378  0.5635 -1.1747 -0.9253
 4074TIP3   OH236416   0.570   3.054   9.663 -0.1374 -0.1118 -0.1561
 4074TIP3    H136417   0.481   3.027   9.639  0.5133 -1.4052 -1.2683
 4074TIP3    H236418   0.608   3.085   9.580  0.1470  1.3962  0.5039
 4075TIP3   OH236419   3.607   3.702  10.104  0.2091  0.2084  0.2852
 4075TIP3    H136420   3.593   3.769  10.037 -2.1038 -1.0739 -0.6012
 4075TIP3    H236421   3.662   3.746  10.170  2.4678  1.5464 -2.2909
 4076TIP3   OH236422   6.180   0.042  11.168  0.5390  0.4097  0.2157
 4076TIP3    H136423   6.249   0.001  11.116  0.9536  1.5277 -0.1340
 4076TIP3    H236424   6.174  -0.012  11.247  1.2893 -0.1325 -0.0879
 4077TIP3   OH236425   2.438   0.813  10.964 -0.8335 -0.5127  0.1050
 4077TIP3    H136426   2.371   0.879  10.943  1.1695  1.5820 -0.2100
 4077TIP3    H236427   2.514   0.841  10.913  0.2120 -2.9707  0.2162
 4078TIP3   OH236428   3.339   3.476  11.947 -0.2282 -0.3265 -0.2283
 4078TIP3    H136429   3.319   3.451  11.857  2.2133  1.0587 -1.2505
 4078TIP3    H236430   3.342   3.393  11.995  0.9007 -1.3674 -1.9875
 4079TIP3   OH236431   6.656   6.542  11.131  0.1632 -0.0619  0.1668
 4079TIP3    H136432   6.700   6.502  11.057  1.6434  1.6362  0.0485
 4079TIP3    H236433   6.611   6.618  11.094  2.0751  1.6294  1.1204
 4080TIP3   OH236434   2.151   2.180   8.794 -0.3229 -0.5139  0.4742
 4080TIP3    H136435   2.232   2.222   8.822 -0.6949 -0.1844  1.0759
 4080TIP3    H236436   2.179   2.094   8.762  0.1680 -0.7467  1.4896
 4081TIP3   OH236437   6.714   3.762  11.569  0.0971  0.3374  0.2984
 4081TIP3    H136438   6.692   3.845  11.525  1.0895  0.1872 -0.5091
 4081TIP3    H236439   6.767   3.714  11.505 -0.6372 -1.0235  0.6782
 4082TIP3   OH236440   1.540   6.752   9.058 -0.3288 -0.0182 -0.1096
 4082TIP3    H136441   1.511   6.662   9.042  1.3263 -0.3238 -1.8064
 4082TIP3    H236442   1.482   6.806   9.005 -1.7056  0.0172  1.3705
 4083TIP3   OH236443   0.848   3.556   9.859  0.4887  0.4835  0.3397
 4083TIP3    H136444   0.850   3.496   9.784 -0.2827  0.8075  0.0534
 4083TIP3    H236445   0.778   3.523   9.914  0.3074  0.9097  0.3652
 4084TIP3   OH236446   1.465   5.033  10.945  0.3341  0.0721  0.0024
 4084TIP3    H136447   1.384   5.014  10.992  1.0712 -1.0867  0.8617
 4084TIP3    H236448   1.494   5.118  10.978 -0.5273  0.5022 -0.3294
 4085TIP3   OH236449   3.681   3.820  10.330 -0.3676 -0.0453  0.3812
 4085TIP3    H136450   3.765   3.866  10.337  0.4965 -1.6043  0.9037
 4085TIP3    H236451   3.615   3.887  10.344  0.7883  1.2448 -0.1297
 4086TIP3   OH236452   5.620   4.874  10.607  0.4527 -0.0785  0.2567
 4086TIP3    H136453   5.607   4.850  10.699  0.9029 -0.1899  0.2961
 4086TIP3    H236454   5.626   4.969  10.608 -0.4179 -0.0163  0.2232
 4087TIP3   OH236455   5.898   0.266  10.815 -0.4034 -0.2461 -0.2353
 4087TIP3    H136456   5.911   0.335  10.881  1.1645 -2.1796  1.6513
 4087TIP3    H236457   5.817   0.222  10.842 -0.1914 -0.5314 -0.0511
 4088TIP3   OH236458   4.839   2.970   8.717  0.1688  0.2753 -0.4550
 4088TIP3    H136459   4.875   3.054   8.746 -0.7251  0.7522 -0.6937
 4088TIP3    H236460   4.830   2.978   8.623 -1.0065  0.3569 -0.3515
 4089TIP3   OH236461   3.542   1.551  10.631  0.0840 -0.0544  0.5396
 4089TIP3    H136462   3.491   1.473  10.611  1.0552 -0.8951  1.2472
 4089TIP3    H236463   3.507   1.581  10.715 -0.0731  0.0930  0.4227
 4090TIP3   OH236464   5.437   6.470   9.576 -0.6540 -0.5891 -0.5311
 4090TIP3    H136465   5.428   6.558   9.612  0.9921  0.2024 -1.9589
 4090TIP3    H236466   5.374   6.418   9.626 -0.3339  0.9825  1.6595
 4091TIP3   OH236467   4.947   3.142   9.597 -0.1881  0.4727 -0.5955
 4091TIP3    H136468   5.005   3.206   9.556  2.0423 -0.6895  0.5491
 4091TIP3    H236469   4.950   3.165   9.690 -0.5533 -0.4080 -0.3610
 4092TIP3   OH236470   1.999   0.477  10.890  0.6000 -0.7211  0.0548
 4092TIP3    H136471   2.047   0.395  10.885 -0.5910 -1.3714 -1.7980
 4092TIP3    H236472   1.971   0.494  10.800 -1.2213  0.4525  0.7824
 4093TIP3   OH236473   4.932   1.965  10.019 -0.3241 -0.4376 -0.2485
 4093TIP3    H136474   4.881   2.031   9.971  0.2360  0.0605 -0.1654
 4093TIP3    H236475   4.950   1.897   9.954 -0.8777 -0.5036 -0.3440
 4094TIP3   OH236476   6.773   4.861  10.721  0.4707 -0.5465  0.5586
 4094TIP3    H136477   6.780   4.771  10.689  0.7615 -0.2136 -0.3381
 4094TIP3    H236478   6.829   4.863  10.798  1.3632 -0.8454 -0.0693
 4095TIP3   OH236479   3.233   0.987   9.248  0.7132 -0.3400 -0.2819
 4095TIP3    H136480   3.183   0.907   9.239  0.3082  0.0070 -1.2519
 4095TIP3    H236481   3.231   1.027   9.161  0.6978  0.8406  0.2358
 4096TIP3   OH236482   2.202   4.806  10.918 -0.8712 -0.0851 -0.0906
 4096TIP3    H136483   2.259   4.878  10.943 -0.2635 -0.0273 -1.5322
 4096TIP3    H236484   2.241   4.771  10.838 -1.9310 -1.1248 -0.1883
 4097TIP3   OH236485   2.492   2.884  11.942  0.0259  0.1025  0.1589
 4097TIP3    H136486   2.441   2.882  11.860 -0.9882 -0.5874  0.7796
 4097TIP3    H236487   2.541   2.802  11.941  1.6462  1.0304 -0.7203
 4098TIP3   OH236488   0.247   0.391   8.870 -0.3591 -0.6068 -0.1659
 4098TIP3    H136489   0.290   0.305   8.874  0.9857  0.0377 -0.0372
 4098TIP3    H236490   0.294   0.438   8.801 -0.4980  0.3113  0.3485
 4099TIP3   OH236491   3.587   1.184  11.040 -0.2107 -0.6315 -0.1128
 4099TIP3    H136492   3.517   1.240  11.009 -0.3801 -0.0060  1.3381
 4099TIP3    H236493   3.658   1.198  10.978 -0.5605  0.5203 -0.2747
 4100TIP3   OH236494   3.674   0.378  11.719 -0.2703 -0.3457 -0.3912
 4100TIP3    H136495   3.687   0.324  11.797 -1.1466  0.4801  0.3488
 4100TIP3    H236496   3.617   0.325  11.663 -1.9290  0.1566  0.7491
 4101TIP3   OH236497   5.762   0.379   7.634 -0.2479 -0.0598  0.1689
 4101TIP3    H136498   5.797   0.333   7.557 -0.4911 -0.1252  0.0972
 4101TIP3    H236499   5.818   0.456   7.643 -0.7274  0.3903 -0.5779
 4102TIP3   OH236500   2.693   0.867   9.696 -0.1915 -0.1515  0.3489
 4102TIP3    H136501   2.645   0.785   9.699 -0.8011  0.0989 -1.4225
 4102TIP3    H236502   2.768   0.849   9.639  0.3532  0.1916  0.9464
 4103TIP3   OH236503   0.308   1.939  11.647  0.4741 -0.2141  0.6577
 4103TIP3    H136504   0.277   2.015  11.598 -0.5937 -1.4922 -0.7603
 4103TIP3    H236505   0.230   1.886  11.662  1.1056 -0.7913  2.1059
 4104TIP3   OH236506   3.240   4.438  11.513  0.8498 -0.3220 -0.3981
 4104TIP3    H136507   3.332   4.427  11.490  0.6834  0.3276 -1.4867
 4104TIP3    H236508   3.200   4.353  11.494  1.2709 -0.7062  0.3912
 4105TIP3   OH236509   5.542   4.049   9.712 -0.5329 -0.2208  0.1695
 4105TIP3    H136510   5.519   4.142   9.706  0.6370  0.0008 -2.0120
 4105TIP3    H236511   5.495   4.008   9.640  1.0485 -0.7788 -0.6083
 4106TIP3   OH236512   4.510   6.076   9.804 -0.1871 -0.0660  0.1594
 4106TIP3    H136513   4.492   6.134   9.877 -1.4588 -0.3493  0.1084
 4106TIP3    H236514   4.466   5.994   9.827  1.8657 -1.1577  0.3922
 4107TIP3   OH236515   4.746   5.681  10.539 -0.4951 -0.1712 -0.0390
 4107TIP3    H136516   4.696   5.631  10.475 -0.8859 -0.8507  0.7729
 4107TIP3    H236517   4.828   5.631  10.549 -0.5482 -0.2162  0.1818
 4108TIP3   OH236518   0.884   5.277  10.612 -0.1078 -0.2392  0.1032
 4108TIP3    H136519   0.954   5.232  10.659  0.8588 -0.2385 -1.2831
 4108TIP3    H236520   0.924   5.358  10.581 -0.8625 -0.0133 -0.3179
 4109TIP3   OH236521   2.491   1.674  11.806 -0.1823 -0.1693 -0.0806
 4109TIP3    H136522   2.467   1.711  11.891  0.3462 -0.4852  0.2151
 4109TIP3    H236523   2.473   1.581  11.815 -1.4198 -0.0307 -0.7909
 4110TIP3   OH236524   6.751   0.659   9.347 -0.0718  0.5479  0.0210
 4110TIP3    H136525   6.823   0.658   9.284  0.3613  0.6594  0.5050
 4110TIP3    H236526   6.678   0.617   9.301 -0.4156  2.4733 -1.3019
 4111TIP3   OH236527   3.336   0.161  11.397  0.3713  0.1674 -0.9561
 4111TIP3    H136528   3.355   0.178  11.305 -1.6358 -1.5636 -1.7691
 4111TIP3    H236529   3.248   0.197  11.410  0.6710  0.4909  0.3524
 4112TIP3   OH236530   5.193   1.603   9.813  0.3776  0.5449  0.2569
 4112TIP3    H136531   5.215   1.517   9.848  1.5506 -0.2831 -2.2236
 4112TIP3    H236532   5.276   1.638   9.781 -0.3785  1.7929 -0.4298
 4113TIP3   OH236533   2.463   5.256  11.546  0.0661  0.0130 -0.0804
 4113TIP3    H136534   2.383   5.241  11.496  0.2884 -0.1789 -0.3811
 4113TIP3    H236535   2.518   5.308  11.488 -0.4691  1.5534  0.7237
 4114TIP3   OH236536   0.834   5.822   9.849  0.0068 -0.1386  0.0847
 4114TIP3    H136537   0.865   5.755   9.910  0.9308  1.3552  1.3102
 4114TIP3    H236538   0.785   5.883   9.904 -0.4332  0.4512 -0.9426
 4115TIP3   OH236539   0.122   3.992   9.773  0.1294  0.5094 -0.3222
 4115TIP3    H136540   0.050   3.982   9.710  1.1785  0.6860 -1.6156
 4115TIP3    H236541   0.163   3.906   9.775  1.1995  0.9734 -1.3059
 4116TIP3   OH236542   6.283   4.337   9.699 -0.0904  0.5846  0.0167
 4116TIP3    H136543   6.325   4.416   9.663  1.8523 -1.1369 -1.7408
 4116TIP3    H236544   6.219   4.312   9.632  1.6164 -1.0961 -1.0864
 4117TIP3   OH236545   6.510   3.080  10.981  0.1314  0.1210 -0.8173
 4117TIP3    H136546   6.505   2.991  11.017  0.7526  0.3652 -0.1119
 4117TIP3    H236547   6.446   3.080  10.909 -0.2374 -0.7406 -0.5026
 4118TIP3   OH236548   2.456   1.102  11.740  0.3311  0.0191 -0.0453
 4118TIP3    H136549   2.369   1.098  11.780 -0.4700  2.9999 -1.2078
 4118TIP3    H236550   2.454   1.037  11.671 -0.6802 -0.4748  0.4312
 4119TIP3   OH236551   6.206   6.434  11.557  0.1235 -0.1274 -0.3280
 4119TIP3    H136552   6.239   6.408  11.470 -0.5240 -1.2683 -0.2516
 4119TIP3    H236553   6.280   6.419  11.615  0.4762  0.3843 -0.6355
 4120TIP3   OH236554   0.613   5.657   9.797  0.5087 -0.1605 -0.2802
 4120TIP3    H136555   0.522   5.679   9.776 -0.3718 -0.8006  2.4777
 4120TIP3    H236556   0.657   5.742   9.806 -0.2080  0.1981 -0.0954
 4121TIP3   OH236557   1.970   5.134  11.517  0.8893 -0.4616  0.1348
 4121TIP3    H136558   2.032   5.170  11.581  0.7268 -0.9985  0.5952
 4121TIP3    H236559   2.025   5.096  11.449  1.1558  2.6952 -1.6315
 4122TIP3   OH236560   6.158   2.565   8.888  0.7759  0.0993 -0.4588
 4122TIP3    H136561   6.144   2.472   8.905 -2.4741  0.3661 -1.1783
 4122TIP3    H236562   6.243   2.584   8.929 -0.2633 -2.2718  3.2904
 4123TIP3   OH236563   4.520   2.680  10.398 -0.2108  0.2623 -0.0663
 4123TIP3    H136564   4.607   2.648  10.375 -0.0236 -1.8524  2.8727
 4123TIP3    H236565   4.460   2.625  10.347  0.2060 -0.9045  0.6428
 4124TIP3   OH236566   5.400   5.118   8.760  0.3989  0.0507 -0.8177
 4124TIP3    H136567   5.320   5.163   8.788 -0.6474  0.2870 -3.7494
 4124TIP3    H236568   5.469   5.158   8.811 -1.4078 -1.1707  2.9049
 4125TIP3   OH236569   5.980   6.418   9.518  0.0731  0.5352 -0.4720
 4125TIP3    H136570   5.886   6.403   9.509 -0.2033  0.9352  1.2935
 4125TIP3    H236571   6.019   6.331   9.510 -0.4667  0.3265 -0.8905
 4126TIP3   OH236572   5.820   6.218  11.295 -0.0758 -0.4860 -0.0287
 4126TIP3    H136573   5.732   6.215  11.333 -0.3889  1.6295 -0.4720
 4126TIP3    H236574   5.805   6.242  11.203  0.9595  0.1157 -0.0500
 4127TIP3   OH236575   5.979   1.567  10.655  0.0452 -0.5152 -0.0333
 4127TIP3    H136576   6.047   1.590  10.718 -1.4749 -0.1143  1.5345
 4127TIP3    H236577   5.900   1.556  10.707 -1.0237 -1.4258 -1.7364
 4128TIP3   OH236578   2.889   5.942   9.897  0.3228  0.2907 -0.1011
 4128TIP3    H136579   2.812   5.889   9.913  1.4135 -1.5018 -0.5088
 4128TIP3    H236580   2.961   5.879   9.889  1.9999  1.9212  1.1372
 4129TIP3   OH236581   5.554   2.553   8.438  0.3697  0.1175 -0.0095
 4129TIP3    H136582   5.480   2.541   8.498 -2.1012 -0.9722 -3.0388
 4129TIP3    H236583   5.552   2.645   8.414  1.0878  0.4541  1.1198
 4130TIP3   OH236584   4.469   2.422  12.332  0.4362 -0.0603  0.8455
 4130TIP3    H136585   4.490   2.500  12.281 -0.2413 -0.3021  0.1780
 4130TIP3    H236586   4.462   2.352  12.267 -2.9431  0.0939  0.8634
 4131TIP3   OH236587   3.360   5.876  10.984 -0.2782  0.1480 -0.4257
 4131TIP3    H136588   3.390   5.813  10.919  0.9282 -0.0838  0.3275
 4131TIP3    H236589   3.275   5.906  10.951 -0.1290 -0.6666 -1.6066
 4132TIP3   OH236590   0.981   3.450  10.329 -0.2358 -0.2121 -0.3950
 4132TIP3    H136591   0.929   3.512  10.380 -1.5877 -1.4443 -0.2266
 4132TIP3    H236592   0.918   3.389  10.292  1.0654 -1.7156 -0.2690
 4133TIP3   OH236593   3.368   5.452   9.253  0.6813 -0.6699 -0.1369
 4133TIP3    H136594   3.334   5.409   9.332 -0.2864 -0.0168 -0.1779
 4133TIP3    H236595   3.344   5.544   9.263 -0.3996 -0.7398 -1.6597
 4134TIP3   OH236596   2.759   1.553   9.656  0.7105  0.3796  0.4006
 4134TIP3    H136597   2.800   1.503   9.727  3.2776  1.3650 -0.2857
 4134TIP3    H236598   2.692   1.605   9.700  1.1053 -0.2469  1.8295
 4135TIP3   OH236599   3.235   4.311   9.318 -0.2601  0.0856 -0.1910
 4135TIP3    H136600   3.261   4.403   9.318  0.8350 -0.1895  1.2224
 4135TIP3    H236601   3.200   4.296   9.230  2.6580  1.0013 -1.6427
 4136TIP3   OH236602   2.384   1.032  12.142 -0.0491 -0.2214  0.2964
 4136TIP3    H136603   2.326   1.018  12.067  0.7689  0.7845 -0.5449
 4136TIP3    H236604   2.403   1.126  12.141  1.6121 -0.5320  0.5441
 4137TIP3   OH236605   6.368   5.494   8.966  0.4189  0.0235 -0.3612
 4137TIP3    H136606   6.431   5.462   9.031 -0.2182  0.0926  0.2960
 4137TIP3    H236607   6.286   5.450   8.988 -0.3175  1.5787  0.1594
 4138TIP3   OH236608   0.390   1.980   9.607  0.6238 -0.3831  0.2723
 4138TIP3    H136609   0.321   1.945   9.550  2.1393 -1.1704 -1.1791
 4138TIP3    H236610   0.386   1.926   9.686 -0.7848 -0.0150  0.4782
 4139TIP3   OH236611   5.727   3.440   9.633 -0.3991 -0.1333  0.3616
 4139TIP3    H136612   5.757   3.491   9.558  0.6997 -1.2129  0.0327
 4139TIP3    H236613   5.706   3.354   9.597  0.7961 -0.8838  1.3718
 4140TIP3   OH236614   1.293   2.100  11.250 -0.1842  0.5412 -0.1670
 4140TIP3    H136615   1.347   2.021  11.250 -0.6235  0.2402 -0.2165
 4140TIP3    H236616   1.356   2.172  11.244  0.5761  0.4477  3.7445
 4141TIP3   OH236617   1.464   5.342  10.988  0.4370  0.3920 -0.3056
 4141TIP3    H136618   1.399   5.394  11.035 -0.0986 -0.1968 -0.3909
 4141TIP3    H236619   1.542   5.344  11.044 -0.1614 -0.2153  0.5666
 4142TIP3   OH236620   4.992   6.326  11.539 -0.5555 -0.1169 -0.2523
 4142TIP3    H136621   4.972   6.251  11.595 -0.8298  1.1777  1.4736
 4142TIP3    H236622   4.915   6.334  11.482 -1.8989  0.6194  1.5940
 4143TIP3   OH236623   2.261   2.854  10.663 -0.1209 -0.1578  0.7205
 4143TIP3    H136624   2.326   2.924  10.675 -0.2819  0.1174  0.0691
 4143TIP3    H236625   2.302   2.795  10.600  0.2860 -1.0175  1.7554
 4144TIP3   OH236626   0.672   2.273  10.829  0.3833 -0.1425  0.0688
 4144TIP3    H136627   0.727   2.207  10.872  1.4809  0.2984 -0.6114
 4144TIP3    H236628   0.730   2.348  10.817 -0.2804  0.2272 -0.9539
 4145TIP3   OH236629   6.180   1.323   9.721 -0.8385 -0.0208  0.0136
 4145TIP3    H136630   6.236   1.252   9.690 -0.1014  0.2952  0.6033
 4145TIP3    H236631   6.126   1.281   9.789  1.8812  0.6236  2.8143
 4146TIP3   OH236632   2.200   4.497   9.767  0.2413 -0.0880  0.3378
 4146TIP3    H136633   2.177   4.409   9.737  0.0091  0.1810 -0.2740
 4146TIP3    H236634   2.187   4.493   9.862 -2.0133 -0.0738  0.0889
 4147TIP3   OH236635   5.735   2.436   9.373 -0.3562 -0.3834 -0.1130
 4147TIP3    H136636   5.789   2.406   9.446 -0.7703 -0.4955  0.1502
 4147TIP3    H236637   5.780   2.513   9.340 -0.2019 -0.2895  0.3064
 4148TIP3   OH236638   3.968   0.199  10.882  0.2917  0.5501  0.5268
 4148TIP3    H136639   3.922   0.281  10.897  0.7186  0.9047 -0.0625
 4148TIP3    H236640   4.059   0.224  10.868  0.1528  0.1478 -1.2961
 4149TIP3   OH236641   4.230   5.894   9.141 -0.2127  0.0025  0.0578
 4149TIP3    H136642   4.144   5.879   9.182 -0.4641 -0.9249 -0.7599
 4149TIP3    H236643   4.278   5.812   9.157  0.5669  0.5565  0.6052
 4150TIP3   OH236644   5.165   1.524   8.944 -0.4700  0.2333 -0.2053
 4150TIP3    H136645   5.145   1.439   8.985  1.9405 -0.3529 -0.0717
 4150TIP3    H236646   5.177   1.503   8.851  1.7893  0.0295  0.0723
 4151TIP3   OH236647   3.908   3.644   9.266 -0.2583 -0.1373  0.1939
 4151TIP3    H136648   3.969   3.622   9.336  0.0654  0.3471  0.0725
 4151TIP3    H236649   3.932   3.586   9.194  1.3319  1.3242 -0.5208
 4152TIP3   OH236650   4.874   0.962   8.812  0.0649  0.1722  0.8999
 4152TIP3    H136651   4.885   1.032   8.748 -0.0824 -1.0446 -0.5170
 4152TIP3    H236652   4.828   0.893   8.764  1.0911 -1.2971  1.9416
 4153TIP3   OH236653   4.052   2.114  11.227  0.5426  0.7591 -0.1226
 4153TIP3    H136654   4.087   2.130  11.139 -0.6259  1.8166 -0.4125
 4153TIP3    H236655   4.103   2.172  11.283  2.7402 -1.4023  0.2797
 4154TIP3   OH236656   1.269   1.848  10.212 -0.2917 -0.0033 -0.1807
 4154TIP3    H136657   1.215   1.861  10.291 -0.7290 -1.1093 -0.2814
 4154TIP3    H236658   1.319   1.769  10.231  0.9617  0.7375 -0.2942
 4155TIP3   OH236659   0.881   1.594  10.261 -0.3868 -0.1976  0.0178
 4155TIP3    H136660   0.935   1.551  10.328 -0.7727 -0.3573  0.2248
 4155TIP3    H236661   0.831   1.523  10.222  1.5082 -0.5098 -2.0679
 4156TIP3   OH236662   3.897   3.546   8.374  0.7957 -0.0016  0.1359
 4156TIP3    H136663   3.981   3.592   8.367 -0.2218  2.2629  1.7909
 4156TIP3    H236664   3.922   3.455   8.392  2.8871  0.3453 -0.6784
 4157TIP3   OH236665   1.782   6.025  10.749  0.1084  0.2621  0.2200
 4157TIP3    H136666   1.824   5.972  10.816 -1.8610 -0.2592  1.1092
 4157TIP3    H236667   1.732   5.963  10.696 -0.0555  0.9198 -0.4181
 4158TIP3   OH236668   4.002   0.445  10.983 -0.4319  0.8190 -0.3645
 4158TIP3    H136669   4.081   0.393  10.966  0.4380  2.0042 -0.0578
 4158TIP3    H236670   4.019   0.529  10.940 -0.6526  1.8176  1.4232
 4159TIP3   OH236671   4.325   5.322  10.641  0.4708 -0.0834 -0.4907
 4159TIP3    H136672   4.359   5.312  10.730  0.4325  0.1384 -0.4483
 4159TIP3    H236673   4.403   5.331  10.586  0.4801  0.7656 -0.3497
 4160TIP3   OH236674   2.785   6.656  11.275  0.0517  0.5374 -0.8087
 4160TIP3    H136675   2.833   6.675  11.194  0.2010 -0.3337 -0.9361
 4160TIP3    H236676   2.694   6.647  11.247 -0.3189  2.8233 -0.4720
 4161TIP3   OH236677   6.756   0.883  10.681 -0.1723 -0.2177  0.8813
 4161TIP3    H136678   6.806   0.937  10.742 -0.7556  0.0123  1.1632
 4161TIP3    H236679   6.667   0.883  10.716 -0.8324  1.0221 -0.6956
 4162TIP3   OH236680   4.670   3.906  10.878 -0.2907 -0.1666  0.2073
 4162TIP3    H136681   4.758   3.925  10.911 -0.1743 -1.6842  0.8635
 4162TIP3    H236682   4.680   3.900  10.783  0.0075  1.1056  0.1403
 4163TIP3   OH236683   5.293   6.200  11.065  0.0225  0.2062  0.2697
 4163TIP3    H136684   5.289   6.260  10.990  1.5725 -0.1281 -0.1153
 4163TIP3    H236685   5.288   6.258  11.142  1.8883  0.9312 -0.0904
 4164TIP3   OH236686   0.822   1.091   8.597 -0.5576 -0.4824  0.6683
 4164TIP3    H136687   0.834   1.024   8.529  1.1550  0.3219  0.1309
 4164TIP3    H236688   0.741   1.135   8.572 -0.3573 -0.7038 -0.4431
 4165TIP3   OH236689   2.521   4.427  11.331 -0.6262 -0.3442 -0.2133
 4165TIP3    H136690   2.565   4.363  11.274 -0.4696  1.8342 -2.7618
 4165TIP3    H236691   2.591   4.458  11.389 -0.6946 -2.3439  1.0318
 4166TIP3   OH236692   3.982   2.825  11.835 -0.2667 -0.2732  0.0934
 4166TIP3    H136693   4.017   2.909  11.806 -1.5406 -0.1257 -1.1504
 4166TIP3    H236694   3.887   2.836  11.830 -0.4636 -2.0779 -1.1131
 4167TIP3   OH236695   0.472   0.954  11.037 -0.0902  0.3885  0.4615
 4167TIP3    H136696   0.544   0.932  11.096 -0.4997 -0.5574  0.6357
 4167TIP3    H236697   0.409   1.001  11.092  1.4331  3.4670 -0.2376
 4168TIP3   OH236698   4.645   2.494  11.815 -0.2471 -0.3764  0.8010
 4168TIP3    H136699   4.642   2.590  11.816  0.0757 -0.3559  0.0814
 4168TIP3    H236700   4.696   2.472  11.893  0.5507  0.0840  0.4322
 4169TIP3   OH236701   1.948   1.480  11.161 -0.2585  0.0138  0.3796
 4169TIP3    H136702   1.919   1.510  11.247  0.3441 -1.4987  1.1424
 4169TIP3    H236703   1.977   1.390  11.175  0.1249 -0.1728 -1.3543
 4170TIP3   OH236704   5.720   0.254  10.058 -0.1183 -0.2900  0.1754
 4170TIP3    H136705   5.626   0.266  10.044 -0.2304  0.0920  1.2048
 4170TIP3    H236706   5.727   0.226  10.149  0.9616  2.3351  0.9678
 4171TIP3   OH236707   4.242   6.533  10.107  0.4142  0.5677  0.4264
 4171TIP3    H136708   4.153   6.522  10.074  1.0374  1.2969 -1.6430
 4171TIP3    H236709   4.265   6.446  10.142 -0.9568  0.2705  0.6464
 4172TIP3   OH236710   6.650   3.447  11.696  0.4240 -0.4004  1.0944
 4172TIP3    H136711   6.607   3.466  11.612 -1.4227 -0.2593  2.0274
 4172TIP3    H236712   6.739   3.481  11.685  0.8810 -2.0848 -1.4754
 4173TIP3   OH236713   6.061   1.462  10.168  0.0140  0.1156 -0.1800
 4173TIP3    H136714   6.103   1.376  10.161 -0.2566 -0.0522  0.1614
 4173TIP3    H236715   6.076   1.488  10.259  0.4478  0.6184 -0.3942
 4174TIP3   OH236716   5.538   6.468  11.257 -0.1103  0.3617  0.1725
 4174TIP3    H136717   5.566   6.381  11.226 -0.1494  0.0840  0.8948
 4174TIP3    H236718   5.443   6.463  11.259 -0.1347  0.5867 -0.2324
 4175TIP3   OH236719   4.383   2.219  12.168  0.3947 -0.3377 -0.1198
 4175TIP3    H136720   4.374   2.128  12.197  3.6239 -1.4158 -2.0114
 4175TIP3    H236721   4.301   2.239  12.124 -0.6100 -2.0848  0.8481
 4176TIP3   OH236722   2.350   2.858   8.902 -0.1771  0.1360  0.0491
 4176TIP3    H136723   2.268   2.899   8.874 -0.6416 -1.4167 -1.0138
 4176TIP3    H236724   2.403   2.853   8.822 -0.1730 -1.3671  0.1257
 4177TIP3   OH236725   4.321   3.486  10.622 -0.0982  0.3995 -0.2965
 4177TIP3    H136726   4.367   3.406  10.646 -0.5762  0.6394  1.6716
 4177TIP3    H236727   4.236   3.457  10.591 -1.0794  0.1107  2.3647
 4178TIP3   OH236728   3.996   6.274  11.911 -0.0512 -0.4797 -0.0207
 4178TIP3    H136729   3.924   6.215  11.892 -0.8844 -0.1268  1.7612
 4178TIP3    H236730   4.010   6.324  11.831  0.1119 -2.4622 -1.2861
 4179TIP3   OH236731   3.200   0.247   8.802 -0.1758  0.1907 -0.5251
 4179TIP3    H136732   3.149   0.184   8.751 -1.0005 -0.2829  0.8391
 4179TIP3    H236733   3.224   0.200   8.881  0.7761  1.0283 -0.2947
 4180TIP3   OH236734   2.557   3.754  10.941 -0.5116  0.0444 -0.1874
 4180TIP3    H136735   2.575   3.700  10.864  0.8845  0.3440 -0.1027
 4180TIP3    H236736   2.600   3.708  11.013  1.6666  1.7215 -0.2918
 4181TIP3   OH236737   4.140   1.550  11.234 -0.5382 -0.4984 -0.0422
 4181TIP3    H136738   4.080   1.490  11.189 -1.6093  0.2527  0.3534
 4181TIP3    H236739   4.105   1.637  11.215 -0.9249 -0.1521  2.0751
 4182TIP3   OH236740   2.011   3.749  10.562 -0.2682  0.0677  0.1334
 4182TIP3    H136741   1.972   3.760  10.649  1.1107 -0.9299  0.9187
 4182TIP3    H236742   2.061   3.668  10.568  0.8032  0.5785 -1.2224
 4183TIP3   OH236743   6.685   1.348   9.908  0.3210 -0.2634 -0.2400
 4183TIP3    H136744   6.608   1.370   9.855 -0.1525  0.2504  0.6345
 4183TIP3    H236745   6.662   1.266   9.951  0.5162 -0.4294 -0.4454
 4184TIP3   OH236746   2.020   2.421  11.515  0.2031  0.0011  0.0072
 4184TIP3    H136747   2.113   2.400  11.514  1.0823  3.2602 -2.2304
 4184TIP3    H236748   2.010   2.484  11.587 -0.8671 -2.0506  1.7769
 4185TIP3   OH236749   6.114   1.012  11.099 -0.2211 -0.0422  0.2815
 4185TIP3    H136750   6.042   0.965  11.142 -0.0927 -0.3824  0.1271
 4185TIP3    H236751   6.152   0.947  11.039 -0.5144  0.4815 -0.4821
 4186TIP3   OH236752   0.268   0.861   9.415  0.3903 -0.0736 -0.1893
 4186TIP3    H136753   0.320   0.895   9.487  0.8113 -1.0084 -0.0399
 4186TIP3    H236754   0.271   0.766   9.426 -0.2822 -0.1886 -0.9207
 4187TIP3   OH236755   3.168   4.172  11.426  0.1315 -0.0860 -0.8526
 4187TIP3    H136756   3.189   4.084  11.394 -0.5186 -0.0003 -1.5286
 4187TIP3    H236757   3.088   4.196  11.380 -1.2425 -0.2220  1.2776
 4188TIP3   OH236758   3.842   0.369   9.775  0.0811  0.3084  0.0479
 4188TIP3    H136759   3.751   0.346   9.754 -0.4020 -0.1589  2.4102
 4188TIP3    H236760   3.842   0.383   9.869  2.4708  0.3868  0.0883
 4189TIP3   OH236761   1.022   0.313   8.278 -0.1962 -0.5735 -0.6617
 4189TIP3    H136762   1.107   0.311   8.322 -0.4993 -0.0712 -0.0446
 4189TIP3    H236763   1.030   0.247   8.209 -0.1204 -2.2694  0.8925
 4190TIP3   OH236764   4.488   6.407   9.796 -0.3958 -0.6118 -0.0186
 4190TIP3    H136765   4.496   6.500   9.818  0.4991 -0.7682  0.3515
 4190TIP3    H236766   4.472   6.364   9.880 -0.8139 -0.7917 -0.1897
 4191TIP3   OH236767   5.977   0.460   8.433 -0.1153 -0.2377  0.9219
 4191TIP3    H136768   6.030   0.382   8.450 -0.0848  0.0287  2.1658
 4191TIP3    H236769   5.926   0.438   8.354  0.8998 -0.9762  0.4507
 4192TIP3   OH236770   5.907   5.289   9.577  0.0766  0.3870 -0.1155
 4192TIP3    H136771   5.944   5.374   9.551  0.1616  0.6399  0.7787
 4192TIP3    H236772   5.953   5.268   9.658  0.6403 -0.9165 -0.7531
 4193TIP3   OH236773   4.541   1.538   9.715 -0.0487  0.0883 -0.7347
 4193TIP3    H136774   4.466   1.509   9.767  0.6390  0.2572  0.3908
 4193TIP3    H236775   4.613   1.544   9.779  0.7318  0.6437 -1.6490
 4194TIP3   OH236776   0.869   3.818   9.070 -0.0760 -0.5478 -0.0318
 4194TIP3    H136777   0.922   3.787   8.996  0.0794 -2.7786  0.9291
 4194TIP3    H236778   0.840   3.738   9.113 -0.6362  0.6929  2.0030
 4195TIP3   OH236779   1.190   6.059  10.257 -0.1439 -0.2950 -0.1293
 4195TIP3    H136780   1.177   5.969  10.228  0.2850 -1.2546  2.4029
 4195TIP3    H236781   1.132   6.111  10.202 -1.2396 -2.2622 -0.9227
 4196TIP3   OH236782   3.814   4.720  11.897 -0.2275  0.4424 -0.1566
 4196TIP3    H136783   3.823   4.636  11.943  0.3700  0.9307  0.6375
 4196TIP3    H236784   3.727   4.716  11.856 -1.2234  0.3830  1.8343
 4197TIP3   OH236785   3.664   3.393  11.459 -0.0430  0.7588 -0.2668
 4197TIP3    H136786   3.596   3.387  11.526  0.2451 -0.8140 -0.0816
 4197TIP3    H236787   3.744   3.416  11.507 -0.0544  0.7114 -0.2259
 4198TIP3   OH236788   6.089   1.925  10.586  0.0602 -0.5067  0.2034
 4198TIP3    H136789   6.147   1.873  10.530 -1.3515 -1.5126 -0.3890
 4198TIP3    H236790   6.105   2.015  10.560  1.4765 -0.7355  0.1861
 4199TIP3   OH236791   4.701   6.320   9.644 -0.1618  0.4369  0.4864
 4199TIP3    H136792   4.761   6.326   9.718 -0.4479 -0.6757  0.8288
 4199TIP3    H236793   4.615   6.303   9.684 -0.4467  0.5829 -0.0604
 4200TIP3   OH236794   2.009   0.143  11.198  0.1095 -0.1838 -0.0551
 4200TIP3    H136795   1.957   0.219  11.174 -0.7728 -0.7523 -0.0063
 4200TIP3    H236796   1.955   0.068  11.171  1.9846 -0.8269 -2.4041
 4201TIP3   OH236797   2.959   4.289  11.289 -0.2612  0.0179  0.7333
 4201TIP3    H136798   2.920   4.295  11.202  1.8382 -1.8133 -0.4593
 4201TIP3    H236799   2.886   4.266  11.346 -1.2290 -1.8973 -1.1202
 4202TIP3   OH236800   5.856   3.467  11.324 -0.4797 -0.0026  0.5891
 4202TIP3    H136801   5.915   3.441  11.253  0.4631  2.2363  0.4741
 4202TIP3    H236802   5.907   3.530  11.376 -2.8165  2.3409  0.2659
 4203TIP3   OH236803   3.111   5.375  11.832 -0.1300  0.1162  0.5059
 4203TIP3    H136804   3.190   5.325  11.810  0.2139  0.9893 -0.3483
 4203TIP3    H236805   3.059   5.374  11.751 -0.4155  0.5999  0.6808
 4204TIP3   OH236806   2.448   6.389  10.974 -0.4428  0.0552 -0.1422
 4204TIP3    H136807   2.528   6.336  10.983  0.1532  0.9244 -0.2139
 4204TIP3    H236808   2.403   6.352  10.898 -0.9848 -1.5477  0.9047
 4205TIP3   OH236809   5.409   0.203  10.600  0.0587 -0.0982 -0.0773
 4205TIP3    H136810   5.333   0.232  10.550  0.1146  3.3986  1.5463
 4205TIP3    H236811   5.375   0.187  10.688  0.6958 -1.8327 -0.1007
 4206TIP3   OH236812   2.364   4.220  11.064  0.2586 -0.4328  0.1446
 4206TIP3    H136813   2.368   4.177  11.150  0.0828 -1.2505 -0.2469
 4206TIP3    H236814   2.368   4.148  11.001 -1.5234 -0.0088 -0.5185
 4207TIP3   OH236815   4.701   2.895  11.091 -0.0093  0.5418 -0.5337
 4207TIP3    H136816   4.768   2.889  11.159  0.9259 -1.0900 -1.5389
 4207TIP3    H236817   4.683   2.804  11.067 -2.0382  0.9700 -0.8576
 4208TIP3   OH236818   6.224   2.423   9.418  0.0719 -0.1327 -1.0011
 4208TIP3    H136819   6.204   2.377   9.500 -1.4497 -0.0701 -1.3155
 4208TIP3    H236820   6.294   2.485   9.442  1.0712 -1.4974 -0.2251
 4209TIP3   OH236821   6.642   3.139  11.748  0.4948 -0.0457 -0.2429
 4209TIP3    H136822   6.595   3.156  11.667  0.1780  0.1608 -0.0152
 4209TIP3    H236823   6.632   3.219  11.800 -0.8786 -0.8259  0.7726
 4210TIP3   OH236824   6.397   2.668   9.134 -0.3895  0.2085 -0.0825
 4210TIP3    H136825   6.315   2.673   9.184 -0.8956  0.6308 -0.9178
 4210TIP3    H236826   6.422   2.576   9.137 -0.9022  0.0766  0.1831
 4211TIP3   OH236827   3.572   4.744  11.159 -0.4599  0.1150  0.2382
 4211TIP3    H136828   3.494   4.708  11.201  0.2851 -0.7113  0.9566
 4211TIP3    H236829   3.596   4.819  11.213 -1.7081  1.4172 -0.9553
 4212TIP3   OH236830   5.230   5.287   9.339 -0.0384 -0.5048 -0.0962
 4212TIP3    H136831   5.158   5.331   9.386 -0.7659 -1.6549 -0.0931
 4212TIP3    H236832   5.283   5.249   9.409  0.2051 -0.2142 -0.1233
 4213TIP3   OH236833   0.115   1.237   9.130  0.0170  0.3353  0.2002
 4213TIP3    H136834   0.064   1.315   9.109 -0.4535 -0.2933 -1.1009
 4213TIP3    H236835   0.105   1.226   9.225 -0.2759  1.5839  0.3243
 4214TIP3   OH236836   5.557   2.247   9.816  0.1713 -0.1012  0.5925
 4214TIP3    H136837   5.564   2.163   9.772  1.2851  0.2567  0.0620
 4214TIP3    H236838   5.646   2.268   9.842 -0.0989  0.9066  0.7418
 4215TIP3   OH236839   2.387   1.368  11.325 -0.0303 -0.0790  0.6108
 4215TIP3    H136840   2.302   1.405  11.348  0.2857  2.1228 -1.4134
 4215TIP3    H236841   2.450   1.433  11.357  0.6274  0.4496 -1.5792
 4216TIP3   OH236842   6.393   5.108  10.633 -0.4856 -0.2042  0.2277
 4216TIP3    H136843   6.460   5.054  10.591 -0.2785  0.2075  0.0303
 4216TIP3    H236844   6.325   5.119  10.566  0.1323  0.9796 -0.2276
 4217TIP3   OH236845   3.071   6.726  11.840  0.6650 -0.1625  0.2231
 4217TIP3    H136846   3.157   6.765  11.859  0.7264  0.2619 -0.8785
 4217TIP3    H236847   3.029   6.788  11.780 -0.0540 -0.8049  0.0501
 4218TIP3   OH236848   6.400   2.389   9.715 -0.0409 -0.5791 -0.3007
 4218TIP3    H136849   6.366   2.454   9.654  0.2271 -0.4728 -0.3398
 4218TIP3    H236850   6.345   2.399   9.793  2.3184  2.4171  1.2160
 4219TIP3   OH236851   0.440   4.840  11.054 -0.1509 -0.1656 -0.1186
 4219TIP3    H136852   0.365   4.896  11.075 -0.5408 -0.2478 -1.2285
 4219TIP3    H236853   0.506   4.863  11.120 -1.4924 -0.8343  1.5512
 4220TIP3   OH236854   5.046   5.160  11.462  0.3913  0.4044 -0.5678
 4220TIP3    H136855   4.962   5.196  11.434  0.5411  1.8670  0.6905
 4220TIP3    H236856   5.108   5.190  11.396 -0.1179 -1.2208 -1.8598
 4221TIP3   OH236857   0.025   6.053  11.468  0.6070 -0.0595  0.3070
 4221TIP3    H136858   0.052   5.968  11.503 -0.2958 -0.3297  0.3847
 4221TIP3    H236859   0.034   6.113  11.543 -0.6520 -0.4968  0.8357
 4222TIP3   OH236860   3.622   4.870   9.463  0.6123  0.3281  0.0846
 4222TIP3    H136861   3.579   4.865   9.378 -1.4074  1.0792  1.0025
 4222TIP3    H236862   3.623   4.780   9.496  0.4674  0.1908 -0.2864
 4223TIP3   OH236863   0.964   6.528  11.785  0.8094 -0.2005 -0.2294
 4223TIP3    H136864   1.041   6.472  11.794 -0.0779 -1.5891 -0.9212
 4223TIP3    H236865   0.980   6.579  11.706  0.8785 -0.7439 -0.5707
 4224TIP3   OH236866   4.171   1.027  10.760  0.3445  0.1876 -0.5407
 4224TIP3    H136867   4.093   1.042  10.814  0.5867 -0.7747  0.0865
 4224TIP3    H236868   4.143   0.962  10.696  0.4698  0.2800 -0.6889
 4225TIP3   OH236869   4.276   3.486  10.312  0.0918 -0.3687  0.1390
 4225TIP3    H136870   4.209   3.543  10.349 -0.4398 -0.3792 -0.7739
 4225TIP3    H236871   4.235   3.400  10.308 -1.1255  0.2111 -3.4485
 4226TIP3   OH236872   6.736   3.569  10.564 -0.1182  0.0722  0.1862
 4226TIP3    H136873   6.689   3.634  10.616 -1.4021  0.4972 -1.4188
 4226TIP3    H236874   6.726   3.599  10.474  1.2446 -1.1304 -0.4065
 4227TIP3   OH236875   0.354   4.460   9.661  0.5048  0.6058  0.1125
 4227TIP3    H136876   0.391   4.473   9.749  1.4225 -1.2433  0.0372
 4227TIP3    H236877   0.263   4.490   9.669  0.4623  0.1219  1.7949
 4228TIP3   OH236878   6.596   6.417  10.810  0.4735  0.0567 -0.3994
 4228TIP3    H136879   6.554   6.339  10.774  0.9038  0.0729 -0.9335
 4228TIP3    H236880   6.601   6.478  10.737 -1.5664  1.3249  0.4292
 4229TIP3   OH236881   3.192   0.713  11.430  0.2624  0.0262 -0.4305
 4229TIP3    H136882   3.203   0.783  11.494 -0.3303 -0.3405  0.0891
 4229TIP3    H236883   3.275   0.711  11.382 -0.1559  1.9053 -1.3148
 4230TIP3   OH236884   3.867   4.607  11.352 -0.5702 -0.1289  0.0003
 4230TIP3    H136885   3.907   4.692  11.372  1.7539 -1.0001 -0.5826
 4230TIP3    H236886   3.846   4.613  11.259  2.9859 -1.3142 -1.0401
 4231TIP3   OH236887   2.792   1.377   9.887 -0.0908 -0.2006  0.3758
 4231TIP3    H136888   2.768   1.285   9.873  1.9047 -0.9306  1.3026
 4231TIP3    H236889   2.717   1.414   9.935 -2.3414 -0.3982 -2.6869
 4232TIP3   OH236890   6.635   4.628   8.466 -0.1249 -0.2719  0.2128
 4232TIP3    H136891   6.650   4.571   8.541 -1.2881 -1.7906 -0.6786
 4232TIP3    H236892   6.641   4.571   8.390  0.2089  1.0842 -0.8273
 4233TIP3   OH236893   0.420   0.988  10.755 -1.2953  0.0888 -0.2598
 4233TIP3    H136894   0.432   0.980  10.849 -2.1824 -0.6730 -0.2037
 4233TIP3    H236895   0.499   1.033  10.725 -1.4361  1.2165  0.9618
 4234TIP3   OH236896   3.206   6.665   9.962  0.0708 -0.0796  0.1592
 4234TIP3    H136897   3.225   6.673   9.868 -0.0411 -1.0274  0.0476
 4234TIP3    H236898   3.124   6.713   9.973 -0.0778 -0.2161 -0.2912
 4235TIP3   OH236899   0.584   3.081  11.280  0.5187 -0.3283  0.0701
 4235TIP3    H136900   0.502   3.106  11.322  0.1242  0.5722 -1.1431
 4235TIP3    H236901   0.569   2.993  11.246  0.3338 -0.4744  0.5321
 4236TIP3   OH236902   0.773   0.179  10.410  0.5530  0.0683  0.8244
 4236TIP3    H136903   0.745   0.131  10.488  1.2143 -0.9338  0.4753
 4236TIP3    H236904   0.701   0.167  10.348 -0.2768  1.4346  1.4803
 4237TIP3   OH236905   4.561   2.699   9.911  0.0500  0.0298  0.3240
 4237TIP3    H136906   4.480   2.651   9.893  0.0206  0.3256 -0.3513
 4237TIP3    H236907   4.562   2.709  10.006 -1.0491  0.6230  0.2894
 4238TIP3   OH236908   2.515   6.699  11.221  0.5744  0.0651 -0.6735
 4238TIP3    H136909   2.419   6.703  11.227  0.5080 -0.5380 -1.1901
 4238TIP3    H236910   2.539   6.771  11.164  0.6901  1.9923  1.6592
 4239TIP3   OH236911   2.027   0.461   9.733 -0.1453 -0.0352 -0.1834
 4239TIP3    H136912   1.942   0.503   9.742 -0.6593 -0.8273 -1.0814
 4239TIP3    H236913   2.026   0.425   9.644  0.8410 -0.6746  0.0519
 4240TIP3   OH236914   6.684   5.379  11.862 -0.4702  0.1606 -0.4316
 4240TIP3    H136915   6.756   5.390  11.799  1.4003  2.1199  1.8718
 4240TIP3    H236916   6.613   5.433  11.826  0.1357  0.3258 -1.4381
 4241TIP3   OH236917   2.801   3.783  11.648 -0.3197  0.2328  0.9251
 4241TIP3    H136918   2.884   3.798  11.695 -0.6887  0.0596  1.6389
 4241TIP3    H236919   2.809   3.838  11.569  1.2466 -1.1856  0.0208
 4242TIP3   OH236920   4.498   3.220   9.725 -0.1370  0.4498  0.6778
 4242TIP3    H136921   4.530   3.310   9.724  1.5948 -0.1244  0.8635
 4242TIP3    H236922   4.458   3.209   9.812 -0.4931  1.0726  0.5966
 4243TIP3   OH236923   1.606   2.893   9.311 -0.0838  0.6100  0.2184
 4243TIP3    H136924   1.524   2.848   9.329 -0.2233  0.7987  0.0566
 4243TIP3    H236925   1.589   2.944   9.232  1.2289 -2.2094 -2.1252
 4244TIP3   OH236926   0.071   0.720   9.876  0.9253 -0.3453 -0.0442
 4244TIP3    H136927   0.052   0.692   9.786 -2.5693 -3.1770  1.3203
 4244TIP3    H236928   0.019   0.799   9.888  2.8337  1.1332 -0.9098
 4245TIP3   OH236929   4.800   3.671  11.820 -0.3613  0.0342  0.1949
 4245TIP3    H136930   4.752   3.636  11.745  0.4308  0.3694 -0.4827
 4245TIP3    H236931   4.756   3.754  11.840 -0.4553  0.0381 -0.0232
 4246TIP3   OH236932   4.408   2.039   9.809 -0.1652 -0.6134  0.2901
 4246TIP3    H136933   4.436   2.047   9.718 -0.2467 -2.1612  0.1030
 4246TIP3    H236934   4.401   1.945   9.824  3.3941 -0.6704  2.9970
 4247TIP3   OH236935   6.271   4.327   8.935 -0.1908  0.9501 -0.0463
 4247TIP3    H136936   6.195   4.379   8.910 -0.6345  0.5508  0.4404
 4247TIP3    H236937   6.283   4.265   8.863 -0.8092  0.5031  0.2243
 4248TIP3   OH236938   1.594   2.291   9.106  0.3620  0.1492  0.0709
 4248TIP3    H136939   1.687   2.269   9.116  0.5418  1.0172  0.4224
 4248TIP3    H236940   1.555   2.268   9.191  0.2526 -0.2307 -0.0824
 4249TIP3   OH236941   0.279   5.042  11.109  0.2128  0.3296 -0.2959
 4249TIP3    H136942   0.225   5.007  11.180  0.7346  0.3952  0.1390
 4249TIP3    H236943   0.343   5.098  11.153  0.4122  0.5332 -0.8382
 4250TIP3   OH236944   3.102   5.155   9.854  0.0686 -0.3613  0.5222
 4250TIP3    H136945   3.133   5.170   9.943 -0.7621  2.0086  0.4803
 4250TIP3    H236946   3.011   5.126   9.864  0.2981 -1.1453  0.4453
 4251TIP3   OH236947   5.501   6.224   8.925 -0.1279  0.3970  0.2345
 4251TIP3    H136948   5.536   6.150   8.875 -1.6104 -0.9854  1.1401
 4251TIP3    H236949   5.440   6.267   8.865 -0.5931 -0.2002  0.2743
 4252TIP3   OH236950   6.168   0.668   9.188 -0.2997 -0.0151  0.2444
 4252TIP3    H136951   6.129   0.718   9.116  0.8764  0.8154  0.1389
 4252TIP3    H236952   6.167   0.728   9.262  2.5670  0.8712 -0.2825
 4253TIP3   OH236953   1.516   0.676  10.924 -0.4008  0.1577 -1.7708
 4253TIP3    H136954   1.607   0.647  10.927 -1.0094 -1.9640 -1.4015
 4253TIP3    H236955   1.469   0.600  10.889 -2.3783  0.1260  0.6828
 4254TIP3   OH236956   3.782   1.574   9.817  0.0703 -0.5948  0.2823
 4254TIP3    H136957   3.747   1.538   9.898 -0.3807  0.5491  0.6237
 4254TIP3    H236958   3.876   1.583   9.833 -0.1989  0.8676  1.2068
 4255TIP3   OH236959   5.669   0.609  11.608  0.4287 -0.4562 -0.4358
 4255TIP3    H136960   5.661   0.701  11.582  0.2520 -0.0550  0.9998
 4255TIP3    H236961   5.618   0.602  11.689 -1.3108 -2.2929 -1.5833
 4256TIP3   OH236962   1.882   3.977   9.504 -0.2621 -0.0567  0.0731
 4256TIP3    H136963   1.957   4.033   9.485 -0.7683  0.7976  0.5119
 4256TIP3    H236964   1.881   3.913   9.434  1.6032 -0.8597  0.7049
 4257TIP3   OH236965   2.567   2.876   9.382  0.2245  0.3679 -0.6212
 4257TIP3    H136966   2.542   2.906   9.295  1.2333  0.9126 -0.7496
 4257TIP3    H236967   2.546   2.949   9.440  0.3072  0.3266 -0.5371
 4258TIP3   OH236968   3.821   3.301   9.808 -0.3572 -0.3960 -0.1131
 4258TIP3    H136969   3.772   3.231   9.851  1.2621 -2.1373 -0.9384
 4258TIP3    H236970   3.901   3.258   9.777  0.9759  1.9644 -0.1702
 4259TIP3   OH236971   4.576   5.025   9.006 -0.1801  0.8783 -0.4161
 4259TIP3    H136972   4.638   5.036   8.934 -0.4387  3.3184 -0.3411
 4259TIP3    H236973   4.507   5.088   8.989 -0.6029  1.0252  1.6015
 4260TIP3   OH236974   4.887   3.474  11.427 -0.2439  0.1266 -0.3805
 4260TIP3    H136975   4.958   3.419  11.393 -1.0447  0.1591 -2.2509
 4260TIP3    H236976   4.837   3.499  11.349 -1.9425  0.6356  0.8146
 4261TIP3   OH236977   4.664   1.676  11.914 -0.0699  0.1521  0.3270
 4261TIP3    H136978   4.689   1.686  11.823  1.8434 -1.5011  0.5830
 4261TIP3    H236979   4.741   1.637  11.956 -0.7777  1.1224  2.7177
 4262TIP3   OH236980   2.863   5.068  11.374 -0.3055  0.2816  0.2390
 4262TIP3    H136981   2.949   5.094  11.339 -0.3676 -0.4938 -0.5058
 4262TIP3    H236982   2.810   5.051  11.296 -0.9087  0.0035  0.7099
 4263TIP3   OH236983   6.178   1.808  11.491  0.3222  0.2685 -0.5302
 4263TIP3    H136984   6.230   1.861  11.551 -0.0035  0.0501 -0.0434
 4263TIP3    H236985   6.184   1.719  11.526 -0.5990  0.2817 -0.2933
 4264TIP3   OH236986   4.911   3.977  10.991 -0.4262  0.3142 -0.0460
 4264TIP3    H136987   5.002   3.980  10.963  0.4701 -2.5969  2.0423
 4264TIP3    H236988   4.906   4.038  11.064  0.2473 -0.4614  0.6693
 4265TIP3   OH236989   5.172   1.663  10.988  0.0970 -0.5108 -0.1896
 4265TIP3    H136990   5.122   1.740  10.960  1.0002 -0.0390 -0.5584
 4265TIP3    H236991   5.261   1.696  11.000  0.0564 -0.9965  1.9001
 4266TIP3   OH236992   2.730   5.947  10.452 -0.6326 -0.1536  0.4419
 4266TIP3    H136993   2.665   5.884  10.422 -0.8265  0.1919  0.1270
 4266TIP3    H236994   2.681   6.026  10.471 -0.2450  0.2768 -0.3009
 4267TIP3   OH236995   4.214   2.944  10.529 -0.4146  0.4616  0.4579
 4267TIP3    H136996   4.234   2.892  10.452 -0.1774 -0.4028  1.0764
 4267TIP3    H236997   4.298   2.977  10.560 -0.3409 -0.2093  1.0217
 4268TIP3   OH236998   2.351   3.467   9.095  0.0760 -0.3842 -0.4876
 4268TIP3    H136999   2.274   3.507   9.137  0.8610  0.6698 -0.0023
 4268TIP3    H237000   2.388   3.410   9.162 -0.1758 -0.7489 -0.6583
 4269TIP3   OH237001   1.180   5.733   9.375 -0.4112  0.1903  0.4902
 4269TIP3    H137002   1.217   5.685   9.450 -0.0722 -0.1585  0.1029
 4269TIP3    H237003   1.244   5.720   9.305 -0.6107  0.7171  0.2058
 4270TIP3   OH237004   3.452   0.371   9.510 -0.0380 -0.1343  0.2912
 4270TIP3    H137005   3.445   0.322   9.428  0.1309 -2.3353  1.5067
 4270TIP3    H237006   3.456   0.463   9.483  1.8221 -0.8572 -2.2679
 4271TIP3   OH237007   2.723   5.759  11.623 -0.0430 -0.2358 -0.2296
 4271TIP3    H137008   2.752   5.836  11.672 -0.6103 -0.6270  0.7436
 4271TIP3    H237009   2.745   5.685  11.680 -1.1334 -0.6723 -0.3616
 4272TIP3   OH237010   4.972   3.240  11.833  0.3579 -0.5913 -0.2048
 4272TIP3    H137011   5.050   3.197  11.870 -1.2303 -0.6038  3.5156
 4272TIP3    H237012   4.990   3.334  11.844  0.4091 -0.5417 -0.6871
 4273TIP3   OH237013   1.243   0.098  11.900 -0.7511 -0.1582 -0.5643
 4273TIP3    H137014   1.278   0.009  11.897  0.2267  0.1286  1.3532
 4273TIP3    H237015   1.316   0.152  11.928 -2.1210  0.7947  1.3742
 4274TIP3   OH237016   1.769   6.733   9.600 -0.5530  0.3254 -0.6594
 4274TIP3    H137017   1.825   6.750   9.676 -0.1490 -1.2138 -0.5855
 4274TIP3    H237018   1.694   6.686   9.636 -1.1911  1.0830 -0.9815
 4275TIP3   OH237019   0.525   2.507  10.887 -0.3632 -0.1568  0.2086
 4275TIP3    H137020   0.549   2.417  10.909 -0.7336 -0.0308  1.1633
 4275TIP3    H237021   0.602   2.559  10.912  0.7341 -0.3971 -2.3046
 4276TIP3   OH237022   2.081   2.878   8.820  0.7340  0.1437  0.3073
 4276TIP3    H137023   2.013   2.815   8.797  1.3667 -0.7921  0.9291
 4276TIP3    H237024   2.080   2.942   8.749  0.3983 -0.8248 -0.5758
 4277TIP3   OH237025   6.058   1.149  11.876 -0.2754 -0.0061 -0.4453
 4277TIP3    H137026   6.149   1.174  11.858 -0.5977  0.7528 -1.0649
 4277TIP3    H237027   6.065   1.074  11.935  0.7654  1.9623  2.1857
 4278TIP3   OH237028   0.902   6.775   9.194 -0.1418  0.4821 -0.2866
 4278TIP3    H137029   0.845   6.769   9.116  0.4886  2.2072 -0.9188
 4278TIP3    H237030   0.986   6.804   9.160  1.3149 -2.3085  0.5972
 4279TIP3   OH237031   1.212   3.991   9.726  0.2719  0.3639  0.1651
 4279TIP3    H137032   1.267   3.982   9.803 -1.0344  3.2411  1.5997
 4279TIP3    H237033   1.124   4.009   9.761 -0.7713 -0.1201 -2.0045
 4280TIP3   OH237034   4.852   0.623  10.214  0.2808  0.1364 -0.8458
 4280TIP3    H137035   4.875   0.553  10.275  0.7443 -0.7898 -2.0409
 4280TIP3    H237036   4.901   0.603  10.135 -1.0188  0.7599 -1.8518
 4281TIP3   OH237037   0.872   2.465  10.793 -0.0572 -0.1262 -0.3067
 4281TIP3    H137038   0.899   2.509  10.712 -0.3624  0.0174 -0.3327
 4281TIP3    H237039   0.909   2.519  10.862 -0.9804  0.5574 -0.3227
 4282TIP3   OH237040   4.050   4.855  10.170 -0.7651  0.1561  0.5511
 4282TIP3    H137041   4.125   4.858  10.229 -1.3819  1.2575  1.3019
 4282TIP3    H237042   4.088   4.865  10.082  0.2502 -2.3778  0.6101
 4283TIP3   OH237043   2.022   0.460   9.190 -0.3131 -0.2171  0.0053
 4283TIP3    H137044   2.022   0.457   9.286 -0.5596  1.5671  0.0905
 4283TIP3    H237045   2.112   0.440   9.166 -0.1826 -0.3936  0.6168
 4284TIP3   OH237046   3.879   4.892  10.373  0.6366 -0.3641  0.0819
 4284TIP3    H137047   3.917   4.826  10.431  0.3944 -0.3412  0.2653
 4284TIP3    H237048   3.933   4.888  10.294  1.0397 -0.3146  0.3520
 4285TIP3   OH237049   0.026   2.654  10.572  0.0463  0.8313 -0.2075
 4285TIP3    H137050  -0.045   2.591  10.563  1.0702 -0.3180 -0.4898
 4285TIP3    H237051  -0.014   2.730  10.614 -1.1466 -0.1190  0.4192
 4286TIP3   OH237052   6.655   4.475   8.681 -0.3019 -0.1554  0.0116
 4286TIP3    H137053   6.744   4.496   8.712 -0.1968  1.3786 -1.2058
 4286TIP3    H237054   6.642   4.384   8.707  1.8141 -0.5791 -0.1665
 4287TIP3   OH237055   2.992   2.578  11.681  0.0480  0.0786 -0.5816
 4287TIP3    H137056   2.962   2.511  11.620  1.8839 -0.0632 -1.3774
 4287TIP3    H237057   2.981   2.661  11.634 -0.1939  0.1377 -0.4228
 4288TIP3   OH237058   1.093   5.877   9.791  0.2079 -0.3116 -0.1340
 4288TIP3    H137059   1.104   5.962   9.748  0.9854  0.3726  1.3319
 4288TIP3    H237060   1.000   5.874   9.813  0.2433  0.3585  0.1458
 4289TIP3   OH237061   0.141   2.990   9.491  0.0849 -0.0449  0.4210
 4289TIP3    H137062   0.075   2.926   9.517 -0.7608  0.3115 -0.7665
 4289TIP3    H237063   0.160   3.039   9.571 -0.2303 -0.9035  1.0337
 4290TIP3   OH237064   2.744   4.239  10.702  0.1151  0.2106  0.0927
 4290TIP3    H137065   2.804   4.272  10.635  1.2955  0.6469  1.3164
 4290TIP3    H237066   2.692   4.315  10.727 -0.4913 -0.0082 -0.4831
 4291TIP3   OH237067   1.108   2.364  11.228 -0.3131 -0.0722  0.3090
 4291TIP3    H137068   1.134   2.338  11.139  1.0296  1.7587  0.1078
 4291TIP3    H237069   1.016   2.390  11.220  0.4927  2.7344 -1.2656
 4292TIP3   OH237070   5.001   0.466   8.394 -0.2615 -0.2492 -0.5754
 4292TIP3    H137071   4.965   0.490   8.479  0.5412 -0.5019 -0.1568
 4292TIP3    H237072   4.974   0.375   8.381  0.3461 -0.4868 -0.1931
 4293TIP3   OH237073   5.729   1.544  10.784 -0.0242 -0.1960 -0.0971
 4293TIP3    H137074   5.639   1.550  10.752 -0.1853  1.1615  0.5041
 4293TIP3    H237075   5.721   1.545  10.879  0.5855 -1.0350 -0.0286
 4294TIP3   OH237076   0.861   4.213  10.978 -0.0751  0.0484 -0.3086
 4294TIP3    H137077   0.827   4.195  10.891 -0.6964  0.7618 -0.2276
 4294TIP3    H237078   0.784   4.229  11.032  0.2993 -0.4072  0.3867
 4295TIP3   OH237079   6.266   3.124   9.961 -0.7610 -0.3627  0.0289
 4295TIP3    H137080   6.257   3.099   9.869 -1.7589 -0.2441  0.0828
 4295TIP3    H237081   6.353   3.092   9.986 -0.5745 -0.6077 -0.8845
 4296TIP3   OH237082   3.168   3.114  10.129  0.3768 -0.2692  0.2717
 4296TIP3    H137083   3.187   3.198  10.088 -2.0910 -0.0033 -0.4400
 4296TIP3    H237084   3.164   3.052  10.057 -2.4096 -0.0866  0.1794
 4297TIP3   OH237085   2.010   1.444  10.458  0.2491 -0.1970 -0.3478
 4297TIP3    H137086   1.950   1.439  10.532  0.4703 -0.3935 -0.1830
 4297TIP3    H237087   2.060   1.362  10.461  1.6330  0.6327  0.4580
 4298TIP3   OH237088   5.182   5.202  11.216 -0.0068  0.5102  0.5147
 4298TIP3    H137089   5.234   5.123  11.205 -0.3118  0.3327  0.3605
 4298TIP3    H237090   5.239   5.261  11.266  0.0354  0.0090  1.0729
 4299TIP3   OH237091   0.248   0.983  11.726 -0.0872 -0.1562  0.7227
 4299TIP3    H137092   0.251   1.051  11.793 -1.0366 -1.7038  2.4335
 4299TIP3    H237093   0.320   0.924  11.748  0.5543  0.0826 -0.5818
 4300TIP3   OH237094   6.206   3.650   9.356  0.2625  0.4604 -0.5662
 4300TIP3    H137095   6.230   3.591   9.427 -2.0834 -2.6824 -2.1504
 4300TIP3    H237096   6.225   3.601   9.276 -1.2333  2.0868 -2.0173
 4301TIP3   OH237097   3.087   1.532  11.757  0.2116  0.1175  0.6365
 4301TIP3    H137098   3.006   1.573  11.786 -0.7415 -0.0234 -1.6657
 4301TIP3    H237099   3.094   1.453  11.811 -1.0795  0.2417  1.0159
 4302TIP3   OH237100   0.512   5.047  11.531  0.0212 -0.2839  0.0571
 4302TIP3    H137101   0.456   4.979  11.568 -1.8730  2.2917  2.2819
 4302TIP3    H237102   0.595   5.038  11.577 -1.7045  1.6724  4.0434
 4303TIP3   OH237103   1.252   4.669  10.966  0.1574 -0.5498  0.3460
 4303TIP3    H137104   1.164   4.668  11.005  0.0428 -0.8048  0.0867
 4303TIP3    H237105   1.297   4.597  11.010 -0.1281 -1.1620 -0.3322
 4304TIP3   OH237106   4.404   5.158   9.686  0.3738  0.2992  0.4255
 4304TIP3    H137107   4.315   5.127   9.671  0.2029 -0.4330  2.6031
 4304TIP3    H237108   4.460   5.093   9.645 -0.0488  0.7776 -0.9823
 4305TIP3   OH237109   0.043   5.777  11.939  0.0219 -0.4675 -0.3579
 4305TIP3    H137110   0.102   5.772  11.864  1.3847 -0.7822  0.6784
 4305TIP3    H237111  -0.026   5.715  11.920  0.4440 -0.6737 -1.2697
 4306TIP3   OH237112   5.757   5.801  11.052  0.0587 -0.0844 -0.3190
 4306TIP3    H137113   5.725   5.877  11.004 -0.5140 -0.9286 -1.3318
 4306TIP3    H237114   5.748   5.825  11.144  0.7830  1.4216 -0.6125
 4307TIP3   OH237115   6.316   1.789   9.845 -0.5048  0.0469  0.3437
 4307TIP3    H137116   6.406   1.766   9.825 -0.4408 -0.4502  1.1317
 4307TIP3    H237117   6.319   1.820   9.935 -1.0675  0.3289  0.2693
 4308TIP3   OH237118   5.679   2.800   9.147 -0.1308  0.2582  0.1320
 4308TIP3    H137119   5.682   2.895   9.137  1.4018  0.2251  0.0497
 4308TIP3    H237120   5.687   2.766   9.058 -0.6406  0.0413  0.1636
 4309TIP3   OH237121   4.916   3.728  11.097  0.1966  0.2274  0.1932
 4309TIP3    H137122   4.876   3.669  11.034  0.1741  0.2650  0.1725
 4309TIP3    H237123   4.897   3.816  11.064  1.5176  0.2342 -0.5897
 4310TIP3   OH237124   3.461   0.689  10.188  0.2402 -0.5535 -0.1025
 4310TIP3    H137125   3.423   0.625  10.248  0.7303 -0.9884 -0.2457
 4310TIP3    H237126   3.550   0.657  10.173  0.0543 -0.5711 -1.2363
 4311TIP3   OH237127   4.666   3.146  10.443  0.0401  0.0950 -0.0157
 4311TIP3    H137128   4.587   3.194  10.470  0.5101 -0.1393  1.9368
 4311TIP3    H237129   4.636   3.056  10.431 -0.2598  0.2820 -0.7090
 4312TIP3   OH237130   4.676   4.090   8.912 -0.3632  0.3180  0.4291
 4312TIP3    H137131   4.612   4.037   8.864 -1.7837  1.2626  1.2112
 4312TIP3    H237132   4.635   4.176   8.918  0.5740  0.6925  1.8038
 4313TIP3   OH237133   6.000   5.503  11.558 -0.4894  0.3242 -0.0646
 4313TIP3    H137134   6.065   5.533  11.622 -2.4865  1.6506  1.4637
 4313TIP3    H237135   6.039   5.520  11.473  2.2941 -1.5232  0.6943
 4314TIP3   OH237136   2.337   5.186  10.955 -0.3865 -0.4413 -0.3412
 4314TIP3    H137137   2.320   5.272  10.994  0.3587  0.1634 -1.3069
 4314TIP3    H237138   2.319   5.198  10.862 -4.3021 -2.4160 -0.0693
 4315TIP3   OH237139   6.714   2.276   8.319 -0.4152 -0.1576 -0.2768
 4315TIP3    H137140   6.807   2.284   8.295  0.1408 -1.8519  1.1028
 4315TIP3    H237141   6.707   2.325   8.401 -0.5961 -0.5194 -0.0742
 4316TIP3   OH237142   4.257   1.402   9.051  0.0925 -0.2287  0.1608
 4316TIP3    H137143   4.168   1.427   9.028  0.3557  0.2965 -0.3291
 4316TIP3    H237144   4.308   1.483   9.042  1.0283 -0.9596 -1.7505
 4317TIP3   OH237145   3.800   0.629  11.785  0.3079 -0.1471 -0.4966
 4317TIP3    H137146   3.763   0.550  11.746  0.6655 -1.1966  1.1793
 4317TIP3    H237147   3.732   0.662  11.844  1.3224 -1.1193  1.3023
 4318TIP3   OH237148   4.163   6.692  11.649 -0.0146 -0.5924 -0.1228
 4318TIP3    H137149   4.143   6.679  11.556 -1.4780  1.6443 -0.1912
 4318TIP3    H237150   4.182   6.786  11.656 -0.3855 -0.6393  1.9275
 4319TIP3   OH237151   1.773   0.062  10.666  0.1753  0.1716 -0.4624
 4319TIP3    H137152   1.791   0.127  10.599 -0.9610  0.2892 -0.6731
 4319TIP3    H237153   1.753  -0.018  10.617  1.0880 -0.2209 -0.2151
 4320TIP3   OH237154   4.021   4.152  11.592 -0.0463 -0.0332 -0.4244
 4320TIP3    H137155   3.972   4.230  11.618 -2.4097 -1.3150 -0.7582
 4320TIP3    H237156   4.025   4.157  11.497 -0.8652 -0.6709 -0.4982
 4321TIP3   OH237157   6.528   1.546   9.770 -0.1557  0.1935 -0.2097
 4321TIP3    H137158   6.536   1.632   9.728  1.3178  1.0458  1.7109
 4321TIP3    H237159   6.521   1.485   9.696  0.8047  1.7524 -1.6829
 4322TIP3   OH237160   5.241   4.900  11.557  0.1376 -0.4709  0.4291
 4322TIP3    H137161   5.169   4.898  11.494  0.4279 -0.8752  0.1117
 4322TIP3    H237162   5.238   4.989  11.592 -0.1477 -0.3022 -0.0087
 4323TIP3   OH237163   5.495   1.657  10.781 -0.7858 -0.5215 -0.3085
 4323TIP3    H137164   5.497   1.718  10.854 -1.2554 -0.6916 -0.1464
 4323TIP3    H237165   5.494   1.712  10.703  1.0034 -0.3462 -0.2428
 4324TIP3   OH237166   5.303   3.315  10.277 -0.1869  0.4067  0.3694
 4324TIP3    H137167   5.272   3.225  10.263  2.5493 -0.3131 -2.1513
 4324TIP3    H237168   5.229   3.370  10.252 -0.7888 -1.1538 -1.5205
 4325TIP3   OH237169   0.508   0.874  11.692 -0.6474 -0.6958  0.1817
 4325TIP3    H137170   0.545   0.793  11.657  1.1489 -0.0448  0.4654
 4325TIP3    H237171   0.508   0.934  11.618  1.5949  0.1652  0.7938
 4326TIP3   OH237172   3.089   5.177  10.641  0.0096 -0.5201 -0.2732
 4326TIP3    H137173   3.149   5.204  10.572  0.3973  0.4396  0.4239
 4326TIP3    H237174   3.122   5.219  10.720 -0.9008 -0.9383  0.3533
 4327TIP3   OH237175   5.638   2.740   8.894 -0.1799  0.0542  0.3502
 4327TIP3    H137176   5.696   2.700   8.831 -0.3625  0.0732  0.1692
 4327TIP3    H237177   5.555   2.752   8.847 -0.4389 -0.2945  0.7097
 4328TIP3   OH237178   4.259   1.020   9.353  0.0697  0.3524 -0.2452
 4328TIP3    H137179   4.254   0.935   9.310  1.7399 -0.6964  1.4844
 4328TIP3    H237180   4.275   1.082   9.281 -0.5188 -0.8611 -1.4667
 4329TIP3   OH237181   4.050   6.298  11.200  0.0468  0.0012 -0.1203
 4329TIP3    H137182   4.085   6.221  11.155 -0.1897  0.9830 -2.0849
 4329TIP3    H237183   4.112   6.315  11.271  1.0676 -0.9572 -0.7531
 4330TIP3   OH237184   1.218   6.345  10.160 -0.1377 -0.1820 -0.2028
 4330TIP3    H137185   1.280   6.306  10.222 -2.8671 -0.2638  2.7923
 4330TIP3    H237186   1.225   6.439  10.176  0.3289 -0.0741 -1.0309
 4331TIP3   OH237187   6.760   0.348  10.663  0.1468 -0.8066 -0.1051
 4331TIP3    H137188   6.811   0.421  10.627 -0.1492 -0.2441  0.6029
 4331TIP3    H237189   6.793   0.338  10.752 -1.6062  0.1969  0.6968
 4332TIP3   OH237190   4.672   4.047   9.933  0.5351 -0.2981 -0.1582
 4332TIP3    H137191   4.635   3.984   9.871  0.5684 -0.3595 -0.1157
 4332TIP3    H237192   4.599   4.072   9.988  0.8870 -1.6747  0.9989
 4333TIP3   OH237193   3.720   3.379   9.561 -0.7423  0.3339  0.4681
 4333TIP3    H137194   3.786   3.396   9.494 -2.1041 -0.2799 -1.1197
 4333TIP3    H237195   3.767   3.385   9.644  1.0912  0.7904 -0.5538
 4334TIP3   OH237196   0.442   2.173  11.208 -0.5092  0.1544  0.5163
 4334TIP3    H137197   0.387   2.204  11.136 -0.3713 -0.5407  0.0989
 4334TIP3    H237198   0.390   2.105  11.250  0.0831 -0.6340  0.0067
 4335TIP3   OH237199   0.074   5.646   9.713  0.0846  0.4121  0.0260
 4335TIP3    H137200   0.051   5.554   9.723 -2.8003  1.2703  2.5222
 4335TIP3    H237201   0.115   5.651   9.626  1.1702 -3.2962  0.1646
 4336TIP3   OH237202   6.438   5.267  11.264 -0.2764 -0.5713 -0.1424
 4336TIP3    H137203   6.398   5.321  11.196 -2.0688 -1.6779 -0.0431
 4336TIP3    H237204   6.437   5.179  11.228 -0.5353 -1.0480  0.9826
 4337TIP3   OH237205   4.396   3.617  11.521  0.2133 -0.1458  0.1534
 4337TIP3    H137206   4.305   3.612  11.549  0.6305 -1.7263  1.3613
 4337TIP3    H237207   4.392   3.651  11.431 -1.5437 -0.1732  0.1890
 4338TIP3   OH237208   4.900   1.922  11.643 -0.7417  0.3899 -0.5359
 4338TIP3    H137209   4.989   1.938  11.611  0.8105 -3.4915  1.1989
 4338TIP3    H237210   4.908   1.929  11.738 -2.2102 -0.4740 -0.3251
 4339TIP3   OH237211   1.222   2.264   9.651  0.0891  0.5811 -0.0873
 4339TIP3    H137212   1.286   2.214   9.601  0.1753  1.2080 -0.6139
 4339TIP3    H237213   1.238   2.239   9.742 -1.2189 -1.9067 -0.4534
 4340TIP3   OH237214   3.289   5.367   8.992  0.6338 -0.4555  0.1654
 4340TIP3    H137215   3.311   5.384   9.084  1.2011 -0.8952  0.1165
 4340TIP3    H237216   3.194   5.378   8.988  0.6617  0.0481  0.6994
 4341TIP3   OH237217   1.258   4.202  10.336  0.2100  0.1644 -0.0340
 4341TIP3    H137218   1.307   4.179  10.257  0.3703  1.7106 -0.4250
 4341TIP3    H237219   1.313   4.269  10.378 -0.2129 -0.1416  1.0122
 4342TIP3   OH237220   6.032   4.453   8.822  0.7255  0.1398  0.3722
 4342TIP3    H137221   5.962   4.413   8.770  2.1959  0.1795 -1.7755
 4342TIP3    H237222   6.005   4.544   8.834  0.7872  0.3880 -1.2091
 4343TIP3   OH237223   4.501   2.654  12.164 -0.4141 -0.1463  0.3033
 4343TIP3    H137224   4.514   2.748  12.151 -1.9585 -0.1988 -2.2964
 4343TIP3    H237225   4.408   2.641  12.147  0.3050 -2.5338 -2.6629
 4344TIP3   OH237226   5.109   5.653   8.863  0.0674 -0.2220  0.1510
 4344TIP3    H137227   5.157   5.677   8.784 -0.3877 -2.8986 -1.0093
 4344TIP3    H237228   5.059   5.575   8.840  0.9412 -1.9496  3.3996
 4345TIP3   OH237229   0.047   6.009  10.591 -0.1223  0.1859  0.1068
 4345TIP3    H137230   0.114   6.061  10.635  1.3848  0.0944 -1.9390
 4345TIP3    H237231  -0.017   5.989  10.660  0.5738  2.5013  1.5389
 4346TIP3   OH237232   3.185   5.864  10.639  0.1545 -0.0705 -0.2803
 4346TIP3    H137233   3.219   5.952  10.618  0.2704  0.5319  2.1605
 4346TIP3    H237234   3.091   5.878  10.653  0.2710 -0.1842  0.6934
 4347TIP3   OH237235   5.737   3.429   9.900  0.7995 -0.3008 -0.2583
 4347TIP3    H137236   5.764   3.339   9.918 -1.6277 -1.3712 -1.4728
 4347TIP3    H237237   5.723   3.431   9.805 -3.0459  0.0863  0.1709
 4348TIP3   OH237238   2.742   1.214  10.242 -0.1587 -0.2854  0.3306
 4348TIP3    H137239   2.690   1.261  10.308  0.1404 -1.0480  1.1426
 4348TIP3    H237240   2.684   1.143  10.213 -1.7610  2.1315 -3.0502
 4349TIP3   OH237241   1.210   5.341  11.142 -0.8139  0.7815 -0.1183
 4349TIP3    H137242   1.200   5.435  11.131  0.2372  0.8475 -0.6826
 4349TIP3    H237243   1.169   5.303  11.064 -3.4250  0.5918  1.2351
 4350TIP3   OH237244   0.236   2.967   8.899 -0.8761  0.0287 -0.9309
 4350TIP3    H137245   0.279   2.939   8.817 -1.7300  0.6733 -1.6228
 4350TIP3    H237246   0.168   2.902   8.914  0.6806 -1.3530  0.5136
 4351TIP3   OH237247   5.776   1.853  10.733  0.2203 -0.0127  0.2682
 4351TIP3    H137248   5.821   1.876  10.814 -1.0994 -0.1638  1.0808
 4351TIP3    H237249   5.786   1.758  10.725 -0.3379 -0.1164  0.7112
 4352TIP3   OH237250   5.304   3.059  10.581  0.2952  0.0870  0.0043
 4352TIP3    H137251   5.222   3.030  10.620 -0.1273  3.1685  1.7384
 4352TIP3    H237252   5.366   3.057  10.654  1.5351 -1.1317 -1.0277
 4353TIP3   OH237253   0.650   4.658   9.242 -0.4202  0.3975 -0.3071
 4353TIP3    H137254   0.623   4.743   9.207  0.4015  0.1632 -1.5874
 4353TIP3    H237255   0.568   4.611   9.256 -0.8347  0.9649 -0.7530
 4354TIP3   OH237256   1.859   3.473  11.513  0.5695 -0.5749  0.2550
 4354TIP3    H137257   1.773   3.441  11.538  0.9040 -1.2910  0.5176
 4354TIP3    H237258   1.905   3.485  11.597  1.3188 -1.9135  0.0545
 4355TIP3   OH237259   4.567   1.978  11.863 -0.4059  0.9019 -0.0783
 4355TIP3    H137260   4.511   2.055  11.855 -3.6611 -1.4178 -2.6987
 4355TIP3    H237261   4.530   1.928  11.935  1.4308  1.4954  1.3399
 4356TIP3   OH237262   3.244   5.213  10.193 -0.0076 -0.1849 -0.4664
 4356TIP3    H137263   3.204   5.278  10.251 -0.0842 -1.6911  1.2468
 4356TIP3    H237264   3.295   5.157  10.251 -0.6637 -2.2035 -1.7343
 4357TIP3   OH237265   5.782   0.199  10.335 -0.1635 -0.0387 -0.4559
 4357TIP3    H137266   5.748   0.156  10.413  1.7666  0.6444  0.8400
 4357TIP3    H237267   5.834   0.132  10.291  0.0024 -0.0125 -0.3045
 4358TIP3   OH237268   2.705   0.679  10.557 -0.3063  0.4400  0.0161
 4358TIP3    H137269   2.633   0.631  10.598  0.2529 -0.5278 -0.0947
 4358TIP3    H237270   2.744   0.616  10.496  1.8578  0.2623  1.4751
 4359TIP3   OH237271   1.462   1.687  10.862  0.0066 -0.2765 -0.3156
 4359TIP3    H137272   1.453   1.594  10.885 -1.3355 -0.0457  0.1726
 4359TIP3    H237273   1.390   1.704  10.802  1.2525  0.0695 -1.8002
 4360TIP3   OH237274   6.577   5.196  12.088 -0.1693  0.2014 -0.3619
 4360TIP3    H137275   6.569   5.275  12.035 -0.4166  0.0989 -0.4774
 4360TIP3    H237276   6.625   5.225  12.166  2.1657 -0.0893 -1.5866
 4361TIP3   OH237277   5.392   5.183   9.534 -0.4821 -0.5139  0.2119
 4361TIP3    H137278   5.423   5.229   9.612 -1.7558 -1.6076  1.4219
 4361TIP3    H237279   5.470   5.137   9.501 -0.2691 -1.4795  1.9137
 4362TIP3   OH237280   2.952   1.954  11.986  0.2021 -0.3663  0.4079
 4362TIP3    H137281   2.862   1.968  12.017  0.5819 -1.4214  2.1125
 4362TIP3    H237282   2.998   2.035  12.007 -0.9055  1.3799 -3.0773
 4363TIP3   OH237283   6.093   5.477   9.717  0.5978  0.2556  0.1251
 4363TIP3    H137284   6.067   5.527   9.640  0.2751 -0.5975 -0.3269
 4363TIP3    H237285   6.153   5.535   9.764 -0.8945  1.6828  0.3946
 4364TIP3   OH237286   6.634   2.917   9.504 -0.1182  0.3153  0.4315
 4364TIP3    H137287   6.576   2.917   9.427  2.0516  0.0387 -1.3033
 4364TIP3    H237288   6.639   2.825   9.531  0.6549  0.1074 -0.3705
 4365TIP3   OH237289   4.654   0.392  11.812 -0.3631  0.2919 -0.0257
 4365TIP3    H137290   4.737   0.435  11.788 -0.9791  1.9437  0.6740
 4365TIP3    H237291   4.594   0.464  11.830 -2.1463 -0.8577 -1.0277
 4366TIP3   OH237292   2.051   3.234   9.316 -0.2595  0.3189  0.1915
 4366TIP3    H137293   2.079   3.162   9.259 -2.8007 -0.3206 -0.3766
 4366TIP3    H237294   2.005   3.295   9.258 -1.3251  0.5509  1.2333
 4367TIP3   OH237295   4.323   0.294   9.457 -0.6586 -0.4161 -0.1416
 4367TIP3    H137296   4.331   0.371   9.401  1.4595 -2.0905 -2.3071
 4367TIP3    H237297   4.239   0.255   9.432 -0.1041 -0.7068 -1.6440
 4368TIP3   OH237298   0.958   6.772   9.780 -0.3195 -0.9696 -0.6319
 4368TIP3    H137299   0.998   6.691   9.813  0.8659 -0.1367  0.0631
 4368TIP3    H237300   1.031   6.818   9.738 -0.5181  0.6021  0.6741
 4369TIP3   OH237301   3.031   5.436   9.153  0.2442  0.0057 -0.7319
 4369TIP3    H137302   3.007   5.527   9.171  1.8030  0.8863 -2.7962
 4369TIP3    H237303   2.947   5.391   9.141 -0.6808  0.5467  2.5247
 4370TIP3   OH237304   0.054   2.678   9.640  0.4611 -0.2857 -0.0842
 4370TIP3    H137305  -0.024   2.623   9.639  0.8898 -0.9178 -0.9665
 4370TIP3    H237306   0.126   2.616   9.629  1.0164  0.3789 -0.2696
 4371TIP3   OH237307   2.547   4.979   9.819  0.0297 -0.1996  0.3519
 4371TIP3    H137308   2.510   4.907   9.767 -0.1651  1.2625 -1.6685
 4371TIP3    H237309   2.471   5.017   9.864 -0.0692 -0.4816  0.4246
 4372TIP3   OH237310   5.068   4.187   9.884 -0.3933 -0.0952  1.1312
 4372TIP3    H137311   5.079   4.097   9.852 -0.0842 -0.4211  2.0904
 4372TIP3    H237312   5.015   4.177   9.963  0.1969  0.4818  1.6127
 4373TIP3   OH237313   0.834   0.463  11.149  0.1083  0.4591  0.0326
 4373TIP3    H137314   0.901   0.396  11.131  1.0849  1.6286 -0.8566
 4373TIP3    H237315   0.861   0.503  11.232  0.0506  0.3855  0.0873
 4374TIP3   OH237316   1.977   0.031   8.981 -0.3709 -0.5892 -0.1616
 4374TIP3    H137317   2.020   0.023   9.066  0.9426  2.0329 -0.4637
 4374TIP3    H237318   1.887   0.056   9.002  0.0007  0.2496  0.5103
 4375TIP3   OH237319   3.946   3.591   8.699 -0.3217  0.7307 -0.1316
 4375TIP3    H137320   4.031   3.559   8.729  0.3537  1.3397 -1.3496
 4375TIP3    H237321   3.890   3.514   8.702  0.4562  0.1549 -0.0170
 4376TIP3   OH237322   4.176   2.293  11.988  0.2225  0.1355 -0.5152
 4376TIP3    H137323   4.142   2.380  11.966 -0.1702 -0.0039 -0.4594
 4376TIP3    H237324   4.132   2.234  11.928 -0.7887 -0.2390  0.5508
 4377TIP3   OH237325   0.093   0.995   9.682  0.0482 -0.0024  0.5990
 4377TIP3    H137326   0.109   0.907   9.648  0.7518  0.2915  0.1522
 4377TIP3    H237327   0.085   0.983   9.776  0.6733 -0.4766  0.5970
 4378TIP3   OH237328   0.023   3.418   9.310  0.0772  0.3206 -0.4422
 4378TIP3    H137329   0.101   3.438   9.259  1.1491 -0.0934  0.9843
 4378TIP3    H237330   0.015   3.322   9.306 -0.1849  0.3366 -0.3419
 4379TIP3   OH237331   2.675   4.931   9.327 -0.1456  0.4291 -0.3692
 4379TIP3    H137332   2.619   4.912   9.251 -0.8939 -0.1000  0.3022
 4379TIP3    H237333   2.704   4.845   9.358 -0.7567  0.5589  0.6078
 4380TIP3   OH237334   4.341   5.947  10.504 -0.5693 -0.6369  0.1933
 4380TIP3    H137335   4.316   5.855  10.494 -0.4342 -0.8685  1.6759
 4380TIP3    H237336   4.433   5.951  10.480 -1.2715 -0.2692 -2.8112
 4381TIP3   OH237337   4.692   5.982  11.154  0.4746 -0.2269  0.7258
 4381TIP3    H137338   4.706   6.032  11.074  1.9356  0.7651  1.5526
 4381TIP3    H237339   4.645   5.903  11.126 -1.7946  1.4867 -0.6450
 4382TIP3   OH237340   2.578   2.910  10.441 -0.1342 -0.5269  0.2195
 4382TIP3    H137341   2.660   2.862  10.428 -0.2028 -0.2142 -1.5023
 4382TIP3    H237342   2.601   3.002  10.431 -0.4878 -0.3555  0.9106
 4383TIP3   OH237343   3.419   3.460  11.147  0.4483  0.4722 -0.3185
 4383TIP3    H137344   3.488   3.518  11.180  0.0487  1.2386 -0.8082
 4383TIP3    H237345   3.403   3.489  11.058 -0.3294  0.1391 -0.2989
 4384TIP3   OH237346   2.096   2.234  11.104 -0.2199  0.3575  0.1188
 4384TIP3    H137347   2.183   2.194  11.106 -0.8659 -1.1512 -0.8561
 4384TIP3    H237348   2.048   2.190  11.174 -0.8575 -0.4424 -0.7975
 4385TIP3   OH237349   6.245   6.109  10.915  0.2126  0.0211  0.0940
 4385TIP3    H137350   6.314   6.113  10.982 -0.2737  1.5582  0.5449
 4385TIP3    H237351   6.286   6.143  10.836  0.1671  0.3672  0.2132
 4386TIP3   OH237352   5.273   4.991   8.533 -0.1166 -0.2624 -0.1221
 4386TIP3    H137353   5.329   5.025   8.603  1.5438  1.4864 -2.1517
 4386TIP3    H237354   5.335   4.964   8.465 -1.6966  1.3728 -2.3221
 4387TIP3   OH237355   0.569   6.753   9.161 -0.2661 -0.0303 -0.1897
 4387TIP3    H137356   0.489   6.787   9.199 -0.0885 -0.0099  0.1655
 4387TIP3    H237357   0.619   6.831   9.136 -0.1167 -0.0342  0.0916
 4388TIP3   OH237358   5.310   3.379   8.766  0.1838 -0.6775 -0.3129
 4388TIP3    H137359   5.388   3.431   8.748  0.5069 -0.7944  0.6715
 4388TIP3    H237360   5.263   3.375   8.683  0.2618  1.0135 -0.4715
 4389TIP3   OH237361   0.556   2.736   8.479 -0.0536 -0.0792 -0.4251
 4389TIP3    H137362   0.649   2.757   8.477 -0.0033  0.5086  3.0281
 4389TIP3    H237363   0.535   2.715   8.388  3.0120  1.4961 -1.6503
 4390TIP3   OH237364   4.957   3.380  10.733 -0.4117 -0.2793 -0.1528
 4390TIP3    H137365   5.024   3.355  10.669  1.5019 -1.8545  2.2946
 4390TIP3    H237366   4.919   3.297  10.763  0.7722  0.1001  2.7288
 4391TIP3   OH237367   2.147   3.787  11.583 -0.4075  0.6390 -0.6434
 4391TIP3    H137368   2.129   3.724  11.653  2.1073  1.0933  0.5328
 4391TIP3    H237369   2.063   3.830  11.567 -1.2452 -0.0542  1.5013
 4392TIP3   OH237370   1.658   1.102  11.016 -0.1225  0.5728 -0.5249
 4392TIP3    H137371   1.697   1.088  11.103  1.1538  1.4296 -0.9316
 4392TIP3    H237372   1.582   1.045  11.015  2.7349 -3.6474 -0.8275
 4393TIP3   OH237373   3.704   4.557   9.459  0.5307 -0.5932 -0.3450
 4393TIP3    H137374   3.760   4.499   9.409  1.0554  1.2348 -2.0116
 4393TIP3    H237375   3.764   4.611   9.510  0.1914 -0.0702 -0.4871
 4394TIP3   OH237376   3.907   0.037  11.664  0.1406 -0.3656  0.3156
 4394TIP3    H137377   3.898  -0.004  11.750  1.3745 -0.3320  0.4668
 4394TIP3    H237378   3.875  -0.030  11.603 -0.5201 -0.4746  0.7656
 4395TIP3   OH237379   4.081   6.200  10.784 -0.4608 -0.2515  0.4473
 4395TIP3    H137380   4.047   6.162  10.865 -0.3544  0.7662  0.9747
 4395TIP3    H237381   4.173   6.175  10.782 -0.3295  0.1888  0.9203
 4396TIP3   OH237382   6.782   0.379  11.280  0.1428  0.3065 -1.1986
 4396TIP3    H137383   6.728   0.381  11.201  0.4132  0.3295 -1.3841
 4396TIP3    H237384   6.805   0.471  11.296  0.7524  0.2183 -1.5546
 4397TIP3   OH237385   0.067   4.697  11.606  1.0335 -0.0646 -0.0569
 4397TIP3    H137386  -0.014   4.658  11.639  0.7309 -0.9937 -1.7647
 4397TIP3    H237387   0.051   4.791  11.607  0.3386 -0.1853  0.6288
 4398TIP3   OH237388   4.600   5.100  10.582  0.5879  0.0001 -0.7942
 4398TIP3    H137389   4.625   5.012  10.611  0.8638 -0.4533 -2.3259
 4398TIP3    H237390   4.564   5.087  10.494  1.0385  1.4715 -1.2201
 4399TIP3   OH237391   1.802   0.266  10.449  0.0187  0.5700 -0.3354
 4399TIP3    H137392   1.835   0.347  10.412 -1.1457  1.9307  1.4417
 4399TIP3    H237393   1.753   0.225  10.377 -1.4616  2.6806 -0.6449
 4400TIP3   OH237394   1.325   5.408  10.608  0.6702  0.1324 -0.0810
 4400TIP3    H137395   1.389   5.478  10.622 -0.3751  0.8281  1.5149
 4400TIP3    H237396   1.269   5.411  10.685  0.6201 -2.5231  0.0899
 4401TIP3   OH237397   6.718   6.257  11.917 -0.5864 -0.6396  0.2333
 4401TIP3    H137398   6.724   6.210  12.000 -2.0191  2.9087  2.5949
 4401TIP3    H237399   6.625   6.254  11.896 -0.8983  1.7550  0.9903
 4402TIP3   OH237400   4.585   6.240  11.198  0.1429 -0.3141 -0.5755
 4402TIP3    H137401   4.525   6.241  11.273 -0.2051  3.1863 -0.7208
 4402TIP3    H237402   4.622   6.152  11.198 -1.8333 -1.2825  2.0747
 4403TIP3   OH237403   1.647   2.221   7.565  0.4838  0.1629  0.4215
 4403TIP3    H137404   1.678   2.165   7.493  2.6060  0.3069  1.1783
 4403TIP3    H237405   1.726   2.244   7.614 -0.6996  1.5368  1.7777
 4404TIP3   OH237406   5.672   2.178   8.775  0.2122  0.3156  0.8016
 4404TIP3    H137407   5.589   2.144   8.807  1.2153 -1.1037  2.0709
 4404TIP3    H237408   5.729   2.180   8.853  1.4032  1.1478 -0.0406
 4405TIP3   OH237409   4.467   3.352  10.986  0.2166  0.4775  0.3392
 4405TIP3    H137410   4.424   3.278  11.028  1.9102 -1.1786 -0.6535
 4405TIP3    H237411   4.558   3.323  10.974  0.4831  1.9532 -1.8280
 4406TIP3   OH237412   0.878   1.304   9.426  0.0167  0.3419 -0.6330
 4406TIP3    H137413   0.831   1.238   9.375  2.9095 -0.6675 -2.2653
 4406TIP3    H237414   0.870   1.275   9.517 -0.4549 -1.1440 -1.1176
 4407TIP3   OH237415   1.268   3.460  10.927 -0.0548 -0.1739 -0.6677
 4407TIP3    H137416   1.300   3.544  10.961 -1.0422  0.3971 -1.0916
 4407TIP3    H237417   1.176   3.477  10.906 -0.4384 -1.5403 -0.1928
 4408TIP3   OH237418   0.425   5.989   8.678 -0.2527  0.3640  0.0497
 4408TIP3    H137419   0.424   5.907   8.629  1.6968 -1.5023  2.8771
 4408TIP3    H237420   0.445   6.056   8.611 -0.3186 -1.6242 -2.0795
 4409TIP3   OH237421   6.756   3.308   8.732 -0.0605  0.3360 -0.7488
 4409TIP3    H137422   6.814   3.276   8.801 -2.7625 -0.8615  1.1050
 4409TIP3    H237423   6.787   3.398   8.715  2.2448 -0.2220  0.1233
 4410TIP3   OH237424   3.820   1.915   9.443 -0.6251  0.6802  0.0086
 4410TIP3    H137425   3.852   1.855   9.376 -1.5656  1.0299 -0.7666
 4410TIP3    H237426   3.756   1.970   9.399 -0.4907  1.6240  0.9438
 4411TIP3   OH237427   0.693   1.232   9.008 -0.0423 -0.2541 -0.7479
 4411TIP3    H137428   0.658   1.219   9.096  1.8905 -1.1779 -0.0455
 4411TIP3    H237429   0.709   1.326   9.003 -1.5941  0.0281 -0.7130
 4412TIP3   OH237430   3.632   0.152   8.820 -0.1147  0.8208 -0.4858
 4412TIP3    H137431   3.635   0.236   8.775  0.3280  1.2058  0.2411
 4412TIP3    H237432   3.725   0.129   8.832 -0.2141  0.9906  0.7018
 4413TIP3   OH237433   4.912   3.319  10.375 -0.1562 -0.4806 -0.0676
 4413TIP3    H137434   4.879   3.394  10.325 -0.2505  0.6955  1.6842
 4413TIP3    H237435   4.843   3.253  10.367 -0.8653  0.2613 -0.2317
 4414TIP3   OH237436   3.723   2.343  11.448 -0.0492 -0.0913  0.1272
 4414TIP3    H137437   3.752   2.339  11.539 -0.4394 -2.4330  0.2058
 4414TIP3    H237438   3.631   2.367  11.453  0.7417  3.6324  0.0557
 4415TIP3   OH237439   3.754   5.702  11.566 -0.1126 -0.3900  0.1717
 4415TIP3    H137440   3.660   5.688  11.557  0.2573 -1.9136 -2.0442
 4415TIP3    H237441   3.784   5.722  11.478  1.5155  1.2625  1.0419
 4416TIP3   OH237442   5.895   1.377   8.522 -0.3524  0.0615 -0.4731
 4416TIP3    H137443   5.931   1.465   8.520 -1.4805  0.5708  0.5675
 4416TIP3    H237444   5.802   1.388   8.504 -0.4869 -0.9338 -0.4642
 4417TIP3   OH237445   6.485   4.794  10.735 -0.2521  0.0734  0.2303
 4417TIP3    H137446   6.517   4.844  10.659 -2.0182  0.6524 -0.1859
 4417TIP3    H237447   6.506   4.849  10.810 -1.0501  0.9173 -0.1223
 4418TIP3   OH237448   2.149   1.467   8.858 -0.5365 -0.6795 -0.7341
 4418TIP3    H137449   2.245   1.467   8.853 -0.3524  0.3367  1.4321
 4418TIP3    H237450   2.123   1.551   8.820 -0.3060  0.2922  1.1409
 4419TIP3   OH237451   6.697   1.390   8.879  0.1378  0.1079 -0.3001
 4419TIP3    H137452   6.711   1.298   8.857  0.8674 -0.2048  1.3366
 4419TIP3    H237453   6.774   1.435   8.845  0.4742 -0.1208  0.1439
 4420TIP3   OH237454   1.488   6.600  10.377 -0.2256 -0.7004 -0.4434
 4420TIP3    H137455   1.495   6.508  10.350  1.9736 -1.1475  1.3226
 4420TIP3    H237456   1.578   6.632  10.375 -0.6949  0.8363  0.8240
 4421TIP3   OH237457   4.180   1.473  10.656  0.3641 -0.1939 -0.3375
 4421TIP3    H137458   4.230   1.422  10.592 -0.8845 -0.2575 -1.2925
 4421TIP3    H237459   4.184   1.563  10.623 -0.3713 -0.2436 -0.5652
 4422TIP3   OH237460   6.026   4.480   7.622  0.1938  0.6677 -0.4566
 4422TIP3    H137461   5.938   4.443   7.628  0.9613 -0.9955  1.9247
 4422TIP3    H237462   6.016   4.556   7.564 -2.6082  0.0569 -0.9212
 4423TIP3   OH237463   3.643   5.687   9.298 -0.0113  0.3116  0.1677
 4423TIP3    H137464   3.672   5.761   9.245  0.2624  1.3584  1.7082
 4423TIP3    H237465   3.548   5.696   9.301 -0.2041 -0.6908 -1.4055
 4424TIP3   OH237466   3.188   2.089   9.902 -0.3722 -0.3065 -0.2275
 4424TIP3    H137467   3.117   2.038   9.942 -0.5398  0.3829  0.3922
 4424TIP3    H237468   3.203   2.048   9.817 -1.8629 -0.1675 -0.5879
 4425TIP3   OH237469   0.990   4.707  11.285  0.1129  0.6475 -0.0118
 4425TIP3    H137470   0.967   4.644  11.353 -0.7828  0.3188 -0.6071
 4425TIP3    H237471   0.965   4.665  11.203  1.4990  0.8971 -0.5910
 4426TIP3   OH237472   5.211   2.057   9.375 -0.0742  0.5034  0.0657
 4426TIP3    H137473   5.131   2.018   9.410 -1.3843  1.2912 -1.9024
 4426TIP3    H237474   5.259   2.086   9.452 -1.7176  0.0765  1.3029
 4427TIP3   OH237475   1.244   4.708  10.222 -0.5309  0.1104  0.2943
 4427TIP3    H137476   1.314   4.727  10.284 -0.0361 -0.5978 -0.0311
 4427TIP3    H237477   1.253   4.774  10.154 -0.5610  0.3903  0.5627
 4428TIP3   OH237478   1.112   1.717  11.134  0.1761  0.1156 -0.7460
 4428TIP3    H137479   1.079   1.707  11.045 -0.0558  0.3247 -0.6818
 4428TIP3    H237480   1.191   1.662  11.136 -0.2438 -0.5013 -0.8538
 4429TIP3   OH237481   6.511   4.795  10.092 -0.6523 -0.2581  0.4777
 4429TIP3    H137482   6.461   4.800  10.011 -1.8871  0.4519  1.2451
 4429TIP3    H237483   6.588   4.848  10.076 -1.0959  0.2291 -0.0990
 4430TIP3   OH237484   6.064   3.542   9.711 -0.0525 -0.1068 -0.0908
 4430TIP3    H137485   6.004   3.467   9.709 -1.4170  0.8648 -3.2543
 4430TIP3    H237486   6.034   3.595   9.785  0.9675 -2.5601  2.2420
 4431TIP3   OH237487   0.211   1.376  10.158 -0.1224  0.2410  0.1598
 4431TIP3    H137488   0.192   1.369  10.252  1.8935  2.5964  0.8585
 4431TIP3    H237489   0.292   1.326  10.147  1.8108  3.0299  0.5989
 4432TIP3   OH237490   1.090   4.240  11.108 -0.8436 -0.5354  0.4455
 4432TIP3    H137491   1.003   4.252  11.071 -0.5341 -1.0467 -0.4869
 4432TIP3    H237492   1.137   4.189  11.042  0.0052 -0.7032  1.1622
 4433TIP3   OH237493   3.387   3.465   9.001  0.2735 -0.4814 -0.1626
 4433TIP3    H137494   3.406   3.385   9.049  0.2132  0.0211  0.7217
 4433TIP3    H237495   3.463   3.521   9.017 -0.4615  0.3080  0.7201
 4434TIP3   OH237496   2.162   3.162  10.374  0.4315 -0.1973  0.0012
 4434TIP3    H137497   2.200   3.244  10.341  1.0064 -0.8072 -0.9088
 4434TIP3    H237498   2.198   3.153  10.462  0.4196  0.4875  0.0839
 4435TIP3   OH237499   1.478   2.507  11.909  0.1235 -0.1091 -0.3585
 4435TIP3    H137500   1.424   2.434  11.938 -1.2844  0.9945 -0.0367
 4435TIP3    H237501   1.449   2.524  11.819  0.4819 -0.0023 -0.4544
 4436TIP3   OH237502   5.327   3.176   8.981 -0.5941  0.7425 -0.3992
 4436TIP3    H137503   5.243   3.146   8.947  0.6164 -1.1312 -2.0333
 4436TIP3    H237504   5.352   3.248   8.923 -0.2708  0.0538 -1.1510
 4437TIP3   OH237505   2.602   4.894  11.848 -0.1100 -0.5265 -0.2626
 4437TIP3    H137506   2.531   4.910  11.786 -0.8042  1.8853  1.0254
 4437TIP3    H237507   2.681   4.920  11.802 -0.6574  1.6040 -0.1066
 4438TIP3   OH237508   5.022   2.276   9.546 -0.3348  0.2681  0.3493
 4438TIP3    H137509   4.991   2.188   9.522  1.0697 -0.2497  0.3193
 4438TIP3    H237510   4.948   2.317   9.590 -0.3814 -1.7109  2.2769
 4439TIP3   OH237511   1.999   4.642  10.010  0.1185 -0.3928  0.6365
 4439TIP3    H137512   2.090   4.612  10.001  0.2240  0.3298 -1.1743
 4439TIP3    H237513   2.004   4.737   9.999 -0.7747 -0.2635  1.3058
 4440TIP3   OH237514   5.735   4.333   9.366 -0.3224  0.2279 -0.5175
 4440TIP3    H137515   5.681   4.313   9.289 -0.9624 -0.5372  0.1085
 4440TIP3    H237516   5.731   4.428   9.373 -1.7340  0.1868 -0.4066
 4441TIP3   OH237517   3.875   6.114  10.616  0.0084  0.5533  0.4981
 4441TIP3    H137518   3.950   6.135  10.673  1.3128 -0.0114 -0.9411
 4441TIP3    H237519   3.839   6.033  10.654  1.5274 -0.4246 -0.0398
 4442TIP3   OH237520   5.023   5.518  11.156  0.2365  0.3604 -0.3015
 4442TIP3    H137521   5.023   5.610  11.128  1.8639  0.6130  0.3755
 4442TIP3    H237522   5.116   5.495  11.160 -0.1531 -1.4314 -0.7800
 4443TIP3   OH237523   0.280   0.839  11.402 -0.2936 -0.0468  0.2077
 4443TIP3    H137524   0.320   0.889  11.331  1.9187  1.7898  2.5469
 4443TIP3    H237525   0.234   0.905  11.454 -1.4656 -1.2682  0.7957
 4444TIP3   OH237526   0.187   5.188   8.946  0.6011  0.0167  0.5654
 4444TIP3    H137527   0.162   5.222   8.860 -0.2304  1.4651  1.3485
 4444TIP3    H237528   0.104   5.172   8.991  1.0289  0.2254  1.4611
 4445TIP3   OH237529   2.870   1.624   9.421 -0.0539  0.4535 -0.3788
 4445TIP3    H137530   2.811   1.581   9.482  0.1270 -0.6076 -0.9367
 4445TIP3    H237531   2.825   1.705   9.397 -0.7841  0.1761  0.0239
 4446TIP3   OH237532   1.874   0.982   8.437 -0.4982 -0.7120 -0.1508
 4446TIP3    H137533   1.849   1.052   8.376 -0.2004  0.0788  0.6049
 4446TIP3    H237534   1.908   0.912   8.381  1.0174  0.5081 -0.8238
 4447TIP3   OH237535   0.427   5.034   8.895 -0.2656 -0.0213 -0.3164
 4447TIP3    H137536   0.475   5.104   8.851  0.1423 -0.5512 -0.7268
 4447TIP3    H237537   0.343   5.074   8.919  0.0330  0.6557 -0.3765
 4448TIP3   OH237538   0.392   1.648  11.791  0.4316  0.5600  0.2212
 4448TIP3    H137539   0.318   1.706  11.779 -1.2440 -1.4579  0.1809
 4448TIP3    H237540   0.438   1.649  11.707 -0.7512  0.2769 -0.4420
 4449TIP3   OH237541   0.854   2.097  11.022 -0.6309 -0.5356  0.1778
 4449TIP3    H137542   0.881   2.047  10.945 -1.3005  1.0993 -1.2085
 4449TIP3    H237543   0.921   2.079  11.087  0.7870 -0.8398 -1.2892
 4450TIP3   OH237544   5.327   3.311  11.032 -0.1181  0.0606 -0.1215
 4450TIP3    H137545   5.258   3.373  11.055  0.6294  0.9644 -0.2677
 4450TIP3    H237546   5.384   3.308  11.109 -1.0852 -1.8200  0.5921
 4451TIP3   OH237547   4.813   4.235  11.795  0.2315 -0.1328 -0.2438
 4451TIP3    H137548   4.796   4.230  11.701 -0.3950 -1.2538 -0.0885
 4451TIP3    H237549   4.783   4.151  11.829 -0.0333  0.4668  1.0469
 4452TIP3   OH237550   1.989   4.181   9.869 -0.6245 -0.1626 -0.0242
 4452TIP3    H137551   2.030   4.204   9.786 -0.2568  1.3959  0.5516
 4452TIP3    H237552   1.896   4.169   9.848 -0.6076  0.6622 -0.5856
 4453TIP3   OH237553   3.213   4.340  11.198 -0.2418  0.4470 -0.4684
 4453TIP3    H137554   3.274   4.319  11.269 -0.0974  1.6341 -0.2064
 4453TIP3    H237555   3.129   4.354  11.242 -0.4772 -0.2077 -0.7073
 4454TIP3   OH237556   5.629   0.896   9.848  0.2794 -0.4170  0.2550
 4454TIP3    H137557   5.555   0.920   9.904 -0.7887 -0.8423 -0.9202
 4454TIP3    H237558   5.592   0.894   9.759  2.2352  1.7172 -0.7156
 4455TIP3   OH237559   5.535   1.850  11.270 -0.1478  0.1350 -0.7470
 4455TIP3    H137560   5.564   1.935  11.237  2.5045 -0.2980  0.2248
 4455TIP3    H237561   5.566   1.847  11.361 -0.8070 -1.5846 -0.5335
 4456TIP3   OH237562   0.159   4.067   8.610 -0.6272 -0.4869  0.3542
 4456TIP3    H137563   0.168   4.146   8.556 -0.5834 -1.2798 -0.8306
 4456TIP3    H237564   0.249   4.036   8.621 -0.6980 -0.7017  0.3241
 4457TIP3   OH237565   3.835   0.636   9.153 -0.2249  0.0768  0.4489
 4457TIP3    H137566   3.782   0.602   9.225  0.2355  2.0576  1.7861
 4457TIP3    H237567   3.799   0.594   9.075 -1.0961 -1.7128  1.7406
 4458TIP3   OH237568   6.673   6.045   9.178  0.0727  0.3590  0.4426
 4458TIP3    H137569   6.760   6.062   9.216  0.4970 -1.6788  0.4841
 4458TIP3    H237570   6.637   5.975   9.232 -1.3581  0.7571  0.0328
 4459TIP3   OH237571   5.232   3.994   9.097  0.2745  0.5100 -0.0051
 4459TIP3    H137572   5.194   4.081   9.086 -2.1010 -0.6346 -1.4189
 4459TIP3    H237573   5.279   3.978   9.015  0.5849  0.3684  0.1960
 4460TIP3   OH237574   1.457   4.046  10.513 -0.1722 -0.1159 -0.2620
 4460TIP3    H137575   1.544   4.025  10.547 -0.4195  0.6184  0.8950
 4460TIP3    H237576   1.397   4.017  10.581 -0.6722  1.5667  0.0757
 4461TIP3   OH237577   2.829   2.675  10.008 -0.0190 -0.0937 -0.2658
 4461TIP3    H137578   2.777   2.719  10.076 -1.2504 -0.8676 -0.6800
 4461TIP3    H237579   2.888   2.617  10.057  0.4092  0.7184  0.2035
 4462TIP3   OH237580   2.009   1.483   9.362 -0.3941  0.5322  0.1893
 4462TIP3    H137581   2.098   1.479   9.327 -0.4538  0.8913 -0.0077
 4462TIP3    H237582   1.974   1.395   9.349 -0.3683  0.6254 -0.5323
 4463TIP3   OH237583   4.880   4.272   9.246 -0.0317 -1.0279  0.4071
 4463TIP3    H137584   4.822   4.344   9.221 -0.4899 -1.4120  0.3548
 4463TIP3    H237585   4.823   4.195   9.247  0.3429 -1.3020  0.9673
 4464TIP3   OH237586   3.366   6.067  11.179  0.4430 -0.5102 -0.7692
 4464TIP3    H137587   3.436   6.052  11.241  0.3897 -2.5739 -1.1492
 4464TIP3    H237588   3.362   5.987  11.127  0.0983  0.9071 -3.0577
 4465TIP3   OH237589   4.499   2.526   8.752 -0.2711  0.3190 -0.6750
 4465TIP3    H137590   4.528   2.436   8.764  1.7015  0.8868 -0.7142
 4465TIP3    H237591   4.526   2.548   8.662  1.5856  1.6859  0.1591
 4466TIP3   OH237592   6.793   0.115  11.353  0.2673 -0.0258  0.7291
 4466TIP3    H137593   6.829   0.138  11.439 -0.5705  0.3158  0.9979
 4466TIP3    H237594   6.778   0.199  11.311 -0.3872 -0.1599  0.6940
 4467TIP3   OH237595   0.039   0.749  10.344 -0.3918  0.2500 -0.9957
 4467TIP3    H137596  -0.042   0.718  10.303 -0.8111  0.5263 -0.3847
 4467TIP3    H237597   0.095   0.672  10.347 -0.5645  0.0953 -1.5788
 4468TIP3   OH237598   1.737   6.453  11.052 -0.2575  0.5139 -0.1378
 4468TIP3    H137599   1.709   6.380  10.997  0.5393 -0.6535  0.9576
 4468TIP3    H237600   1.765   6.413  11.134  1.1643  1.9394  0.1413
 4469TIP3   OH237601   2.922   5.695  10.074 -0.4974 -0.6551 -0.5208
 4469TIP3    H137602   2.937   5.769  10.132 -0.8600 -1.1550  0.2353
 4469TIP3    H237603   2.832   5.705  10.044  0.1001  0.3296 -2.0923
 4470TIP3   OH237604   0.806   6.696   8.945 -0.0397 -0.3033  0.1446
 4470TIP3    H137605   0.714   6.688   8.971 -0.2092  1.5505  0.2617
 4470TIP3    H237606   0.804   6.751   8.867  0.9008 -1.3139 -0.6185
 4471TIP3   OH237607   6.036   1.976  10.860 -0.6140  0.3350 -0.1041
 4471TIP3    H137608   6.060   1.910  10.796  0.1910  0.3263  0.1936
 4471TIP3    H237609   6.102   2.045  10.850  0.4030 -0.3085  1.6723
 4472TIP3   OH237610   4.805   0.261   8.712  0.3734 -0.3455  0.2673
 4472TIP3    H137611   4.802   0.167   8.694 -1.3681 -0.4395  0.8741
 4472TIP3    H237612   4.771   0.269   8.801 -0.3656  0.9416 -0.1125
 4473TIP3   OH237613   2.374   3.638  11.225 -0.0246 -0.3835  0.2794
 4473TIP3    H137614   2.440   3.568  11.233 -0.0731 -0.3098  1.6965
 4473TIP3    H237615   2.380   3.685  11.308  0.7551  2.0012 -1.0384
 4474TIP3   OH237616   5.928   6.701   9.476  0.4620  0.2736  0.0439
 4474TIP3    H137617   5.949   6.609   9.460 -3.2377 -1.0931  1.8509
 4474TIP3    H237618   5.939   6.712   9.570  0.3606  1.5567 -0.0788
 4475TIP3   OH237619   4.471   6.063   9.538  0.4290 -0.4378 -0.7055
 4475TIP3    H137620   4.506   6.090   9.623 -0.9549 -0.8961  0.0287
 4475TIP3    H237621   4.444   5.972   9.550  1.2282 -0.8716 -1.9699
 4476TIP3   OH237622   6.598   5.525  11.008 -0.0447 -0.1560  0.9797
 4476TIP3    H137623   6.560   5.438  10.994  1.4614 -0.8530  1.0496
 4476TIP3    H237624   6.595   5.565  10.921 -1.4184  0.0348  1.0867
 4477TIP3   OH237625   6.163   4.784  10.142 -0.0494 -0.4851 -0.2434
 4477TIP3    H137626   6.217   4.848  10.097 -0.8056  0.2655 -0.1167
 4477TIP3    H237627   6.162   4.813  10.233  0.4812 -1.2993  0.0297
 4478TIP3   OH237628   5.237   0.662  11.535 -0.2113 -0.2738  0.2030
 4478TIP3    H137629   5.314   0.626  11.492 -1.0649 -0.9686 -0.8042
 4478TIP3    H237630   5.222   0.745  11.491 -1.0537 -0.9606 -0.8611
 4479TIP3   OH237631   0.985   0.546   9.144  0.0409 -0.1730 -0.1700
 4479TIP3    H137632   1.071   0.539   9.184 -0.1391 -0.4581  0.1718
 4479TIP3    H237633   0.999   0.597   9.064  0.3032  0.9110  0.5529
 4480TIP3   OH237634   0.921   0.969   9.503 -0.0823  0.2367  0.1618
 4480TIP3    H137635   0.901   0.906   9.572 -0.6216  0.2078 -0.0148
 4480TIP3    H237636   0.853   1.036   9.511 -0.2213  0.1750 -0.4090
 4481TIP3   OH237637   5.485   3.012  11.790 -0.2276 -0.2602 -0.3783
 4481TIP3    H137638   5.546   3.086  11.793 -0.8868  0.3216 -0.9743
 4481TIP3    H237639   5.534   2.939  11.829  1.2033 -0.0780 -1.7117
 4482TIP3   OH237640   5.645   0.344  11.215 -0.3021 -0.0346 -0.3687
 4482TIP3    H137641   5.600   0.337  11.299 -0.2646 -0.5319 -0.3848
 4482TIP3    H237642   5.675   0.434  11.211  0.0920 -0.1269  0.3639
 4483TIP3   OH237643   0.743   3.816   9.694  0.9493 -0.4536  0.5491
 4483TIP3    H137644   0.701   3.738   9.658  0.5598  0.0695 -0.1422
 4483TIP3    H237645   0.680   3.849   9.759 -0.2188  0.8920 -1.1801
 4484TIP3   OH237646   0.409   4.546   9.923  0.6836 -0.1452  0.5197
 4484TIP3    H137647   0.428   4.521  10.013 -0.6461 -0.3257  0.7657
 4484TIP3    H237648   0.392   4.640   9.927 -1.9656 -0.5534  0.9701
 4485TIP3   OH237649   0.116   3.209  10.686  0.5307  0.8266  0.0987
 4485TIP3    H137650   0.082   3.264  10.615  0.0648  0.8328  0.3209
 4485TIP3    H237651   0.124   3.122  10.648 -0.2827  0.6992  0.1937
 4486TIP3   OH237652   4.031   3.471  10.612 -0.8201  0.1298  0.5865
 4486TIP3    H137653   4.050   3.563  10.596 -1.1766  0.1048 -0.0112
 4486TIP3    H237654   4.021   3.465  10.707 -2.0830  0.9741  0.5445
 4487TIP3   OH237655   5.002   0.227  10.173 -0.4139 -0.0320 -0.3999
 4487TIP3    H137656   4.931   0.289  10.161  0.7685  1.9819  2.0765
 4487TIP3    H237657   5.069   0.255  10.110  0.8307  2.5084  1.8795
 4488TIP3   OH237658   1.894   3.109  10.355  0.3926 -0.0563 -0.3457
 4488TIP3    H137659   1.982   3.136  10.329  0.1020  0.1430 -1.1573
 4488TIP3    H237660   1.895   3.111  10.451  1.0293  0.7185 -0.3641
 4489TIP3   OH237661   1.574   1.051  11.293  0.3861  0.4215  0.6265
 4489TIP3    H137662   1.637   0.983  11.317 -0.5779 -1.8983 -2.7021
 4489TIP3    H237663   1.507   1.046  11.361  0.8681 -1.2849  1.0407
 4490TIP3   OH237664   5.198   4.839  10.717  0.2422 -0.3267  0.1150
 4490TIP3    H137665   5.223   4.899  10.647 -1.0209 -0.6830 -0.6783
 4490TIP3    H237666   5.280   4.797  10.743  0.7104 -0.3286 -1.2802
 4491TIP3   OH237667   0.830   0.767  10.996  0.1000 -0.6774 -0.1527
 4491TIP3    H137668   0.794   0.723  10.919  0.6791 -0.2996 -0.6501
 4491TIP3    H237669   0.856   0.854  10.964 -1.6160  0.2985  0.9443
 4492TIP3   OH237670   0.640   1.189  10.953 -0.3657 -0.2032 -0.3974
 4492TIP3    H137671   0.692   1.241  11.015 -0.1993  0.3954 -1.0217
 4492TIP3    H237672   0.549   1.206  10.980 -0.2952  0.0382 -0.2994
 4493TIP3   OH237673   3.567   4.950  10.331  0.1999 -0.1109  0.0456
 4493TIP3    H137674   3.518   4.890  10.275 -1.1968  0.6436  0.4163
 4493TIP3    H237675   3.659   4.931  10.312 -0.2025  0.5716 -2.9979
 4494TIP3   OH237676   6.366   0.776  11.031  0.0257  0.2616  0.2925
 4494TIP3    H137677   6.370   0.706  11.097 -0.3152  0.0763  0.1178
 4494TIP3    H237678   6.277   0.771  10.996  0.1297  0.5182 -0.0137
 4495TIP3   OH237679   3.604   6.432  10.346  0.5470  0.0787  0.5058
 4495TIP3    H137680   3.694   6.461  10.353  1.0180 -1.4142  0.9745
 4495TIP3    H237681   3.599   6.389  10.261  0.6723 -1.1070  1.0849
 4496TIP3   OH237682   5.184   2.452   9.390  0.3552  0.6668 -0.0207
 4496TIP3    H137683   5.265   2.468   9.438  0.4057  2.4266 -0.6195
 4496TIP3    H237684   5.127   2.409   9.453  1.1407  1.0132  0.9564
 4497TIP3   OH237685   3.087   3.137   9.049  0.9139 -0.4076 -0.2133
 4497TIP3    H137686   3.059   3.229   9.043  0.4698 -0.5736 -0.7799
 4497TIP3    H237687   3.182   3.141   9.055  0.8846  0.1013 -0.0491
 4498TIP3   OH237688   0.467   1.424  11.047  0.0206  0.1759  0.4321
 4498TIP3    H137689   0.527   1.467  11.107 -0.6142 -0.2102  1.3639
 4498TIP3    H237690   0.448   1.491  10.980 -0.3518  1.0871  1.4250
 4499TIP3   OH237691   3.120   0.402  11.512  0.1558  0.2101 -0.3106
 4499TIP3    H137692   3.037   0.423  11.554 -0.9318 -0.0553 -2.1987
 4499TIP3    H237693   3.156   0.487  11.485 -0.3343  0.2213 -0.9469
 4500TIP3   OH237694   2.604   1.397  10.459  0.3125 -0.2472  0.4098
 4500TIP3    H137695   2.646   1.379  10.543 -1.6173 -0.6375  1.3608
 4500TIP3    H237696   2.520   1.350  10.464 -1.1291  2.0509 -0.5263
 4501TIP3   OH237697   2.436   2.017  10.232  0.2413  0.6381 -0.2402
 4501TIP3    H137698   2.401   2.096  10.192  0.3753  1.5837  1.4060
 4501TIP3    H237699   2.388   2.009  10.315 -0.0161 -1.2109 -0.5314
 4502TIP3   OH237700   4.022   4.849  11.467  0.1323  0.1360  0.2028
 4502TIP3    H137701   4.106   4.814  11.438  0.6802  1.8035 -0.3362
 4502TIP3    H237702   4.044   4.911  11.537 -0.3765  2.1027 -1.2724
 4503TIP3   OH237703   4.730   0.757   9.502  0.6428  0.1169 -0.0101
 4503TIP3    H137704   4.800   0.820   9.524  0.8901 -0.6908  1.6576
 4503TIP3    H237705   4.656   0.812   9.476  0.7805  1.1485  1.6233
 4504TIP3   OH237706   5.513   2.892  10.464 -0.1036 -0.5015 -0.0386
 4504TIP3    H137707   5.578   2.898  10.533 -0.0653 -1.0367 -0.0235
 4504TIP3    H237708   5.435   2.933  10.501  0.0776 -0.2916  0.1159
 4505TIP3   OH237709   0.001   2.407  11.445  0.1342 -0.1488  0.0383
 4505TIP3    H137710  -0.014   2.413  11.350  3.5162 -2.4170 -0.8338
 4505TIP3    H237711   0.079   2.461  11.459  1.3255 -1.9946  0.9157
 4506TIP3   OH237712   0.878   6.375  10.198  0.7635 -0.1492  0.1556
 4506TIP3    H137713   0.921   6.460  10.204  0.6872 -0.1562  0.8606
 4506TIP3    H237714   0.850   6.355  10.287  2.8243 -1.9886  0.4700
 4507TIP3   OH237715   2.458   3.268   8.884 -0.2563  0.6521  0.6009
 4507TIP3    H137716   2.553   3.259   8.896 -0.1494 -1.4936 -1.1346
 4507TIP3    H237717   2.441   3.361   8.899  2.1281  1.1136  0.9048
 4508TIP3   OH237718   0.638   6.394  11.474  0.1917  0.4685 -0.4966
 4508TIP3    H137719   0.652   6.321  11.535  0.3942 -0.0504 -1.1431
 4508TIP3    H237720   0.545   6.413  11.481  0.3453  0.9088  0.5047
 4509TIP3   OH237721   1.534   1.409   9.665  0.0611 -0.0109  0.0723
 4509TIP3    H137722   1.574   1.371   9.744  0.5517 -0.4357 -0.3710
 4509TIP3    H237723   1.445   1.371   9.664  0.7461 -1.6964 -0.6996
 4510TIP3   OH237724   1.386   0.498  10.736 -0.5203 -0.2453  0.1606
 4510TIP3    H137725   1.316   0.461  10.788 -0.3900 -1.6710 -0.6414
 4510TIP3    H237726   1.439   0.423  10.709  0.1412  0.5888 -0.9513
 4511TIP3   OH237727   2.131   3.939  10.803 -0.0110 -0.0249  0.1072
 4511TIP3    H137728   2.068   3.868  10.807 -0.2159  0.0603 -1.1736
 4511TIP3    H237729   2.187   3.926  10.879 -1.4012 -0.2423  1.1335
 4512TIP3   OH237730   0.090   0.565  10.634 -0.3747 -0.5985 -0.6782
 4512TIP3    H137731   0.036   0.620  10.692  0.0793 -1.9807  1.1486
 4512TIP3    H237732   0.171   0.615  10.624 -0.9515  0.2622 -1.2381
 4513TIP3   OH237733   1.453   3.805   9.126 -0.0680  0.0562  0.0976
 4513TIP3    H137734   1.366   3.829   9.158  0.0474  0.8090 -0.1274
 4513TIP3    H237735   1.440   3.722   9.080 -0.9131  0.7706 -0.9939
 4514TIP3   OH237736   4.152   2.718  10.343  0.3271 -0.0441 -0.1396
 4514TIP3    H137737   4.074   2.663  10.337 -0.3617  0.8098  0.6179
 4514TIP3    H237738   4.126   2.800  10.300  1.0098  0.0344 -0.4020
 4515TIP3   OH237739   0.879   1.777   9.821 -0.3644  0.1051  0.0242
 4515TIP3    H137740   0.895   1.821   9.738 -1.7664 -1.0833 -0.9302
 4515TIP3    H237741   0.958   1.794   9.873  0.9103  0.1833 -1.8360
 4516TIP3   OH237742   6.409   1.049  10.270 -0.2837 -0.3729  0.2265
 4516TIP3    H137743   6.449   0.964  10.254  3.1694  1.2683 -0.8981
 4516TIP3    H237744   6.420   1.063  10.364  1.9353 -0.0170 -0.0287
 4517TIP3   OH237745   3.657   1.000  11.497 -0.2816  0.0532  0.0521
 4517TIP3    H137746   3.718   1.071  11.475  0.1272 -0.3769 -0.2109
 4517TIP3    H237747   3.600   0.994  11.420 -1.8416  1.6678  1.0117
 4518TIP3   OH237748   4.368   5.240   9.369 -0.9111 -0.1089  0.2210
 4518TIP3    H137749   4.279   5.261   9.339 -1.4208 -1.4240  0.7256
 4518TIP3    H237750   4.378   5.147   9.350  0.7759  0.2420 -0.7904
 4519TIP3   OH237751   6.256   4.073  10.680  0.3902  0.2507  0.0521
 4519TIP3    H137752   6.322   4.067  10.749  1.0863 -2.7856 -0.7268
 4519TIP3    H237753   6.173   4.056  10.724  0.9394 -2.7747  0.1319
 4520TIP3   OH237754   3.174   2.901  11.137 -0.6436 -0.2875 -0.3220
 4520TIP3    H137755   3.091   2.892  11.183 -0.4079 -0.2960  0.1009
 4520TIP3    H237756   3.227   2.827  11.167 -1.3090 -1.6854 -2.3755
 4521TIP3   OH237757   0.260   1.763   8.656 -0.0123 -0.1450  0.2157
 4521TIP3    H137758   0.195   1.746   8.588 -1.4565  1.9379  0.9749
 4521TIP3    H237759   0.323   1.692   8.647 -0.5202 -0.3479 -2.8088
 4522TIP3   OH237760   1.694   3.479  11.181 -0.0201 -0.7938  0.1727
 4522TIP3    H137761   1.693   3.432  11.097  2.8476 -0.0332 -0.4001
 4522TIP3    H237762   1.755   3.430  11.236 -0.9640 -0.6133  1.4074
 4523TIP3   OH237763   5.218   1.477   8.055 -0.3514  0.0606 -0.1434
 4523TIP3    H137764   5.273   1.403   8.033 -1.8511 -1.6401  1.4834
 4523TIP3    H237765   5.136   1.461   8.008 -0.2825  1.3401 -0.7365
 4524TIP3   OH237766   5.117   0.094  11.093 -0.1749 -0.5338 -0.3637
 4524TIP3    H137767   5.156   0.041  11.024  1.3771 -0.2386  0.2429
 4524TIP3    H237768   5.071   0.031  11.149 -0.6984 -0.8750 -1.1627
 4525TIP3   OH237769   4.382   2.676  11.157 -0.3420 -0.1294 -0.1833
 4525TIP3    H137770   4.339   2.627  11.227 -1.7359  0.2546 -0.7401
 4525TIP3    H237771   4.412   2.609  11.096 -0.5623 -0.3877 -0.0138
 4526TIP3   OH237772   5.789   3.909  10.957 -0.1708 -0.4884 -0.3524
 4526TIP3    H137773   5.779   3.864  11.041  1.3208  0.9427  0.6461
 4526TIP3    H237774   5.754   3.996  10.971 -0.0538 -0.2730 -1.2826
 4527TIP3   OH237775   3.775   1.711  10.549  0.0227  0.5831  0.3800
 4527TIP3    H137776   3.802   1.660  10.473  0.2227  0.2520  0.6732
 4527TIP3    H237777   3.702   1.661  10.586  0.4803  0.3001  0.9009
 4528TIP3   OH237778   2.138   5.414  11.135  0.2851 -0.0122 -0.2897
 4528TIP3    H137779   2.150   5.462  11.053 -0.1865 -0.2222 -0.4826
 4528TIP3    H237780   2.051   5.438  11.165 -0.7608 -2.1754 -1.3697
 4529TIP3   OH237781   1.926   4.437   9.210  0.2178  0.2452 -0.2903
 4529TIP3    H137782   1.924   4.433   9.114  2.2069  0.0670 -0.3500
 4529TIP3    H237783   1.934   4.530   9.230  0.2853  0.2415 -0.3022
 4530TIP3   OH237784   4.571   0.617   9.167  0.5130  0.0490 -0.1306
 4530TIP3    H137785   4.576   0.632   9.073 -1.0397 -1.4026 -0.5077
 4530TIP3    H237786   4.654   0.648   9.202  0.5401  1.9524 -1.7726
 4531TIP3   OH237787   4.548   1.725  11.132 -0.3290 -0.2926  0.0756
 4531TIP3    H137788   4.507   1.722  11.045  2.0242  1.1974 -1.1773
 4531TIP3    H237789   4.612   1.653  11.131  0.1077  0.0892  0.3686
 4532TIP3   OH237790   0.129   6.044  11.990  0.0880  0.4334  0.6019
 4532TIP3    H137791   0.049   6.080  12.029 -1.7120 -0.4916 -1.9201
 4532TIP3    H237792   0.112   5.950  11.983  1.4759  0.1877  0.1574
 4533TIP3   OH237793   5.970   0.691  11.239 -0.0187 -0.3916 -0.6735
 4533TIP3    H137794   6.001   0.670  11.151  2.1627 -0.2147 -0.0104
 4533TIP3    H237795   5.943   0.783  11.234 -1.0766 -0.7322 -1.4286
 4534TIP3   OH237796   3.171   6.652  10.945  0.7302 -0.2653 -0.5208
 4534TIP3    H137797   3.174   6.604  10.862  1.9883 -1.0032 -0.0876
 4534TIP3    H237798   3.121   6.731  10.925  0.4899 -0.7111 -1.8234
 4535TIP3   OH237799   5.414   4.154   9.469  0.3521 -0.0996  0.4597
 4535TIP3    H137800   5.463   4.122   9.393  0.9949  0.6652  0.5408
 4535TIP3    H237801   5.452   4.240   9.488 -0.0268 -0.1370  1.4464
 4536TIP3   OH237802   3.811   1.418  11.571  0.2514  0.0616  0.3336
 4536TIP3    H137803   3.819   1.331  11.609 -1.6996  0.3109  1.4652
 4536TIP3    H237804   3.894   1.461  11.591  0.8919 -1.2191  0.5600
 4537TIP3   OH237805   5.305   0.534  10.717  0.3311 -0.4645  0.0346
 4537TIP3    H137806   5.228   0.576  10.756 -0.8774 -1.9968 -0.6061
 4537TIP3    H237807   5.349   0.605  10.670  0.4985  0.8979  2.1248
 4538TIP3   OH237808   0.885   5.114   9.092  0.3952 -0.1322 -0.0049
 4538TIP3    H137809   0.957   5.081   9.038  1.1307 -0.2729  1.0178
 4538TIP3    H237810   0.906   5.084   9.180  0.2048  1.6178  0.6760
 4539TIP3   OH237811   2.703   5.039  11.613 -0.6037 -0.2497 -0.2573
 4539TIP3    H137812   2.612   5.065  11.603 -0.5846 -0.5042 -1.1959
 4539TIP3    H237813   2.742   5.052  11.527 -0.2395 -1.9756 -0.4048
 4540TIP3   OH237814   2.940   2.329  11.531 -0.1791 -0.1117 -0.6758
 4540TIP3    H137815   2.993   2.256  11.498  0.4173 -0.0220  0.0595
 4540TIP3    H237816   2.892   2.360  11.454  1.3185  0.2241 -1.5209
 4541TIP3   OH237817   2.483   5.080  11.192 -0.0303 -0.2335 -0.0711
 4541TIP3    H137818   2.425   5.130  11.249  0.4756  0.5117 -0.1839
 4541TIP3    H237819   2.460   5.107  11.103  1.0448  0.7377 -0.0823
 4542TIP3   OH237820   1.685   4.784  11.292 -0.1452  0.0848 -0.3692
 4542TIP3    H137821   1.614   4.799  11.229 -1.2970  1.6946  1.2078
 4542TIP3    H237822   1.756   4.840  11.260  0.0559 -0.7100 -1.3665
 4543TIP3   OH237823   4.533   3.329   8.730 -0.2305 -0.3053  0.7023
 4543TIP3    H137824   4.543   3.374   8.814 -0.9938  2.6797 -0.6697
 4543TIP3    H237825   4.619   3.338   8.689 -0.1936 -0.7550  0.6736
 4544TIP3   OH237826   4.770   2.163  11.619 -0.1484 -0.2679  0.2487
 4544TIP3    H137827   4.801   2.073  11.627 -2.5235 -1.2586 -0.6171
 4544TIP3    H237828   4.721   2.179  11.700  1.0259  0.6123  0.8106
 4545TIP3   OH237829   1.263   0.876   9.599  0.4322 -0.1660  0.0178
 4545TIP3    H137830   1.327   0.844   9.662 -0.0319  0.0962  0.6305
 4545TIP3    H237831   1.287   0.968   9.587  0.6176 -0.2557 -0.3173
 4546TIP3   OH237832   6.705   2.227   9.652 -0.6553 -0.2429 -0.2816
 4546TIP3    H137833   6.622   2.187   9.629  0.0246 -2.2918  0.6174
 4546TIP3    H237834   6.768   2.190   9.591  0.2241 -1.7042  1.4138
 4547TIP3   OH237835   5.691   5.056   9.032  0.5153 -0.8313  0.3424
 4547TIP3    H137836   5.665   5.119   8.965  1.9002  0.4294  0.9420
 4547TIP3    H237837   5.787   5.060   9.033  0.5317  0.0259  3.1376
 4548TIP3   OH237838   0.184   2.532  10.922  0.2049 -0.1880  0.3486
 4548TIP3    H137839   0.094   2.500  10.920 -0.1498  0.8329 -0.5445
 4548TIP3    H237840   0.187   2.602  10.858  1.3548  0.5769  1.1848
 4549TIP3   OH237841   2.785   2.091   9.602 -0.1141  0.1446 -0.5038
 4549TIP3    H137842   2.868   2.061   9.566 -0.2777  0.0599 -0.8124
 4549TIP3    H237843   2.786   2.186   9.592  0.1476  0.1888 -0.0747
 4550TIP3   OH237844   2.105   0.851  10.351  0.5982  0.0766  0.0620
 4550TIP3    H137845   2.065   0.862  10.265  1.7565  2.2479 -0.2634
 4550TIP3    H237846   2.199   0.845  10.333  1.1343  3.1428  1.2484
 4551TIP3   OH237847   1.549   3.898  10.749  0.1112 -0.2524 -0.0926
 4551TIP3    H137848   1.456   3.914  10.761  0.0801 -0.0807 -0.5507
 4551TIP3    H237849   1.588   3.918  10.835 -0.3471 -0.9584  0.2887
 4552TIP3   OH237850   0.006   6.401   9.680  0.1930 -0.4530  0.8388
 4552TIP3    H137851  -0.024   6.339   9.613  0.4834  1.9898 -1.7727
 4552TIP3    H237852  -0.073   6.426   9.728 -0.8128  0.5888 -1.2293
 4553TIP3   OH237853   4.801   0.362   9.992  0.4603 -0.3547  0.4387
 4553TIP3    H137854   4.859   0.438   9.996  2.0034 -1.2794 -2.0069
 4553TIP3    H237855   4.717   0.398   9.962  1.1912  0.4361 -0.7525
 4554TIP3   OH237856   2.892   3.606  11.025 -0.0917  0.3303  0.2117
 4554TIP3    H137857   2.966   3.559  10.987  2.0747  1.3859  2.8074
 4554TIP3    H237858   2.884   3.685  10.971  1.9621  1.0951  0.9234
 4555TIP3   OH237859   2.642   1.999  10.036 -0.4123  0.1867  0.4072
 4555TIP3    H137860   2.588   2.035   9.966  0.7941  0.3980 -0.4575
 4555TIP3    H237861   2.586   2.002  10.114 -1.7090  0.1436 -0.4919
 4556TIP3   OH237862   6.044   3.181  11.259  0.6436 -0.3598  0.6270
 4556TIP3    H137863   6.008   3.093  11.268  2.8477 -1.2804  1.1854
 4556TIP3    H237864   6.120   3.171  11.202 -1.6337  2.0685 -3.2652
 4557TIP3   OH237865   3.137   1.364  11.108 -0.1435 -0.1695 -0.1998
 4557TIP3    H137866   3.217   1.358  11.056 -0.3842  2.2004 -0.9973
 4557TIP3    H237867   3.067   1.373  11.043 -0.8529 -0.5263  0.5009
 4558TIP3   OH237868   3.573   2.733  10.788  0.1300  0.1899 -0.0362
 4558TIP3    H137869   3.508   2.664  10.778  0.4487 -0.2916  1.0215
 4558TIP3    H237870   3.535   2.809  10.745 -0.7379 -0.3338 -0.2045
 4559TIP3   OH237871   1.841   6.268   9.146  0.4187  0.0935 -0.1519
 4559TIP3    H137872   1.794   6.305   9.221 -1.1073 -1.7594 -0.1114
 4559TIP3    H237873   1.779   6.274   9.074  0.6335 -1.1000 -0.4571
 4560TIP3   OH237874   5.803   0.603   8.575  0.3437  0.7107  0.1716
 4560TIP3    H137875   5.835   0.649   8.653 -0.6415 -0.4445  1.2840
 4560TIP3    H237876   5.877   0.549   8.548  1.3863  2.5532 -0.9238
 4561TIP3   OH237877   5.859   5.370   9.172  0.0085  0.3596 -0.2684
 4561TIP3    H137878   5.828   5.385   9.083  1.0382 -0.5962 -0.8227
 4561TIP3    H237879   5.954   5.384   9.167  0.4008 -1.7994  0.1430
 4562TIP3   OH237880   3.114   5.589  11.999 -0.1107  0.0646  0.2950
 4562TIP3    H137881   3.067   5.549  12.073 -2.7239  0.8518 -0.8271
 4562TIP3    H237882   3.127   5.518  11.937 -0.8732  0.0261  0.1596
 4563TIP3   OH237883   2.708   5.503  11.057  0.3966  0.5066  0.2287
 4563TIP3    H137884   2.769   5.500  10.983  1.6845  1.4700  1.2118
 4563TIP3    H237885   2.678   5.593  11.059  0.1998  0.4302  0.7473
 4564TIP3   OH237886   1.948   2.864  10.174  0.0953  0.1811  0.7366
 4564TIP3    H137887   1.988   2.942  10.213 -0.4921  0.8228  0.0843
 4564TIP3    H237888   1.886   2.898  10.110  0.6022 -0.8428 -0.3306
 4565TIP3   OH237889   5.650   1.142   9.539 -0.1884  0.0246  0.8194
 4565TIP3    H137890   5.639   1.209   9.606 -0.9252 -0.7592  1.5010
 4565TIP3    H237891   5.686   1.190   9.464  1.0827  0.8398  1.8954
 4566TIP3   OH237892   5.840   2.997  10.060 -0.3158  0.0650  0.4818
 4566TIP3    H137893   5.806   2.911  10.036 -0.6167  0.5100 -0.7542
 4566TIP3    H237894   5.843   3.046   9.977 -0.9082  1.5103  1.2803
 4567TIP3   OH237895   3.727   4.992  10.995 -0.7427  0.5413  0.6588
 4567TIP3    H137896   3.813   4.953  10.981 -0.1126  1.8930  0.5650
 4567TIP3    H237897   3.708   4.977  11.087  0.4580  1.8379  1.1474
 4568TIP3   OH237898   3.688   1.792   9.662  0.5401  0.2928  0.0933
 4568TIP3    H137899   3.732   1.725   9.714 -1.1015 -0.1329  0.9929
 4568TIP3    H237900   3.751   1.814   9.593  1.8481 -0.8024  0.8888
 4569TIP3   OH237901   2.316   3.558  10.590 -0.2023 -0.0892  0.0009
 4569TIP3    H137902   2.314   3.654  10.593 -0.9784 -0.1139  0.4696
 4569TIP3    H237903   2.375   3.538  10.517  0.8003  0.7342  0.5501
 4570TIP3   OH237904   2.473   4.999  10.514  0.9740 -0.5441  0.5414
 4570TIP3    H137905   2.425   4.917  10.502  0.1616 -0.3598  2.1486
 4570TIP3    H237906   2.551   4.974  10.564  0.4023 -0.2902  1.6026
 4571TIP3   OH237907   4.056   6.727  11.087  0.5564 -0.1834 -0.0916
 4571TIP3    H137908   4.017   6.645  11.056 -0.5992  0.1930  0.3338
 4571TIP3    H237909   3.983   6.787  11.097  1.5196  1.3495 -1.6498
 4572TIP3   OH237910   0.542   3.631   9.583 -0.6766 -0.2432 -0.0138
 4572TIP3    H137911   0.500   3.573   9.647 -1.6516 -0.7368 -1.0682
 4572TIP3    H237912   0.606   3.576   9.538 -0.9747 -0.2744 -0.4063
 4573TIP3   OH237913   4.959   4.478   9.042 -0.0457 -0.2328  0.4596
 4573TIP3    H137914   4.964   4.574   9.039 -1.8781 -0.0936 -2.6359
 4573TIP3    H237915   4.868   4.461   9.068 -0.1005 -1.0697 -0.2553
 4574TIP3   OH237916   4.285   6.175  11.611  0.3340 -0.3278  0.5363
 4574TIP3    H137917   4.253   6.251  11.561 -0.4031 -0.9411  0.0375
 4574TIP3    H237918   4.255   6.100  11.560  1.2047 -0.9547  0.9313
 4575TIP3   OH237919   5.507   0.210   9.560  0.5547 -0.1014 -0.0271
 4575TIP3    H137920   5.454   0.137   9.527 -0.4000  0.2358  0.7221
 4575TIP3    H237921   5.511   0.197   9.654  1.1159  0.3303  0.0121
 4576TIP3   OH237922   4.009   3.095  12.027  0.5273 -0.1590 -0.2285
 4576TIP3    H137923   4.005   3.030  12.097  1.7871 -0.2020 -0.1734
 4576TIP3    H237924   3.956   3.168  12.058  1.2838 -0.0720  0.8868
 4577TIP3   OH237925   0.047   4.866   9.128 -0.2618 -0.1521 -0.1735
 4577TIP3    H137926   0.141   4.883   9.142 -0.1169 -1.9989  1.6102
 4577TIP3    H237927   0.033   4.884   9.035  2.1648 -0.9882 -0.7771
 4578TIP3   OH237928   3.317   2.080   9.141 -0.2689  0.4289  0.4727
 4578TIP3    H137929   3.348   2.123   9.061 -0.0992 -1.0744 -0.3216
 4578TIP3    H237930   3.384   2.099   9.206  0.8094 -0.2287 -0.3991
 4579TIP3   OH237931   6.475   4.688  11.092 -0.0654  0.3281  0.2745
 4579TIP3    H137932   6.533   4.658  11.022  0.5452  1.4156  0.2961
 4579TIP3    H237933   6.517   4.658  11.172 -0.3326 -0.1959  0.2250
 4580TIP3   OH237934   2.914   5.942  10.655 -0.3807  0.2571 -0.2829
 4580TIP3    H137935   2.839   5.939  10.596 -0.1557  0.1289 -0.5649
 4580TIP3    H237936   2.954   6.027  10.640 -0.7878  0.5554  0.2698
 4581TIP3   OH237937   2.232   6.215  10.169 -0.3166 -0.4989 -0.3614
 4581TIP3    H137938   2.315   6.226  10.122 -1.3276  0.5178 -2.0120
 4581TIP3    H237939   2.208   6.124  10.155  1.5238 -1.4174  1.9448
 4582TIP3   OH237940   6.673   0.226  10.288  0.3567 -0.5483 -0.4803
 4582TIP3    H137941   6.697   0.205  10.197  1.4697 -1.4453  0.0044
 4582TIP3    H237942   6.754   0.255  10.328  0.0539 -0.9490  0.4528
 4583TIP3   OH237943   0.753   1.198   9.656 -0.4469 -0.3190  0.7189
 4583TIP3    H137944   0.671   1.178   9.610 -0.5630  1.1659  0.2273
 4583TIP3    H237945   0.733   1.275   9.709  1.2316  1.7263 -1.3834
 4584TIP3   OH237946   5.831   2.325  10.701  0.0315  0.4142 -0.8845
 4584TIP3    H137947   5.747   2.370  10.715  0.1112  0.4023 -0.3248
 4584TIP3    H237948   5.896   2.395  10.703  0.1795  0.2706  0.2310
 4585TIP3   OH237949   5.743   5.377  11.167 -0.3655 -0.3306 -0.3404
 4585TIP3    H137950   5.829   5.406  11.137 -0.2034  0.1630  0.5671
 4585TIP3    H237951   5.686   5.453  11.153 -0.0452  0.3078  1.5969
 4586TIP3   OH237952   6.191   5.463   7.995 -0.2294  0.6989  0.3377
 4586TIP3    H137953   6.204   5.429   8.084 -0.0069 -0.1763 -0.0236
 4586TIP3    H237954   6.152   5.550   8.009 -2.1859 -0.2469  1.2768
 4587TIP3   OH237955   4.259   5.666  10.480  0.3692 -0.4596  0.1769
 4587TIP3    H137956   4.299   5.631  10.401 -1.1593 -1.0711 -0.3696
 4587TIP3    H237957   4.201   5.596  10.511  0.9032 -0.2235  1.8320
 4588TIP3   OH237958   0.016   1.561  10.083  0.1812  0.0147 -0.4064
 4588TIP3    H137959   0.083   1.496  10.103 -0.2441 -0.2156  0.2925
 4588TIP3    H237960  -0.042   1.517  10.020 -0.0944 -0.2800  0.0485
 4589TIP3   OH237961   2.287   1.506  10.515  0.7282  0.0428 -0.1479
 4589TIP3    H137962   2.193   1.515  10.498  1.2548  0.7735 -3.4056
 4589TIP3    H237963   2.314   1.432  10.460  1.7843 -1.6125  2.4242
 4590TIP3   OH237964   2.322   1.158  10.058 -0.1976 -0.1934  0.0246
 4590TIP3    H137965   2.403   1.109  10.071 -0.0417  0.7194  3.1431
 4590TIP3    H237966   2.252   1.092  10.064  0.1706 -0.5194  0.8356
 4591TIP3   OH237967   4.335   5.613   9.158  0.1813  0.0995  0.2247
 4591TIP3    H137968   4.269   5.552   9.188 -0.0657  0.7666  1.0867
 4591TIP3    H237969   4.395   5.561   9.105 -0.6663 -0.6383 -0.0190
 4592TIP3   OH237970   4.611   6.042  10.168 -0.2182 -0.2628  0.1313
 4592TIP3    H137971   4.532   5.989  10.160 -0.4151  0.2642 -2.0531
 4592TIP3    H237972   4.626   6.049  10.262 -1.2521 -2.5759  0.5346
 4593TIP3   OH237973   1.431   4.782   9.413 -0.1312  0.4156  0.2133
 4593TIP3    H137974   1.444   4.871   9.380 -0.1291 -0.2011 -1.5803
 4593TIP3    H237975   1.347   4.755   9.377  1.3412 -1.4442 -2.1703
 4594TIP3   OH237976   1.463   2.029  10.111 -0.3416  0.0744  0.2174
 4594TIP3    H137977   1.515   1.986  10.179  0.4067  1.4302  0.5408
 4594TIP3    H237978   1.381   1.980  10.109  0.5216 -1.4554  0.4360
 4595TIP3   OH237979   1.889   2.227   8.875 -0.4684 -0.5027 -0.7164
 4595TIP3    H137980   1.856   2.142   8.845  1.1831 -1.5615  0.3067
 4595TIP3    H237981   1.983   2.223   8.860 -0.0836  0.3503  1.1900
 4596TIP3   OH237982   5.622   1.412  11.017 -0.2362  0.0468 -1.2377
 4596TIP3    H137983   5.659   1.418  11.105  1.9307 -0.3944 -2.0604
 4596TIP3    H237984   5.535   1.376  11.030 -0.7817  1.8794  0.8848
 4597TIP3   OH237985   0.906   5.538  11.245 -0.1459 -0.3655  0.0557
 4597TIP3    H137986   0.824   5.547  11.197  0.0896 -2.3490 -0.7952
 4597TIP3    H237987   0.880   5.530  11.337 -0.7657  0.6591 -0.0101
 4598TIP3   OH237988   6.527   2.622  10.544 -0.1300 -0.0142  0.3948
 4598TIP3    H137989   6.488   2.675  10.614 -0.0458 -0.8818  1.1241
 4598TIP3    H237990   6.538   2.535  10.584 -2.5954 -1.3213 -1.5121
 4599TIP3   OH237991   4.495   5.501   9.863  0.5029 -0.2552 -0.0673
 4599TIP3    H137992   4.424   5.479   9.922 -0.6055  1.2612 -0.7586
 4599TIP3    H237993   4.477   5.451   9.783  2.4776 -2.9969  1.0276
 4600TIP3   OH237994   5.973   3.363  11.050  0.5574 -0.3839 -0.4398
 4600TIP3    H137995   5.884   3.390  11.029  0.3884 -0.4396  0.1694
 4600TIP3    H237996   5.963   3.305  11.126  1.2511  1.1123  0.8553
 4601TIP3   OH237997   4.638   1.894   9.706 -0.0272  0.5828 -0.5043
 4601TIP3    H137998   4.560   1.930   9.665 -1.9939 -1.9052  0.7765
 4601TIP3    H237999   4.607   1.854   9.788  2.4638 -1.0086 -0.2108
 4602TIP3   OH238000   5.974   6.083  11.873 -0.0393  0.4641  0.0626
 4602TIP3    H138001   6.013   6.121  11.953 -0.7743 -0.9654  1.1501
 4602TIP3    H238002   6.049   6.064  11.817  0.5171  1.2313  0.5161
 4603TIP3   OH238003   5.986   2.875  11.432  0.6856  0.2733  0.4162
 4603TIP3    H138004   6.027   2.940  11.488  0.8198 -0.1352  0.7958
 4603TIP3    H238005   5.998   2.792  11.477  2.1914 -0.3113 -0.9615
 4604TIP3   OH238006   5.216   0.102  11.851 -0.6657 -0.1904 -0.7288
 4604TIP3    H138007   5.285   0.164  11.828  1.0380 -2.0324 -0.8537
 4604TIP3    H238008   5.135   0.148  11.829  0.4869  2.0036 -0.7123
 4605TIP3   OH238009   4.031   3.109   9.697 -0.8960  0.1943  0.3155
 4605TIP3    H138010   4.100   3.157   9.650 -0.0231 -1.4045 -0.1218
 4605TIP3    H238011   3.989   3.056   9.630 -1.0447 -0.5292  0.9627
 4606TIP3   OH238012   4.269   3.924   9.841  0.4295  0.2209 -0.5367
 4606TIP3    H138013   4.194   3.867   9.820  0.1989  0.0522  0.6502
 4606TIP3    H238014   4.343   3.864   9.846  0.7357  0.4417 -2.0924
 4607TIP3   OH238015   1.723   0.256  10.947 -0.5329 -0.8196  0.4156
 4607TIP3    H138016   1.705   0.252  10.853  0.3206 -0.5611  0.2376
 4607TIP3    H238017   1.795   0.195  10.961  1.6979  1.6157  0.3111
 4608TIP3   OH238018   3.941   0.710  10.939  0.3497 -0.3814  0.3556
 4608TIP3    H138019   4.029   0.733  10.971  0.4844 -0.6276  0.1649
 4608TIP3    H238020   3.897   0.673  11.016  0.1261  0.4974  0.6714
 4609TIP3   OH238021   3.120   3.208  11.187  0.3067 -0.6666 -0.5693
 4609TIP3    H138022   3.068   3.128  11.188 -0.2839 -0.2850  0.5429
 4609TIP3    H238023   3.070   3.269  11.132 -2.1328  0.7437  2.9178
 4610TIP3   OH238024   0.981   6.622  10.312  0.2527  0.7234 -0.1291
 4610TIP3    H138025   1.025   6.580  10.386 -0.4258  3.2006  1.8097
 4610TIP3    H238026   1.046   6.682  10.276 -0.2213  1.4104  0.1391
 4611TIP3   OH238027   3.617   0.735  10.894  0.1014 -0.5935 -0.2819
 4611TIP3    H138028   3.695   0.774  10.853  0.2996  2.1426  2.3254
 4611TIP3    H238029   3.651   0.693  10.973 -0.8647 -0.7619  0.0497
 4612TIP3   OH238030   2.635   0.908  10.801 -0.3054  0.3117 -0.2689
 4612TIP3    H138031   2.668   0.951  10.879  0.4060 -1.9223  0.7569
 4612TIP3    H238032   2.711   0.900  10.743 -0.3827  0.2293 -0.3604
 4613TIP3   OH238033   1.911   1.750  10.611  0.3408  0.5456 -0.4284
 4613TIP3    H138034   1.853   1.715  10.679 -0.5007 -0.1668 -1.4783
 4613TIP3    H238035   1.855   1.804  10.556  0.9875  1.0301 -0.6307
 4614TIP3   OH238036   0.027   6.050   9.720 -0.2844 -0.0307 -0.3556
 4614TIP3    H138037  -0.018   6.118   9.769 -0.3094 -1.9011  2.4739
 4614TIP3    H238038   0.118   6.079   9.717 -0.5676  0.8383 -0.5251
 4615TIP3   OH238039   0.288   0.870   7.809 -0.1704  0.5064  0.5938
 4615TIP3    H138040   0.204   0.917   7.807 -0.4935 -0.0833 -0.3453
 4615TIP3    H238041   0.267   0.784   7.846 -0.0805  0.1976 -0.0523
 4616TIP3   OH238042   5.505   4.737  10.407 -0.3091  0.3701 -0.3569
 4616TIP3    H138043   5.514   4.796  10.482 -4.2059  0.7439  0.0327
 4616TIP3    H238044   5.473   4.793  10.336  0.1196 -0.5652 -1.3145
 4617TIP3   OH238045   1.925   2.749   9.247 -0.3606  0.0360  0.4586
 4617TIP3    H138046   1.904   2.829   9.294 -0.2236  0.6341 -0.4552
 4617TIP3    H238047   2.005   2.717   9.288  0.6207  1.3758 -0.3147
 4618TIP3   OH238048   4.603   3.454   9.815  0.2347  0.2833  0.1945
 4618TIP3    H138049   4.656   3.509   9.757  0.9153 -0.0929  0.4499
 4618TIP3    H238050   4.665   3.420   9.879 -0.4322  0.3130  0.8648
 4619TIP3   OH238051   0.442   1.477  10.776 -0.1274 -0.3851  0.5555
 4619TIP3    H138052   0.358   1.440  10.804 -0.3398 -0.3980 -0.0936
 4619TIP3    H238053   0.493   1.401  10.749  0.7365 -0.5809  2.5368
 4620TIP3   OH238054   5.121   4.825  11.320  0.0304 -0.4400 -0.1367
 4620TIP3    H138055   5.051   4.858  11.264  0.5588 -1.0411 -1.1945
 4620TIP3    H238056   5.155   4.749  11.272  1.2472 -0.2855  0.4564
 4621TIP3   OH238057   3.396   3.531  10.840  0.5148 -0.0103 -0.2240
 4621TIP3    H138058   3.383   3.541  10.746  0.1314 -0.2754 -0.2038
 4621TIP3    H238059   3.475   3.581  10.859 -0.1786  1.2028 -0.4559
 4622TIP3   OH238060   6.466   3.312   9.789  0.6846 -0.2320 -0.6986
 4622TIP3    H138061   6.505   3.241   9.840  1.4659  1.6085  1.4322
 4622TIP3    H238062   6.404   3.354   9.849 -0.1671  0.5939 -2.0777
 4623TIP3   OH238063   3.403   0.177  10.883  0.3896  0.6128  0.2567
 4623TIP3    H138064   3.375   0.089  10.859  1.7937  0.2233 -0.0380
 4623TIP3    H238065   3.425   0.219  10.800  1.3832  0.6442  0.5302
 4624TIP3   OH238066   2.304   0.556   8.990  0.2937  0.4842  0.1268
 4624TIP3    H138067   2.250   0.599   8.924  0.9227  0.9253 -0.1109
 4624TIP3    H238068   2.392   0.591   8.976  0.3711  0.8914  1.4579
 4625TIP3   OH238069   2.481   3.826   8.652 -0.2649 -0.0416  0.1188
 4625TIP3    H138070   2.469   3.910   8.696 -1.0205 -0.3146  0.4593
 4625TIP3    H238071   2.524   3.847   8.569  0.3285  0.5829  0.5698
 4626TIP3   OH238072   5.230   4.441  10.024  0.2498 -0.3883 -0.3081
 4626TIP3    H138073   5.214   4.370   9.963  0.9349 -0.6671 -0.1713
 4626TIP3    H238074   5.275   4.400  10.098  1.8801  0.3940 -0.8211
 4627TIP3   OH238075   0.665   3.241   9.858 -0.5607  0.2154 -0.3176
 4627TIP3    H138076   0.594   3.220   9.797 -0.1621  1.0358 -1.0779
 4627TIP3    H238077   0.738   3.268   9.802 -0.2993  1.3197  0.5337
 4628TIP3   OH238078   1.746   5.383  11.004  0.0144  0.0973  0.3709
 4628TIP3    H138079   1.790   5.431  11.074 -0.2913 -0.2943  0.8403
 4628TIP3    H238080   1.775   5.426  10.924  1.0423  0.0194  0.6822
 4629TIP3   OH238081   0.533   4.182  10.573  0.3021  0.3613 -0.6324
 4629TIP3    H138082   0.451   4.159  10.530 -1.5396  0.0368  2.7047
 4629TIP3    H238083   0.586   4.102  10.571 -1.0220 -0.5774  0.2805
 4630TIP3   OH238084   1.458   2.767  10.315  0.0838  0.2497 -0.1594
 4630TIP3    H138085   1.541   2.815  10.313 -0.3796  1.0358 -0.9119
 4630TIP3    H238086   1.420   2.788  10.400 -0.9023  2.6272 -1.1118
 4631TIP3   OH238087   6.505   2.361   9.115  0.1814 -0.3935  0.7062
 4631TIP3    H138088   6.539   2.294   9.056 -0.1722 -1.8281  2.0695
 4631TIP3    H238089   6.410   2.354   9.108  0.1347 -0.5301  1.3846
 4632TIP3   OH238090   6.692   2.090   8.715 -0.6420  0.2062  0.0999
 4632TIP3    H138091   6.746   2.164   8.687 -1.0147 -0.1208 -1.6507
 4632TIP3    H238092   6.716   2.074   8.806  0.0403  1.9466  0.2522
 4633TIP3   OH238093   6.675   2.935  11.327 -0.0848 -0.5642 -0.0149
 4633TIP3    H138094   6.694   3.026  11.347  3.3484 -1.1099 -0.1323
 4633TIP3    H238095   6.629   2.903  11.405 -0.2523  0.9562  0.5458
 4634TIP3   OH238096   0.692   0.976   8.930 -0.1707  0.1767 -0.0950
 4634TIP3    H138097   0.697   0.993   8.835  0.3754  0.8281  0.0366
 4634TIP3    H238098   0.685   1.063   8.969  1.8474  0.0994  0.5794
 4635TIP3   OH238099   4.426   5.407   9.589  0.2865 -0.0227 -0.0403
 4635TIP3    H138100   4.465   5.331   9.631 -2.5670 -1.2287  0.6589
 4635TIP3    H238101   4.393   5.375   9.505 -1.0960  0.3527  0.3275
 4636TIP3   OH238102   1.339   6.557  11.287  0.0815  0.4060 -0.7491
 4636TIP3    H138103   1.339   6.590  11.197 -1.0674  1.2079 -0.4711
 4636TIP3    H238104   1.304   6.629  11.339  1.9372  0.4502  0.5471
 4637TIP3   OH238105   0.141   2.215   9.883 -0.0888  0.0516 -0.0198
 4637TIP3    H138106   0.118   2.152   9.952 -1.2921  0.8131  0.3160
 4637TIP3    H238107   0.067   2.211   9.822  1.4237 -1.3574 -1.8624
 4638TIP3   OH238108   2.662   0.003  11.808  0.2792 -0.3751 -0.5032
 4638TIP3    H138109   2.725  -0.032  11.871  0.2549 -1.3847 -1.0210
 4638TIP3    H238110   2.709   0.005  11.725  0.2608  0.8088 -0.5098
 4639TIP3   OH238111   2.793   3.437  12.064 -0.6594 -0.2953  0.2887
 4639TIP3    H138112   2.749   3.509  12.018 -0.8768 -0.4804  0.2058
 4639TIP3    H238113   2.871   3.419  12.011  1.0623  1.8789  1.8842
 4640TIP3   OH238114   4.566   3.858   9.769 -0.3898  0.1134 -0.3608
 4640TIP3    H138115   4.518   3.776   9.785  0.4804 -0.3764 -0.2124
 4640TIP3    H238116   4.566   3.867   9.674 -0.9007  0.1976 -0.3567
 4641TIP3   OH238117   2.277   2.337  11.805 -0.3250 -0.1999 -0.2626
 4641TIP3    H138118   2.280   2.337  11.900 -0.5793  1.6201 -0.2185
 4641TIP3    H238119   2.199   2.388  11.783 -0.0185 -0.1980 -1.4394
 4642TIP3   OH238120   2.682   2.352  11.140  0.1066 -0.6169  0.0351
 4642TIP3    H138121   2.689   2.422  11.074 -0.7183 -1.1642 -0.6588
 4642TIP3    H238122   2.729   2.278  11.101 -0.6943 -1.0566 -0.1123
 4643TIP3   OH238123   6.739   1.827   8.629 -0.0432 -0.8558 -0.7486
 4643TIP3    H138124   6.689   1.751   8.660 -1.4713 -1.2519 -3.6504
 4643TIP3    H238125   6.700   1.902   8.675  1.2507 -1.7417  2.0006
 4644TIP3   OH238126   2.506   3.547   8.488 -0.2869  0.3410  0.1403
 4644TIP3    H138127   2.464   3.631   8.471 -0.3678  0.0715 -1.0816
 4644TIP3    H238128   2.438   3.482   8.468  0.6268 -0.1007 -1.8088
 4645TIP3   OH238129   2.257   5.779  11.475  0.4163  0.4868 -0.2339
 4645TIP3    H138130   2.240   5.841  11.546  0.1841 -0.3476  0.4572
 4645TIP3    H238131   2.337   5.733  11.502  0.4504  0.3181 -0.6172
 4646TIP3   OH238132   5.613   5.450  11.400 -0.0005  0.9409 -0.3309
 4646TIP3    H138133   5.660   5.415  11.324  0.6129 -0.4005  0.6105
 4646TIP3    H238134   5.665   5.420  11.475 -1.3581  1.0310  0.6728
 4647TIP3   OH238135   6.353   5.299   9.905 -0.2266  0.3466  0.2479
 4647TIP3    H138136   6.426   5.290   9.966 -0.7549  0.5575  0.9183
 4647TIP3    H238137   6.337   5.393   9.901 -0.5061  0.2945  0.1568
 4648TIP3   OH238138   5.262   5.871  10.708 -0.6191  0.2375  0.7669
 4648TIP3    H138139   5.325   5.904  10.643 -1.1651  0.0751  0.1488
 4648TIP3    H238140   5.204   5.945  10.725 -0.8959  0.0733  0.5474
 4649TIP3   OH238141   3.048   3.928  10.629 -0.4825  0.0314  0.1311
 4649TIP3    H138142   3.115   3.993  10.649 -2.2993  1.9650  0.3140
 4649TIP3    H238143   3.010   3.958  10.546 -0.8976 -1.2322 -0.1606
 4650TIP3   OH238144   1.506   3.595  10.297 -0.2121  0.3903 -0.1156
 4650TIP3    H138145   1.508   3.522  10.358 -0.2998  0.8360  0.4337
 4650TIP3    H238146   1.418   3.632  10.307  0.8525  2.5972  2.0890
 4651TIP3   OH238147   2.735   6.379  10.011 -0.8064 -0.0194  0.5370
 4651TIP3    H138148   2.814   6.351   9.964  0.4521  1.7393  1.4706
 4651TIP3    H238149   2.738   6.330  10.093 -0.3528  0.4578  0.8119
 4652TIP3   OH238150   3.059   2.088  11.395  0.3462  0.3270 -0.3444
 4652TIP3    H138151   3.016   2.003  11.410 -0.5616  0.5815 -1.3782
 4652TIP3    H238152   3.091   2.083  11.305 -0.2360  1.3055 -0.6154
 4653TIP3   OH238153   6.417   6.045  12.140  0.7212 -0.2392  0.3616
 4653TIP3    H138154   6.356   5.977  12.170 -2.1669  0.8604 -2.3744
 4653TIP3    H238155   6.360   6.114  12.105  3.5560  1.1702 -1.9155
 4654TIP3   OH238156   4.026   5.626   9.372  0.0999 -0.1785 -0.4867
 4654TIP3    H138157   4.001   5.708   9.330 -0.3561 -0.6324 -1.1205
 4654TIP3    H238158   4.086   5.585   9.310  2.4727  0.8683  0.9797
 4655TIP3   OH238159   3.347   2.761  11.571 -0.2528 -0.2999 -0.1799
 4655TIP3    H138160   3.351   2.666  11.557 -1.3353 -0.3551 -0.1804
 4655TIP3    H238161   3.438   2.789  11.570  0.0582 -1.2858 -0.5904
 4656TIP3   OH238162   1.810   2.403  10.427  0.1311  0.3983 -0.1480
 4656TIP3    H138163   1.874   2.473  10.411 -1.0044  1.2144 -1.3422
 4656TIP3    H238164   1.725   2.444  10.408 -0.6176 -1.1214 -0.2023
 4657TIP3   OH238165   3.163   3.826  11.657 -0.7422  0.3122 -0.1417
 4657TIP3    H138166   3.098   3.851  11.723 -0.6220  1.8742 -0.5729
 4657TIP3    H238167   3.242   3.873  11.682 -0.4200  0.1688 -0.8638
 4658TIP3   OH238168   6.593   5.331  10.054  0.3463 -0.0549 -0.0115
 4658TIP3    H138169   6.686   5.347  10.040  0.5852  0.2335  1.7239
 4658TIP3    H238170   6.575   5.366  10.141 -0.8935 -2.0725  0.6163
 4659TIP3   OH238171   5.733   5.893  11.316  0.0948  0.9743 -0.0437
 4659TIP3    H138172   5.789   5.954  11.364  1.0329  0.3775 -0.3516
 4659TIP3    H238173   5.647   5.933  11.318  1.0118  3.3105 -1.8368
 4660TIP3   OH238174   0.300   1.065  10.181 -0.3803 -0.2051  0.3366
 4660TIP3    H138175   0.292   1.106  10.267 -2.4456 -1.0806  0.6256
 4660TIP3    H238176   0.210   1.058  10.149  0.2173 -1.2115 -1.2807
 4661TIP3   OH238177   3.675   5.537  11.161  0.1771 -0.4259  0.0944
 4661TIP3    H138178   3.602   5.555  11.102  0.2119  1.3248  0.5383
 4661TIP3    H238179   3.747   5.510  11.103 -0.2702 -0.3254 -0.5100
 4662TIP3   OH238180   6.736   2.845   9.241 -0.0108 -0.6790 -0.2378
 4662TIP3    H138181   6.674   2.781   9.277 -0.6246 -1.0348 -1.8505
 4662TIP3    H238182   6.790   2.794   9.181  0.9335 -0.0832  0.0902
 4663TIP3   OH238183   5.599   2.912  11.386  0.9362  0.4590  0.1357
 4663TIP3    H138184   5.517   2.961  11.399  0.9409  0.4342  0.2524
 4663TIP3    H238185   5.573   2.820  11.395  1.0166  0.4603  0.3727
 4664TIP3   OH238186   4.206   1.593   9.586 -0.3143  0.0225 -0.3399
 4664TIP3    H138187   4.234   1.502   9.575  0.1908  0.2063 -0.6317
 4664TIP3    H238188   4.126   1.600   9.535  0.5256  0.1564 -1.6636
 4665TIP3   OH238189   4.083   4.264  10.857 -0.2289  0.4243  0.0351
 4665TIP3    H138190   4.030   4.214  10.918 -1.2700 -0.2936 -1.3794
 4665TIP3    H238191   4.091   4.350  10.897  2.7839 -1.1246  3.2029
 4666TIP3   OH238192   1.195   3.865  10.392 -0.0127 -0.2603 -0.0512
 4666TIP3    H138193   1.130   3.908  10.337 -0.3848  0.4221  0.9083
 4666TIP3    H238194   1.230   3.935  10.447 -1.1409 -1.2580  2.0492
 4667TIP3   OH238195   1.406   5.612  10.315 -0.6449 -0.5055 -0.1043
 4667TIP3    H138196   1.482   5.670  10.309 -1.4132  0.5381  0.0698
 4667TIP3    H238197   1.426   5.541  10.254  1.1522 -1.0583  1.0668
 4668TIP3   OH238198   1.813   5.521   9.463  0.2437  0.1617  0.4761
 4668TIP3    H138199   1.785   5.603   9.424  3.2057  1.4298  0.7516
 4668TIP3    H238200   1.798   5.455   9.395 -0.4807  1.2076 -0.4172
 4669TIP3   OH238201   1.215   2.893  10.685 -0.5570 -0.1700 -0.1174
 4669TIP3    H138202   1.307   2.867  10.681 -0.9877 -1.7121 -0.5078
 4669TIP3    H238203   1.209   2.967  10.625  0.3806 -0.2116 -0.2774
 4670TIP3   OH238204   4.799   3.773  10.027  0.2873 -0.0644 -0.3110
 4670TIP3    H138205   4.885   3.743   9.997  0.3458 -2.5844  1.9936
 4670TIP3    H238206   4.759   3.812   9.949  3.0309  0.1737 -1.7444
 4671TIP3   OH238207   1.160   6.297  10.814  0.0995 -0.2793  0.1126
 4671TIP3    H138208   1.224   6.275  10.882  1.7896  0.6786 -1.1009
 4671TIP3    H238209   1.117   6.376  10.846  1.3733  0.5719 -0.1852
 4672TIP3   OH238210   0.592   5.492  11.175  0.1612 -0.0941 -0.8336
 4672TIP3    H138211   0.610   5.573  11.127  0.1883 -0.1816 -0.9729
 4672TIP3    H238212   0.539   5.520  11.249 -1.3803 -0.1606 -1.8551
 4673TIP3   OH238213   2.424   1.123   9.011 -0.1285  0.5888  0.3620
 4673TIP3    H138214   2.490   1.058   9.036  0.1932  0.9917  0.5616
 4673TIP3    H238215   2.396   1.097   8.923 -0.5449 -0.2596  0.7322
 4674TIP3   OH238216   1.905   6.510  10.825 -0.2568 -0.4690 -0.4649
 4674TIP3    H138217   1.836   6.508  10.891  1.1848 -0.0016  1.1455
 4674TIP3    H238218   1.859   6.508  10.742 -2.1901 -0.3840  0.5427
 4675TIP3   OH238219   3.130   5.156  11.297  0.2627 -0.4281  0.0876
 4675TIP3    H138220   3.118   5.171  11.203 -1.8284  0.5375  0.4707
 4675TIP3    H238221   3.214   5.197  11.317 -0.0207  0.7731 -1.0696
 4676TIP3   OH238222   1.070   1.742  11.681 -0.5341  0.8706 -0.4187
 4676TIP3    H138223   1.068   1.647  11.699  1.2461  1.2474  2.4783
 4676TIP3    H238224   0.993   1.776  11.726  0.5339  1.0744  1.3779
 4677TIP3   OH238225   2.735   4.663   9.337 -0.3533  0.1811  0.0450
 4677TIP3    H138226   2.714   4.606   9.263 -1.7287  3.0581 -1.9689
 4677TIP3    H238227   2.656   4.661   9.391 -0.2445 -0.1108  0.1964
 4678TIP3   OH238228   6.383   2.110  11.485 -0.0889 -0.2217 -0.6883
 4678TIP3    H138229   6.473   2.102  11.517 -0.0545  0.0171 -0.7304
 4678TIP3    H238230   6.335   2.148  11.558 -0.4011 -1.4391 -0.2412
 4679TIP3   OH238231   6.503   3.595  11.855 -0.4240 -0.1568  0.4143
 4679TIP3    H138232   6.566   3.529  11.825  0.3372  1.3805 -1.5532
 4679TIP3    H238233   6.555   3.673  11.870 -1.3009  0.0187  2.8394
 4680TIP3   OH238234   5.504   4.399  10.646 -0.5475  0.1874  0.2543
 4680TIP3    H138235   5.417   4.432  10.623 -0.9472 -1.4821 -0.7922
 4680TIP3    H238236   5.502   4.307  10.621  1.3126 -0.0504  0.8489
 4681TIP3   OH238237   5.283   5.844  11.528 -0.0903 -0.1997  0.2408
 4681TIP3    H138238   5.327   5.806  11.603  0.3660 -0.7681 -0.3008
 4681TIP3    H238239   5.235   5.772  11.488 -1.1417  0.3078  0.5399
 4682TIP3   OH238240   0.805   2.536   7.685 -0.6094 -0.5861 -0.0723
 4682TIP3    H138241   0.739   2.589   7.639  0.0971 -0.8335 -1.4334
 4682TIP3    H238242   0.889   2.570   7.653  0.0245  0.4898  2.4738
 4683TIP3   OH238243   6.007   4.534   9.933  0.2775  0.1065 -0.0680
 4683TIP3    H138244   5.957   4.522   9.852 -1.0530 -0.8262  0.8403
 4683TIP3    H238245   5.976   4.463   9.990  1.1555  0.7647  1.2657
 4684TIP3   OH238246   1.593   6.473  10.675  0.2986  0.4279 -0.6485
 4684TIP3    H138247   1.645   6.502  10.600  1.3378 -0.3756 -0.2738
 4684TIP3    H238248   1.508   6.448  10.638  1.4010 -1.7856 -1.9223
 4685TIP3   OH238249   2.122   4.304  10.404  0.6249 -0.3288  0.0869
 4685TIP3    H138250   2.108   4.271  10.315 -1.3773 -0.9566  0.5734
 4685TIP3    H238251   2.148   4.226  10.454  0.5380 -0.2252  0.2943
 4686TIP3   OH238252   5.032   1.135  10.630  0.2105 -0.0099  0.0934
 4686TIP3    H138253   5.079   1.216  10.647 -0.0911 -0.2531  2.3062
 4686TIP3    H238254   4.959   1.161  10.574 -0.4345  1.4309  1.5353
 4687TIP3   OH238255   0.535   4.414  10.200 -0.3593  0.5095 -0.4158
 4687TIP3    H138256   0.592   4.462  10.260  0.4838  0.5629 -1.2343
 4687TIP3    H238257   0.558   4.322  10.212  1.6177  0.6620 -2.3784
 4688TIP3   OH238258   2.933   3.712  10.311 -0.3500  0.2224 -0.0012
 4688TIP3    H138259   2.908   3.680  10.224 -0.9676 -1.3012  0.6907
 4688TIP3    H238260   2.945   3.632  10.363 -0.7740  1.1131  1.5321
 4689TIP3   OH238261   6.366   4.309  10.802  0.4468 -0.7940 -0.0450
 4689TIP3    H138262   6.387   4.386  10.749  1.5805 -0.7638  0.4242
 4689TIP3    H238263   6.316   4.253  10.743 -0.5398  0.3602 -0.3436
 4690TIP3   OH238264   3.874   2.658  10.125 -0.6005 -0.4177 -0.3620
 4690TIP3    H138265   3.887   2.752  10.136 -0.9000 -0.5305  1.1767
 4690TIP3    H238266   3.905   2.620  10.208 -0.4169 -1.6852 -0.9852
 4691TIP3   OH238267   5.164   2.554   9.807 -0.3851  0.2140 -0.1040
 4691TIP3    H138268   5.195   2.468   9.836 -1.3147  0.3645  1.4389
 4691TIP3    H238269   5.241   2.610   9.814 -0.3701  0.0535  1.3577
 4692TIP3   OH238270   0.888   0.712   9.796 -0.9003 -0.3260 -0.4881
 4692TIP3    H138271   0.862   0.622   9.816 -0.3254 -0.3292  0.2644
 4692TIP3    H238272   0.950   0.704   9.724  0.7659 -0.7225  0.9340
 4693TIP3   OH238273   5.293   4.858   9.888 -0.2508 -0.6231  0.5272
 4693TIP3    H138274   5.276   4.856   9.794 -0.6681 -0.8407  0.6037
 4693TIP3    H238275   5.385   4.832   9.897 -0.0606 -0.1044  0.1494
 4694TIP3   OH238276   1.674   3.387  11.709 -0.5919 -0.4748 -0.1111
 4694TIP3    H138277   1.734   3.443  11.758 -1.3488 -1.0602  1.6026
 4694TIP3    H238278   1.718   3.302  11.705  0.4113  0.0920 -2.4171
 4695TIP3   OH238279   2.451   0.057   9.205 -0.2182  1.1193  0.3722
 4695TIP3    H138280   2.422   0.111   9.132  1.2167  2.7554  0.9676
 4695TIP3    H238281   2.515   0.110   9.251 -0.6197 -0.1101  2.4865
 4696TIP3   OH238282   5.628   1.552  11.284 -0.1319 -0.2660 -0.0820
 4696TIP3    H138283   5.546   1.595  11.305 -0.6494 -2.0622  1.9160
 4696TIP3    H238284   5.637   1.482  11.349  2.6983 -0.5077 -0.5681
 4697TIP3   OH238285   6.091   2.775  11.932 -0.5873 -0.4263 -0.2691
 4697TIP3    H138286   6.039   2.824  11.868 -0.9688 -0.6095 -0.1056
 4697TIP3    H238287   6.043   2.784  12.014 -0.5650 -0.9132 -0.1948
 4698TIP3   OH238288   1.360   4.616   8.778  0.2604 -0.4031 -0.0597
 4698TIP3    H138289   1.389   4.534   8.739 -0.7536 -1.0096  0.4182
 4698TIP3    H238290   1.290   4.647   8.720  1.2899  0.6364 -0.7736
 4699TIP3   OH238291   4.532   4.615  11.272  0.2654  0.3257 -0.0943
 4699TIP3    H138292   4.519   4.657  11.357  0.5534 -2.3992  1.4356
 4699TIP3    H238293   4.627   4.611  11.261  0.3525 -1.9847  0.9990
 4700TIP3   OH238294   5.662   0.826  10.226 -0.0925  1.0348 -0.4735
 4700TIP3    H138295   5.616   0.746  10.253  1.3730  0.6901  1.2594
 4700TIP3    H238296   5.728   0.795  10.163  0.6927  0.7738  0.4434
 4701TIP3   OH238297   3.618   2.791  11.560 -0.2204  0.0573  0.3281
 4701TIP3    H138298   3.676   2.806  11.486  1.2348 -5.0273  0.0855
 4701TIP3    H238299   3.666   2.825  11.636 -0.0835  1.9668 -0.5631
 4702TIP3   OH238300   1.111   4.103  10.535  0.7813 -0.4942  0.3015
 4702TIP3    H138301   1.139   4.141  10.452  0.5430 -0.9393  0.0158
 4702TIP3    H238302   1.024   4.139  10.550  1.3776  0.6812  1.0579
 4703TIP3   OH238303   4.874   0.897  10.569 -0.0353  0.1709 -0.1679
 4703TIP3    H138304   4.911   0.888  10.481 -0.5857  0.9598 -0.4899
 4703TIP3    H238305   4.926   0.967  10.610  0.1104 -0.0793  0.0793
 4704TIP3   OH238306   0.534   5.694  11.354 -0.3948  0.1922  0.4155
 4704TIP3    H138307   0.438   5.690  11.353 -0.4814  0.0569 -3.2028
 4704TIP3    H238308   0.554   5.787  11.359 -0.8433  0.3863 -0.8401
 4705TIP3   OH238309   2.503   0.226  11.766 -0.1197 -0.7356  0.2919
 4705TIP3    H138310   2.468   0.245  11.853 -0.2494  1.7416 -0.2247
 4705TIP3    H238311   2.577   0.168  11.782  1.1103  1.2286  2.2931
 4706TIP3   OH238312   1.376   1.082   9.197  0.0571  0.2324  0.0948
 4706TIP3    H138313   1.327   1.003   9.219 -0.2485  0.4514  0.2135
 4706TIP3    H238314   1.426   1.102   9.276  0.2008  0.1081  0.0349
 4707TIP3   OH238315   4.613   1.231   9.460  0.2665 -0.5539 -0.1091
 4707TIP3    H138316   4.708   1.221   9.457  0.2112 -0.9816 -0.4557
 4707TIP3    H238317   4.599   1.309   9.515  0.8773  0.5522 -1.4798
 4708TIP3   OH238318   4.869   5.636  10.887  0.1811  0.1215  0.3935
 4708TIP3    H138319   4.853   5.708  10.826 -0.6584  1.4366  2.0733
 4708TIP3    H238320   4.964   5.628  10.890  0.2384 -0.2226 -1.3133
 4709TIP3   OH238321   1.901   4.046  10.340  0.5812 -0.1656 -0.5000
 4709TIP3    H138322   1.837   4.110  10.372  1.9120  1.1648 -0.3814
 4709TIP3    H238323   1.859   3.961  10.352 -1.1273  0.6589 -0.3715
 4710TIP3   OH238324   6.644   6.715   9.854  0.6896 -0.2741  0.1774
 4710TIP3    H138325   6.612   6.625   9.854 -0.1032 -0.0124  1.1489
 4710TIP3    H238326   6.733   6.708   9.889  1.9839 -1.0591 -2.9727
 4711TIP3   OH238327   3.452   4.447   9.556 -0.0091 -0.0413  0.1375
 4711TIP3    H138328   3.526   4.471   9.500  0.1659 -0.3737  0.2253
 4711TIP3    H238329   3.375   4.477   9.508  0.1624 -0.0211 -0.1246
 4712TIP3   OH238330   5.935   4.887   8.655  0.7611  0.3909 -0.1372
 4712TIP3    H138331   5.955   4.891   8.562 -2.4887  0.7455 -0.9420
 4712TIP3    H238332   5.847   4.923   8.663  0.3593 -0.8663  2.8944
 4713TIP3   OH238333   0.263   5.213   9.578  0.0426 -0.3696  0.1964
 4713TIP3    H138334   0.267   5.282   9.644  1.3690 -1.6339  1.5144
 4713TIP3    H238335   0.348   5.168   9.585 -0.2095 -1.2242 -1.6313
 4714TIP3   OH238336   4.647   3.096  10.141 -0.2911  0.7673 -0.6013
 4714TIP3    H138337   4.722   3.113  10.198  0.7975  0.8582 -2.0138
 4714TIP3    H238338   4.588   3.170  10.155  0.0741  0.9126  0.2070
 4715TIP3   OH238339   6.750   0.043  10.654  0.5825  0.3052 -0.2496
 4715TIP3    H138340   6.805   0.017  10.727  2.0333  0.0471 -1.3812
 4715TIP3    H238341   6.745   0.138  10.659 -0.9009  0.1790  1.2445
 4716TIP3   OH238342   6.048   0.601  10.311  0.1169 -0.5577  0.3020
 4716TIP3    H138343   5.962   0.561  10.327  0.0705 -0.1002  1.2207
 4716TIP3    H238344   6.092   0.540  10.251 -1.1312 -0.4255 -0.8115
 4717TIP3   OH238345   0.840   1.360   8.426 -0.4774  0.1962  0.2118
 4717TIP3    H138346   0.836   1.436   8.484 -0.1285  0.6828 -0.3838
 4717TIP3    H238347   0.886   1.392   8.348 -0.4829 -0.5810 -0.1195
 4718TIP3   OH238348   5.775   3.753   9.819  0.4346  0.3002 -0.4143
 4718TIP3    H138349   5.832   3.691   9.866  1.0831  0.6743 -0.6959
 4718TIP3    H238350   5.687   3.735   9.853  0.7591 -0.0822  0.2477
 4719TIP3   OH238351   3.169   3.957  12.138 -0.4935 -0.3699  0.0553
 4719TIP3    H138352   3.135   4.038  12.177  0.4796  0.4812 -0.8019
 4719TIP3    H238353   3.113   3.888  12.173 -0.5064  0.5131  1.8750
 4720TIP3   OH238354   6.540   3.098   8.507 -0.2014 -0.0994 -0.2216
 4720TIP3    H138355   6.464   3.044   8.527 -1.1292  0.7752 -1.1791
 4720TIP3    H238356   6.512   3.152   8.433  1.5011 -0.0323 -0.8728
 4721TIP3   OH238357   3.245   3.878  11.373 -0.8496  0.2307 -0.1369
 4721TIP3    H138358   3.180   3.854  11.307 -0.9169 -0.4852  0.1796
 4721TIP3    H238359   3.218   3.831  11.452  0.5039 -0.7385 -0.2211
 4722TIP3   OH238360   1.657   1.409  11.833 -0.2486 -0.0979  0.2392
 4722TIP3    H138361   1.576   1.432  11.878 -0.8626 -1.7229  0.0334
 4722TIP3    H238362   1.711   1.488  11.839 -1.4987  0.7297  1.1335
 4723TIP3   OH238363   1.447   2.749  10.693  0.2338  0.2594  0.5088
 4723TIP3    H138364   1.511   2.793  10.637  0.6290  0.1531  0.8735
 4723TIP3    H238365   1.498   2.717  10.767 -0.0928 -0.5993  0.3726
 4724TIP3   OH238366   3.885   3.688  11.379 -0.0981 -0.3041 -0.3656
 4724TIP3    H138367   3.960   3.747  11.381  0.4705 -1.0188 -0.4177
 4724TIP3    H238368   3.859   3.678  11.471 -0.6053  0.5261 -0.4066
 4725TIP3   OH238369   5.535   2.630  10.512 -0.6621  0.6595 -0.4588
 4725TIP3    H138370   5.621   2.607  10.475  0.2117  1.2999  1.0635
 4725TIP3    H238371   5.517   2.717  10.477 -1.3290  0.0097 -1.7994
 4726TIP3   OH238372   6.389   4.099  11.100  0.3722 -0.2535 -0.0748
 4726TIP3    H138373   6.340   4.131  11.176 -0.6315 -0.7212 -0.4949
 4726TIP3    H238374   6.459   4.162  11.088  0.2786  0.0748  0.9639
 4727TIP3   OH238375   2.610   5.460   9.251 -0.0282  0.3142 -0.1242
 4727TIP3    H138376   2.623   5.376   9.294  2.5559  0.4146 -0.4954
 4727TIP3    H238377   2.569   5.438   9.167 -0.1794 -0.4871  0.1547
 4728TIP3   OH238378   6.504   1.663  10.671 -0.4249 -0.3223 -0.0757
 4728TIP3    H138379   6.586   1.638  10.628 -0.3773 -0.5593  0.1493
 4728TIP3    H238380   6.456   1.581  10.679 -1.0021 -0.0750 -0.8646
 4729TIP3   OH238381   1.600   1.862   9.864  0.0705 -0.0814  0.2502
 4729TIP3    H138382   1.593   1.821   9.778 -0.6617  0.1761  0.1812
 4729TIP3    H238383   1.546   1.807   9.922 -1.2386  0.9530  0.0811
 4730TIP3   OH238384   1.438   4.505  11.096  1.2059 -0.5409  0.1195
 4730TIP3    H138385   1.489   4.437  11.052  0.7199 -1.4253  0.8831
 4730TIP3    H238386   1.462   4.498  11.188 -0.3498 -1.0851  0.5245
 4731TIP3   OH238387   1.728   3.968  10.079 -0.6635  0.0441  0.0211
 4731TIP3    H138388   1.706   4.022  10.154 -0.2393  0.3626 -0.0799
 4731TIP3    H238389   1.729   3.878  10.113 -1.7370  0.0477  0.1074
 4732TIP3   OH238390   2.823   6.313  10.671  0.1407 -0.0007 -0.7238
 4732TIP3    H138391   2.740   6.329  10.717  0.3262  0.8155 -0.6491
 4732TIP3    H238392   2.814   6.361  10.589  0.4600 -0.0768 -0.8015
 4733TIP3   OH238393   4.106   5.479   9.821  0.3013 -0.1626  0.3133
 4733TIP3    H138394   4.012   5.480   9.842  0.5399 -2.4861  1.7767
 4733TIP3    H238395   4.112   5.531   9.740 -2.2676 -0.1038  0.0621
 4734TIP3   OH238396   1.893   2.338   9.132  0.8811  0.1574  0.1686
 4734TIP3    H138397   1.886   2.322   9.038 -1.7764  0.2699  0.2580
 4734TIP3    H238398   1.854   2.425   9.144  0.8187 -0.0249  1.3961
 4735TIP3   OH238399   4.789   1.770  11.358  0.0757 -0.1765 -0.0362
 4735TIP3    H138400   4.780   1.699  11.295  0.0529 -1.3416  1.2177
 4735TIP3    H238401   4.822   1.844  11.308 -1.8477 -0.4198 -1.8067
 4736TIP3   OH238402   1.596   1.616   8.975  0.0529  0.3370  0.3324
 4736TIP3    H138403   1.508   1.631   9.011 -0.2472 -1.0696  0.2598
 4736TIP3    H238404   1.646   1.580   9.049  0.6981  1.4969  0.4808
 4737TIP3   OH238405   0.960   2.368   8.262 -0.0525 -0.2183  0.0902
 4737TIP3    H138406   0.950   2.356   8.167  1.2926  1.2288 -0.2827
 4737TIP3    H238407   1.026   2.304   8.287 -0.8412 -1.0100  0.1721
 4738TIP3   OH238408   4.874   4.165   8.664 -0.1408 -0.5014 -0.3656
 4738TIP3    H138409   4.862   4.237   8.726 -0.2576  0.9757 -2.0304
 4738TIP3    H238410   4.838   4.088   8.709 -0.6021  0.5953  1.2149
 4739TIP3   OH238411   2.340   1.779   9.812 -0.5478 -0.0598 -0.2331
 4739TIP3    H138412   2.309   1.834   9.884 -1.5549 -1.2882  0.3031
 4739TIP3    H238413   2.283   1.801   9.738 -0.3162  0.3080 -0.3054
 4740TIP3   OH238414   2.340   0.950   9.569 -0.4276 -0.3803  0.1967
 4740TIP3    H138415   2.354   0.862   9.535  3.1780  0.2826 -0.3923
 4740TIP3    H238416   2.327   1.004   9.491 -1.0386 -0.1110  0.4748
 4741TIP3   OH238417   1.153   1.187  10.395 -0.2213 -0.5712 -0.3232
 4741TIP3    H138418   1.098   1.159  10.468 -1.0413 -1.5504 -1.2817
 4741TIP3    H238419   1.241   1.188  10.431 -0.6895 -0.3017  0.8787
 4742TIP3   OH238420   6.369   3.430  10.015 -0.1898 -0.7526  0.8361
 4742TIP3    H138421   6.351   3.351  10.066 -1.1712 -1.0976 -0.0247
 4742TIP3    H238422   6.385   3.498  10.081 -1.5493 -1.1614  1.6172
 4743TIP3   OH238423   5.364   5.922  11.099 -0.2497 -0.0353 -1.0376
 4743TIP3    H138424   5.425   5.912  11.025  0.0981  0.6677 -0.8467
 4743TIP3    H238425   5.341   6.015  11.099 -1.4752 -0.3221 -1.2190
 4744TIP3   OH238426   0.129   4.188  11.391  0.1872 -0.2219  0.8830
 4744TIP3    H138427   0.190   4.261  11.381  0.5622 -0.6907 -0.5301
 4744TIP3    H238428   0.082   4.184  11.307 -2.1958  0.4441  2.0807
 4745TIP3   OH238429   6.445   3.772   9.887  0.3234  0.5291 -0.1858
 4745TIP3    H138430   6.456   3.736   9.975  2.4297  0.9626 -0.2293
 4745TIP3    H238431   6.429   3.865   9.901 -2.3068  0.1478 -0.1931
 4746TIP3   OH238432   0.066   2.888   9.815 -0.3199  0.0336  0.0472
 4746TIP3    H138433   0.002   2.878   9.885 -1.0279 -0.7323 -0.6913
 4746TIP3    H238434   0.033   2.833   9.743  2.0396 -1.8285  0.2578
 4747TIP3   OH238435   1.383   1.464  10.663 -0.4257  0.5193  0.4780
 4747TIP3    H138436   1.416   1.398  10.603  0.9174  0.7798  0.8956
 4747TIP3    H238437   1.301   1.428  10.696 -0.3928 -0.3193 -0.3226
 4748TIP3   OH238438   1.565   3.043  11.666  0.4335  0.1177  0.6006
 4748TIP3    H138439   1.655   3.029  11.635 -0.0003  0.7590 -1.0752
 4748TIP3    H238440   1.546   3.134  11.643 -0.3876  0.2246  1.6431
 4749TIP3   OH238441   3.426   5.089  11.573 -0.2746  0.1016  0.3380
 4749TIP3    H138442   3.404   5.013  11.519 -0.0901  0.7226 -0.6422
 4749TIP3    H238443   3.521   5.082  11.587 -0.1534  0.4778 -0.2780
 4750TIP3   OH238444   0.718   2.278  11.843 -0.9664 -0.4265 -0.0272
 4750TIP3    H138445   0.625   2.266  11.857 -0.9486  0.1729  0.6538
 4750TIP3    H238446   0.759   2.202  11.885 -1.0341  0.3526  1.5142
 4751TIP3   OH238447   5.465   5.719  10.808  0.2439  0.1885 -0.6625
 4751TIP3    H138448   5.435   5.628  10.811 -0.3136  0.3594 -0.9719
 4751TIP3    H238449   5.386   5.771  10.810  0.4489  0.6277 -2.1233
 4752TIP3   OH238450   1.343   6.431  11.520  0.3722  0.2756  0.4099
 4752TIP3    H138451   1.368   6.464  11.433 -1.6154  0.7999 -0.0021
 4752TIP3    H238452   1.387   6.347  11.527 -0.3446 -0.3244 -1.6049
 4753TIP3   OH238453   5.934   6.430  10.065 -0.0643  0.2116 -0.2110
 4753TIP3    H138454   5.907   6.515  10.099  3.3945  0.9671  1.1049
 4753TIP3    H238455   5.949   6.377  10.144 -0.6536 -1.1293 -0.9685
 4754TIP3   OH238456   6.408   2.604  10.801 -0.1123 -0.3773  0.5059
 4754TIP3    H138457   6.485   2.592  10.855 -1.1157  0.2166  2.1523
 4754TIP3    H238458   6.381   2.695  10.817 -0.1706  0.0081 -1.4178
 4755TIP3   OH238459   6.464   0.457   8.544  0.0358  0.2203 -0.4643
 4755TIP3    H138460   6.418   0.373   8.538 -1.4009  0.9810 -0.6087
 4755TIP3    H238461   6.465   0.490   8.454  0.7933  0.2678 -0.4427
 4756TIP3   OH238462   4.476   6.250  10.025  0.4261  0.6310 -0.1575
 4756TIP3    H138463   4.551   6.215  10.074  0.8502  0.5510 -0.8471
 4756TIP3    H238464   4.406   6.259  10.090  0.3092 -1.4780  0.0615
 4757TIP3   OH238465   5.525   0.923  11.802  0.0366 -0.3691 -0.1507
 4757TIP3    H138466   5.452   0.945  11.744 -0.0998  0.9076  0.4635
 4757TIP3    H238467   5.587   0.995  11.791 -0.7320  0.8053  2.4587
 4758TIP3   OH238468   1.138   6.561   8.951 -0.0255  0.2028  1.2593
 4758TIP3    H138469   1.117   6.480   8.905 -1.4136  0.4316  1.4629
 4758TIP3    H238470   1.092   6.629   8.902 -0.3753  0.6225  2.1543
 4759TIP3   OH238471   2.776   6.622   9.886 -0.0676 -0.6242  0.1970
 4759TIP3    H138472   2.778   6.551   9.951 -2.3563 -0.8471  0.1240
 4759TIP3    H238473   2.778   6.577   9.802 -0.2716 -0.5431  0.1469
 4760TIP3   OH238474   2.451   6.640  11.510  0.4611  0.4797  0.0190
 4760TIP3    H138475   2.356   6.640  11.523  0.2939  0.7696 -1.1150
 4760TIP3    H238476   2.463   6.644  11.415  1.6106  1.0168  0.1659
 4761TIP3   OH238477   5.570   1.420  11.817 -0.5193  0.2361  0.0984
 4761TIP3    H138478   5.495   1.361  11.816 -0.5758  0.2760  1.1912
 4761TIP3    H238479   5.619   1.395  11.896  1.3846 -0.7300 -1.3002
 4762TIP3   OH238480   5.746   1.227   8.756  0.1424 -0.8802  0.2180
 4762TIP3    H138481   5.722   1.246   8.665  1.2516  0.9304  0.2600
 4762TIP3    H238482   5.677   1.167   8.786 -1.2322 -0.1574 -1.2873
 4763TIP3   OH238483   2.604   1.711   9.816 -0.0862 -0.2880 -0.0603
 4763TIP3    H138484   2.511   1.734   9.819  0.2211  1.0501  0.1955
 4763TIP3    H238485   2.633   1.717   9.907  0.5090  0.5502 -0.2925
 4764TIP3   OH238486   0.528   2.338  10.553 -0.0752 -0.2532 -0.0702
 4764TIP3    H138487   0.556   2.318  10.643 -1.3117 -0.2552  0.3341
 4764TIP3    H238488   0.452   2.395  10.564 -1.2896 -1.6077 -1.0556
 4765TIP3   OH238489   0.509   0.646   8.388  0.0514 -0.2165 -0.2143
 4765TIP3    H138490   0.504   0.720   8.449 -1.8778 -0.4988  0.0217
 4765TIP3    H238491   0.443   0.584   8.419  0.5894 -1.3752 -1.2882
 4766TIP3   OH238492   1.375   6.081   9.550  0.1720  0.0114 -0.3009
 4766TIP3    H138493   1.429   6.051   9.476 -0.8413  0.5198 -1.2703
 4766TIP3    H238494   1.320   6.150   9.513  0.1710  0.8126  1.1243
 4767TIP3   OH238495   4.552   4.385  10.688  0.6587  0.8491  0.1101
 4767TIP3    H138496   4.618   4.399  10.756 -0.7588  1.6317  1.3785
 4767TIP3    H238497   4.491   4.322  10.726  0.4869  0.3565 -0.9293
 4768TIP3   OH238498   4.202   2.244   9.498  0.6259 -0.8529  0.2105
 4768TIP3    H138499   4.176   2.152   9.490 -0.7670 -0.5281  0.7733
 4768TIP3    H238500   4.211   2.274   9.407  0.1675 -1.2892  0.0145
 4769TIP3   OH238501   5.496   2.232  10.132  0.4562 -0.4410 -0.1186
 4769TIP3    H138502   5.508   2.156  10.076 -1.4766 -0.1651 -0.9898
 4769TIP3    H238503   5.452   2.198  10.210  0.2683 -0.3447 -0.1807
 4770TIP3   OH238504   5.385   6.433   8.761 -0.1144  0.4840  0.1388
 4770TIP3    H138505   5.465   6.446   8.710 -1.1671  0.7554 -1.5165
 4770TIP3    H238506   5.357   6.522   8.784  0.7228  0.3451  1.8745
 4771TIP3   OH238507   5.049   3.990  10.224 -0.1802  0.1875 -0.6282
 4771TIP3    H138508   4.971   4.040  10.247  0.3670 -0.1858  2.5201
 4771TIP3    H238509   5.022   3.898  10.231  0.7292  0.0282  1.7180
 4772TIP3   OH238510   0.050   5.406  10.080 -0.3564 -0.6554 -1.0142
 4772TIP3    H138511   0.131   5.381  10.035 -0.1081 -1.8500  0.0415
 4772TIP3    H238512   0.079   5.442  10.163 -0.8987 -2.3052 -0.0559
 4773TIP3   OH238513   4.709   3.638   9.148  0.1186  0.2916  0.0640
 4773TIP3    H138514   4.629   3.612   9.194 -1.2057  1.2808 -1.5573
 4773TIP3    H238515   4.678   3.678   9.066  2.2314  1.9092 -0.0308
 4774TIP3   OH238516   6.640   2.009  10.999  0.3640 -0.3141  0.8434
 4774TIP3    H138517   6.612   1.970  11.081  0.0957  0.9678  1.3882
 4774TIP3    H238518   6.578   2.081  10.984  1.7013  0.8430  0.6536
 4775TIP3   OH238519   0.701   4.494  10.387  0.4280  0.1595 -0.0382
 4775TIP3    H138520   0.665   4.499  10.476  0.1265  1.3373 -0.2167
 4775TIP3    H238521   0.697   4.583  10.354 -0.2038 -0.3976 -1.5434
 4776TIP3   OH238522   3.648   3.628  10.918 -0.1490 -0.3954 -0.3331
 4776TIP3    H138523   3.711   3.624  10.991  1.5641  1.4083 -1.5929
 4776TIP3    H238524   3.696   3.672  10.848 -2.5693  0.2721 -1.6857
 4777TIP3   OH238525   5.219   0.268  10.345 -0.0010  0.8839 -0.3985
 4777TIP3    H138526   5.146   0.219  10.308 -0.2367  0.6869  0.3104
 4777TIP3    H238527   5.298   0.223  10.313 -0.1721  1.2687 -1.3977
 4778TIP3   OH238528   1.469   1.876  11.298 -0.4410  0.2802  0.6033
 4778TIP3    H138529   1.511   1.853  11.381 -0.6060 -2.6356 -0.0159
 4778TIP3    H238530   1.398   1.812  11.289 -1.6350  1.7547 -0.9062
 4779TIP3   OH238531   5.038   3.171  10.045 -0.6354  0.0891 -0.0530
 4779TIP3    H138532   5.115   3.115  10.033 -0.5372  0.1013  0.4966
 4779TIP3    H238533   4.987   3.128  10.113 -0.6594  0.5571  0.2289
 4780TIP3   OH238534   2.082   1.015  10.111  0.4069 -0.2289  0.0210
 4780TIP3    H138535   2.072   1.059  10.195  0.5573 -2.8989  1.5811
 4780TIP3    H238536   1.997   1.024  10.068  0.6456  2.0758 -0.0818
 4781TIP3   OH238537   6.341   1.354  11.454  0.5217 -0.2446  0.1017
 4781TIP3    H138538   6.360   1.293  11.383  2.4937  1.2515 -0.7594
 4781TIP3    H238539   6.317   1.436  11.410  0.8190  0.4408  1.1591
 4782TIP3   OH238540   1.560   2.465   8.572 -0.0203 -0.3260  0.4069
 4782TIP3    H138541   1.560   2.556   8.542 -0.1325 -0.5981 -0.4635
 4782TIP3    H238542   1.524   2.416   8.498 -1.2479 -0.9288  1.3583
 4783TIP3   OH238543   2.339   6.036  10.847 -0.0819  0.5058 -0.0726
 4783TIP3    H138544   2.290   5.957  10.824  0.7587  0.0202 -0.2367
 4783TIP3    H238545   2.312   6.056  10.936  0.3028 -0.4534  0.2775
 4784TIP3   OH238546   3.432   5.748  10.726  0.4806  0.6954  0.0007
 4784TIP3    H138547   3.345   5.773  10.697 -0.2303 -2.4825 -0.9578
 4784TIP3    H238548   3.490   5.815  10.689 -1.1546  0.8005 -2.6325
 4785TIP3   OH238549   6.655   5.235  10.340  0.0350  0.0671 -0.2395
 4785TIP3    H138550   6.620   5.170  10.401 -1.2028 -0.5223 -1.4992
 4785TIP3    H238551   6.739   5.199  10.313  0.7611  0.5053  1.3288
 4786TIP3   OH238552   4.047   4.715  10.495 -0.4874 -0.4752 -0.3245
 4786TIP3    H138553   4.011   4.649  10.554 -1.2684  1.7060  1.7835
 4786TIP3    H238554   4.137   4.728  10.526 -1.0785  1.0843  0.8167
 4787TIP3   OH238555   3.198   2.197  12.149  0.1692  0.1926 -0.3550
 4787TIP3    H138556   3.232   2.116  12.112  0.0907  1.5317 -3.6487
 4787TIP3    H238557   3.224   2.265  12.088 -3.6414  2.0600 -0.2317
 4788TIP3   OH238558   4.074   4.435   9.128  0.2152 -0.2571 -0.2495
 4788TIP3    H138559   4.136   4.376   9.085  0.9809  0.3534  0.0033
 4788TIP3    H238560   4.080   4.517   9.079  0.3916  0.1432  0.4308
 4789TIP3   OH238561   0.674   4.779   9.490  0.1136 -0.3867  0.0234
 4789TIP3    H138562   0.629   4.759   9.408 -0.3554  1.0408 -0.0955
 4789TIP3    H238563   0.764   4.747   9.476 -0.1929 -0.9624 -0.6984
 4790TIP3   OH238564   0.171   1.351   9.871  0.1326  1.1293 -0.3455
 4790TIP3    H138565   0.076   1.355   9.872  0.1505  1.6407 -0.6928
 4790TIP3    H238566   0.194   1.321   9.959 -0.3469  0.9603 -0.2747
 4791TIP3   OH238567   2.591   5.703   9.724  0.1625  0.5059  0.1873
 4791TIP3    H138568   2.653   5.730   9.656  0.5976  1.4730  0.9358
 4791TIP3    H238569   2.556   5.620   9.693  1.7016  0.0215 -0.3405
 4792TIP3   OH238570   0.634   5.310  10.074  0.4150 -0.3285  0.5974
 4792TIP3    H138571   0.676   5.284   9.992  0.1302 -2.3623  1.0434
 4792TIP3    H238572   0.624   5.229  10.123  0.2710  0.7791  2.5276
 4793TIP3   OH238573   1.386   1.030  11.490 -0.5357 -0.3002  0.0609
 4793TIP3    H138574   1.324   0.958  11.500 -0.3685 -0.4857 -0.2219
 4793TIP3    H238575   1.336   1.109  11.510 -0.7345 -0.4908  0.3128
 4794TIP3   OH238576   1.967   0.696   9.062  0.7144 -0.3389  0.6325
 4794TIP3    H138577   1.999   0.665   9.146  0.6613 -1.5479  0.2175
 4794TIP3    H238578   1.985   0.625   9.001  0.2948  0.3148 -0.2825
 4795TIP3   OH238579   5.267   4.237  10.639  0.1417  0.3588 -0.1604
 4795TIP3    H138580   5.192   4.259  10.584 -0.8651  0.3145  1.1415
 4795TIP3    H238581   5.310   4.165  10.594 -2.0813 -1.3669  0.2785
 4796TIP3   OH238582   0.003   5.396   9.620  0.5129  0.1866  0.6382
 4796TIP3    H138583  -0.008   5.301   9.624  0.5442  0.2166  1.9589
 4796TIP3    H238584  -0.059   5.424   9.553  1.9144 -0.9386 -1.2336
 4797TIP3   OH238585   4.238   1.203  11.929  0.3726  0.0702 -0.3056
 4797TIP3    H138586   4.195   1.122  11.955  0.4601  0.0113 -0.3447
 4797TIP3    H238587   4.187   1.236  11.855  1.0604 -0.5826 -1.0831
 4798TIP3   OH238588   4.295   0.854   9.116  0.3132  0.1709  0.1686
 4798TIP3    H138589   4.229   0.844   9.047  0.5572  2.6135 -0.5086
 4798TIP3    H238590   4.276   0.783   9.177 -3.1744  0.8876  0.1450
 4799TIP3   OH238591   0.724   5.553  10.408  0.1113  0.3544 -0.0481
 4799TIP3    H138592   0.751   5.505  10.329 -1.3876 -0.8713  0.1356
 4799TIP3    H238593   0.802   5.554  10.463  0.4729 -1.0021 -0.4917
 4800TIP3   OH238594   6.566   3.150  11.427 -0.4920 -0.2267 -0.3069
 4800TIP3    H138595   6.522   3.165  11.343 -1.7239 -0.1771  0.3264
 4800TIP3    H238596   6.507   3.092  11.475 -0.7997  1.3249  1.2924
 4801TIP3   OH238597   1.757   6.644  10.502  0.8279 -0.0324 -0.2834
 4801TIP3    H138598   1.814   6.711  10.464  2.6604 -0.1236  2.0366
 4801TIP3    H238599   1.772   6.566  10.449 -0.1991  0.9358 -2.0982
 4802TIP3   OH238600   2.812   5.563  11.775  0.2964  0.9991  0.1202
 4802TIP3    H138601   2.815   5.477  11.733  0.9784  1.2671 -0.3978
 4802TIP3    H238602   2.880   5.558  11.843  0.0463  0.9879  0.3702
 4803TIP3   OH238603   2.537   3.177  11.987 -0.2051 -0.6647 -0.1133
 4803TIP3    H138604   2.503   3.088  11.974  0.0772 -0.6520 -0.9812
 4803TIP3    H238605   2.463   3.234  11.966 -1.4815 -0.6723  3.5998
 4804TIP3   OH238606   1.538   5.968   8.881 -0.3717 -0.5617 -0.5477
 4804TIP3    H138607   1.455   6.001   8.846 -0.1843 -1.0581 -1.5026
 4804TIP3    H238608   1.604   6.026   8.845 -0.3703  0.4857  1.0712
 4805TIP3   OH238609   4.544   1.219  11.145 -0.4955  1.0630 -0.0010
 4805TIP3    H138610   4.492   1.291  11.180 -0.7883  1.3764 -1.0434
 4805TIP3    H238611   4.632   1.256  11.135 -0.6797  1.3502 -0.6820
 4806TIP3   OH238612   1.864   6.697  11.179 -0.1148  0.0223  0.0499
 4806TIP3    H138613   1.770   6.707  11.166 -0.1064  0.7319  0.4319
 4806TIP3    H238614   1.874   6.617  11.229 -0.6436  0.6654  1.2249
 4807TIP3   OH238615   0.998   0.607   9.588 -0.2284 -0.1400 -0.1534
 4807TIP3    H138616   1.020   0.514   9.596 -1.2753 -0.2859  1.5555
 4807TIP3    H238617   1.008   0.626   9.495 -0.9487 -2.2252 -0.7122
 4808TIP3   OH238618   2.072   0.933  10.634  0.4115 -0.0225  0.9831
 4808TIP3    H138619   2.077   0.910  10.541  0.8758  0.4998  0.8702
 4808TIP3    H238620   1.984   0.906  10.660  0.2661 -0.1562  0.3843
 4809TIP3   OH238621   4.356   1.926  12.199  0.0482 -0.1157 -0.6901
 4809TIP3    H138622   4.344   1.878  12.117 -0.2992 -0.0861 -0.6563
 4809TIP3    H238623   4.340   1.861  12.267  0.5917 -0.2039 -0.6443
 4810TIP3   OH238624   0.208   0.117   8.651  0.3333  0.0367  0.2146
 4810TIP3    H138625   0.274   0.121   8.720 -1.3419  2.9026  1.8861
 4810TIP3    H238626   0.252   0.154   8.574  1.2185  0.1983  0.7812
 4811TIP3   OH238627   1.331   3.939   9.385 -0.4630  0.5748 -0.1593
 4811TIP3    H138628   1.266   3.978   9.325  0.8380  1.1572 -1.2542
 4811TIP3    H238629   1.358   4.012   9.441 -0.1080  0.5514 -0.3002
 4812TIP3   OH238630   3.743   5.728  10.530 -0.7268 -0.3180 -0.3126
 4812TIP3    H138631   3.704   5.805  10.571  1.9449  1.0785 -0.2090
 4812TIP3    H238632   3.823   5.760  10.489  0.1319 -2.9430 -0.8800
 4813TIP3   OH238633   6.188   6.713  11.482  0.2609 -0.1810  0.3166
 4813TIP3    H138634   6.277   6.720  11.447  0.7546  0.5249  1.6280
 4813TIP3    H238635   6.188   6.630  11.530 -0.2893 -0.9438 -0.9421
 4814TIP3   OH238636   0.903   4.111  11.967  0.2093 -0.2240  0.3954
 4814TIP3    H138637   0.813   4.132  11.943  1.0174  3.1632 -0.1858
 4814TIP3    H238638   0.943   4.195  11.986  3.3707 -1.5776  0.3446
 4815TIP3   OH238639   4.827   5.530   9.250 -0.8951  0.2779 -0.2275
 4815TIP3    H138640   4.761   5.460   9.249 -2.6076  1.5658  3.2444
 4815TIP3    H238641   4.789   5.599   9.196 -0.5642 -0.3557 -1.2982
 4816TIP3   OH238642   0.705   5.104   9.397  0.1050  0.2351  0.2251
 4816TIP3    H138643   0.687   5.062   9.481  0.8284 -0.0236  0.2573
 4816TIP3    H238644   0.751   5.037   9.346  1.2032  0.9419  0.2525
 4817TIP3   OH238645   4.446   3.512   8.331  0.4117  1.0740  0.1979
 4817TIP3    H138646   4.541   3.516   8.322  0.5469 -0.7379  0.5021
 4817TIP3    H238647   4.430   3.434   8.384 -1.3180 -0.0029 -1.7366
 4818TIP3   OH238648   0.941   3.927  10.836 -0.1989 -0.1825  0.8510
 4818TIP3    H138649   0.847   3.911  10.844  0.2541 -3.0165  1.7482
 4818TIP3    H238650   0.973   3.854  10.783  1.5154  0.7175  0.5846
 4819TIP3   OH238651   5.165   5.781   9.776 -0.2452 -0.3453 -0.1673
 4819TIP3    H138652   5.259   5.791   9.789 -0.5042  0.4080  1.4885
 4819TIP3    H238653   5.153   5.780   9.681  1.6866 -3.4504 -0.5232
 4820TIP3   OH238654   0.018   6.791  11.857 -0.3124 -0.0851 -0.2972
 4820TIP3    H138655   0.108   6.807  11.882  0.0363 -1.9516 -0.2050
 4820TIP3    H238656  -0.004   6.707  11.897 -1.9448  0.1085 -0.6920
 4821TIP3   OH238657   6.143   2.244   9.592  0.4790  0.0691  0.1635
 4821TIP3    H138658   6.127   2.154   9.563 -0.4959  0.7615 -1.5845
 4821TIP3    H238659   6.140   2.239   9.687  1.6279 -1.9473  0.1479
 4822TIP3   OH238660   4.587   0.565  10.488 -0.0212  0.0052  0.3175
 4822TIP3    H138661   4.674   0.535  10.462  0.0707  0.8038 -0.3284
 4822TIP3    H238662   4.531   0.488  10.477  0.3438 -0.1437 -0.5649
 4823TIP3   OH238663   4.363   6.616  10.522 -0.1192  0.3439  0.3823
 4823TIP3    H138664   4.436   6.564  10.552  0.1276  0.9761  0.8927
 4823TIP3    H238665   4.345   6.583  10.434  0.2551 -0.3527  0.5609
 4824TIP3   OH238666   5.089   5.616   9.272  0.5807 -0.8682 -0.4019
 4824TIP3    H138667   5.146   5.541   9.255 -0.7442 -1.9372 -0.2332
 4824TIP3    H238668   5.001   5.586   9.250  0.0971  0.8852 -1.0859
 4825TIP3   OH238669   6.744   1.159  11.910 -0.4105  0.4436 -0.1719
 4825TIP3    H138670   6.695   1.162  11.829  0.9478 -0.3111 -1.0707
 4825TIP3    H238671   6.750   1.066  11.931 -0.6568  0.6228  0.7468
 4826TIP3   OH238672   4.157   5.664   9.622 -0.1223  0.4080 -0.6055
 4826TIP3    H138673   4.136   5.617   9.541  0.1951 -1.1826  0.2168
 4826TIP3    H238674   4.143   5.756   9.599 -0.9430 -0.0675 -2.1949
 4827TIP3   OH238675   1.037   5.313   9.807 -0.1808 -0.2715 -0.2819
 4827TIP3    H138676   1.069   5.234   9.852 -0.0899 -0.0754  0.0054
 4827TIP3    H238677   1.112   5.372   9.807 -0.6538  0.3671  0.8028
 4828TIP3   OH238678   0.268   1.037  11.202 -0.0783 -0.2096  0.0729
 4828TIP3    H138679   0.267   1.125  11.165  1.1231  0.2201  1.0115
 4828TIP3    H238680   0.176   1.011  11.205 -0.2716 -0.2609 -3.0898
 4829TIP3   OH238681   1.172   3.519  11.335 -0.1030 -0.2398  0.5733
 4829TIP3    H138682   1.220   3.520  11.418 -1.8918 -1.1856  1.6689
 4829TIP3    H238683   1.227   3.467  11.276  2.7267  2.9674  0.0905
 4830TIP3   OH238684   2.109   5.841   9.390  0.0042 -0.3569 -0.3852
 4830TIP3    H138685   2.027   5.889   9.387  1.4306  2.2730 -0.5618
 4830TIP3    H238686   2.096   5.775   9.458 -2.1144  0.1975 -0.1809
 4831TIP3   OH238687   1.775   2.440   9.621  0.0629  0.5137  0.3975
 4831TIP3    H138688   1.835   2.397   9.561 -0.3564  1.6698 -0.9139
 4831TIP3    H238689   1.775   2.532   9.594 -0.7776  0.9180  1.6411
 4832TIP3   OH238690   6.433   4.983  12.008  0.0159 -0.5564 -0.4995
 4832TIP3    H138691   6.477   5.066  12.029  1.0552 -1.5741  1.6828
 4832TIP3    H238692   6.480   4.950  11.932  1.0380 -0.1333 -0.0764
 4833TIP3   OH238693   3.692   3.473   8.785 -0.2514 -0.7398 -0.2455
 4833TIP3    H138694   3.684   3.471   8.881  4.1395 -1.7012  0.2975
 4833TIP3    H238695   3.746   3.397   8.764  0.6633  0.6061 -3.2550
 4834TIP3   OH238696   3.748   0.106   9.540 -0.1963 -0.3179 -0.2630
 4834TIP3    H138697   3.699   0.174   9.585  0.1373 -0.7649  0.7956
 4834TIP3    H238698   3.762   0.141   9.452 -0.2482  0.8713  0.1858
 4835TIP3   OH238699   5.895   3.310  10.767  0.0908 -0.4723 -0.1295
 4835TIP3    H138700   5.806   3.326  10.735 -0.6954  0.3500  2.2395
 4835TIP3    H238701   5.884   3.253  10.843  1.4491  0.4690  0.8332
 4836TIP3   OH238702   0.251   5.692  11.740  0.1943  0.2451  0.4239
 4836TIP3    H138703   0.281   5.605  11.766 -0.6919  0.4357  2.2004
 4836TIP3    H238704   0.331   5.743  11.731  0.5781  0.3106  3.4489
 4837TIP3   OH238705   2.374   3.818  11.424 -0.0512  0.0324 -0.0557
 4837TIP3    H138706   2.297   3.822  11.480 -0.3340 -2.1285 -0.1898
 4837TIP3    H238707   2.359   3.884  11.357 -1.8121 -0.3513 -0.0903
 4838TIP3   OH238708   5.090   5.341  10.828 -0.3285 -0.4407  0.4475
 4838TIP3    H138709   5.063   5.386  10.908 -2.9931  0.2353 -0.7332
 4838TIP3    H238710   5.044   5.258  10.831 -1.3503  0.0515 -0.8797
 4839TIP3   OH238711   0.504   0.002  10.516  0.2802 -0.4399 -1.4195
 4839TIP3    H138712   0.566  -0.062  10.481 -0.0460 -1.7026  0.1391
 4839TIP3    H238713   0.420  -0.021  10.476 -0.1573 -2.0852  0.2877
 4840TIP3   OH238714   2.978   2.125  12.285 -0.5252 -0.6035  0.1203
 4840TIP3    H138715   2.986   2.158  12.375 -1.5652  1.1334 -0.3705
 4840TIP3    H238716   3.062   2.145  12.244 -0.6425  0.1590  0.2407
 4841TIP3   OH238717   0.251   2.052  10.421  0.2286 -0.1232 -0.8627
 4841TIP3    H138718   0.218   2.135  10.456  0.8738 -0.0028 -0.5201
 4841TIP3    H238719   0.326   2.031  10.477  1.0890 -0.0950 -1.9672
 4842TIP3   OH238720   6.741   1.263   9.376 -0.1438  0.1931 -0.1913
 4842TIP3    H138721   6.665   1.204   9.379  0.6487 -0.8900 -0.8677
 4842TIP3    H238722   6.788   1.246   9.457 -0.3219  0.4692 -0.0268
 4843TIP3   OH238723   5.064   1.621  12.026  0.5357  0.2066 -0.2507
 4843TIP3    H138724   5.129   1.691  12.029  0.9833 -0.1050 -2.0242
 4843TIP3    H238725   5.046   1.608  11.933 -0.7367 -0.9467  0.1243
 4844TIP3   OH238726   1.139   6.569   9.687  0.3944 -0.0458 -0.1299
 4844TIP3    H138727   1.226   6.538   9.663  1.0956  3.1795 -2.3560
 4844TIP3    H238728   1.100   6.600   9.605 -2.0890  0.4278  1.1193
 4845TIP3   OH238729   5.579   0.416  10.816  0.5743 -0.0301  0.2650
 4845TIP3    H138730   5.489   0.428  10.785  0.8006 -1.5473 -1.1372
 4845TIP3    H238731   5.578   0.330  10.859  1.5058 -0.4121 -0.4503
 4846TIP3   OH238732   4.038   6.460  10.970  0.5650 -0.1211 -0.3461
 4846TIP3    H138733   4.035   6.396  11.041  0.2156 -0.3674 -0.5833
 4846TIP3    H238734   3.974   6.429  10.907  1.5855 -0.4605 -1.2545
 4847TIP3   OH238735   1.772   4.563  11.058  0.4038 -0.2304 -0.1036
 4847TIP3    H138736   1.759   4.491  11.119 -0.9210 -0.5259 -0.6973
 4847TIP3    H238737   1.864   4.557  11.033  0.9164 -0.2463  1.6543
 4848TIP3   OH238738   4.836   4.016  11.418 -0.3993 -0.0494 -0.2293
 4848TIP3    H138739   4.771   3.953  11.450  0.7858 -0.4897  1.4269
 4848TIP3    H238740   4.915   3.965  11.404  0.2374  0.8469 -0.0045
 4849TIP3   OH238741   3.729   1.695  10.859  0.6344 -0.0304  0.7870
 4849TIP3    H138742   3.783   1.702  10.780  1.1472  0.9493  1.2083
 4849TIP3    H238743   3.778   1.638  10.917 -0.2770 -1.7039  0.0013
 4850TIP3   OH238744   3.503   6.138  11.714 -0.8826  0.4284 -0.3816
 4850TIP3    H138745   3.441   6.065  11.712 -0.4654  0.0609 -0.1429
 4850TIP3    H238746   3.449   6.216  11.699 -1.3082  0.0583 -0.8096
 4851TIP3   OH238747   2.864   6.562  10.411  0.3781  0.1629 -0.4068
 4851TIP3    H138748   2.950   6.520  10.412  0.3555  0.1058  1.5009
 4851TIP3    H238749   2.848   6.581  10.318  1.9563 -0.8007 -0.9111
 4852TIP3   OH238750   3.950   5.183  10.866 -0.8155 -0.5075  0.0775
 4852TIP3    H138751   4.005   5.142  10.932  1.1709  1.6338 -0.1052
 4852TIP3    H238752   3.871   5.210  10.914  0.2323  0.2863  1.4467
 4853TIP3   OH238753   0.601   1.483   8.967  0.0876 -0.5037  0.2307
 4853TIP3    H138754   0.613   1.555   8.906 -0.7317 -0.2477  0.3693
 4853TIP3    H238755   0.509   1.486   8.992  0.6916  0.3545  2.6707
 4854TIP3   OH238756   4.687   6.703   9.610 -0.0809  0.3337 -0.5496
 4854TIP3    H138757   4.754   6.669   9.550 -2.2922 -2.5544 -1.6211
 4854TIP3    H238758   4.604   6.683   9.567 -1.7314  1.0109  2.0910
 4855TIP3   OH238759   6.278   3.078   8.736 -0.3122  0.0738 -0.2659
 4855TIP3    H138760   6.360   3.127   8.741 -0.6536  0.5432  1.7014
 4855TIP3    H238761   6.282   3.016   8.809 -1.9518  0.5292  0.2674
 4856TIP3   OH238762   4.565   4.733  11.521  0.3355 -0.4931  0.4762
 4856TIP3    H138763   4.592   4.688  11.601  1.0260  0.6542  0.9058
 4856TIP3    H238764   4.643   4.780  11.491 -0.0318 -0.5396 -0.6318
 4857TIP3   OH238765   2.870   0.266  10.202 -0.1411  0.2168  0.4586
 4857TIP3    H138766   2.897   0.186  10.246  0.8763  1.2051  1.7213
 4857TIP3    H238767   2.951   0.314  10.187 -0.6975  0.8756 -0.5772
 4858TIP3   OH238768   5.284   0.501   8.619  0.4118  0.5162 -0.2890
 4858TIP3    H138769   5.228   0.436   8.661  2.0251 -0.6494  0.1474
 4858TIP3    H238770   5.223   0.563   8.579 -1.1754 -0.0983  1.0584
 4859TIP3   OH238771   4.188   1.712  10.536  0.2092 -1.1304 -0.0500
 4859TIP3    H138772   4.234   1.790  10.504  0.9320 -1.3252  0.4829
 4859TIP3    H238773   4.188   1.652  10.461  0.9635 -1.1853 -0.0154
 4860TIP3   OH238774   3.506   0.614  11.754  0.4360  0.1815 -0.0176
 4860TIP3    H138775   3.411   0.599  11.747  0.4255 -0.3180  1.0383
 4860TIP3    H238776   3.544   0.526  11.756  0.5749  0.1860  3.6217
 4861TIP3   OH238777   3.599   5.385  10.885 -0.4308  0.2004 -0.6482
 4861TIP3    H138778   3.623   5.317  10.822  1.4442  1.6108 -1.5359
 4861TIP3    H238779   3.594   5.339  10.969 -0.0975 -1.1838 -1.3576
 4862TIP3   OH238780   5.475   0.824  11.305  0.1325  0.4105 -0.5102
 4862TIP3    H138781   5.385   0.849  11.282 -0.0021  1.2732  0.8389
 4862TIP3    H238782   5.465   0.737  11.345 -0.3578  1.1532  1.0831
 4863TIP3   OH238783   1.165   0.438  10.968 -0.0866  0.1427  0.5499
 4863TIP3    H138784   1.147   0.370  11.033  0.6280 -0.5913  0.0061
 4863TIP3    H238785   1.128   0.404  10.887 -1.2263  1.1811  0.6013
 4864TIP3   OH238786   3.368   4.891  11.388 -0.4941  0.2104 -0.0908
 4864TIP3    H138787   3.327   4.918  11.305  0.7940  0.0887 -0.7921
 4864TIP3    H238788   3.303   4.833  11.428 -1.0112 -0.0091 -1.1812
 4865TIP3   OH238789   3.003   1.153   8.231 -0.2551  0.6489  0.5268
 4865TIP3    H138790   3.075   1.146   8.294 -0.4053  1.7939  0.8401
 4865TIP3    H238791   2.932   1.194   8.280 -0.9468  0.0185  0.0682
 4866TIP3   OH238792   0.344   4.179  10.932 -0.2926 -0.0112  0.5734
 4866TIP3    H138793   0.316   4.120  10.862 -2.2970  2.3474 -0.7931
 4866TIP3    H238794   0.269   4.238  10.944  1.8759  2.8235  1.1562
 4867TIP3   OH238795   1.187   3.024  11.001 -0.5837  0.1766 -0.3373
 4867TIP3    H138796   1.098   3.042  11.032 -0.6163 -0.0556 -0.2973
 4867TIP3    H238797   1.180   3.023  10.906 -0.3117  1.8248 -0.4043
 4868TIP3   OH238798   6.455   2.566  11.477  0.1504  0.2171 -0.4173
 4868TIP3    H138799   6.392   2.578  11.549  0.8123 -0.7508  0.3328
 4868TIP3    H238800   6.541   2.570  11.519  0.5290 -1.9957 -0.8601
 4869TIP3   OH238801   4.701   2.459   8.298 -0.0850 -0.2905  0.1426
 4869TIP3    H138802   4.630   2.399   8.321  0.8863 -0.7791  2.1371
 4869TIP3    H238803   4.762   2.406   8.246 -1.5063  0.3674 -2.3591
 4870TIP3   OH238804   0.965   6.320  10.564  0.3123  0.4193 -0.2411
 4870TIP3    H138805   1.016   6.240  10.575 -0.6026 -0.2143 -0.4816
 4870TIP3    H238806   1.029   6.391  10.573  1.1187 -0.3299  0.0631
 4871TIP3   OH238807   2.190   6.658  11.294  0.0498 -0.2997  0.4667
 4871TIP3    H138808   2.155   6.598  11.227 -0.4017  0.5627 -0.0940
 4871TIP3    H238809   2.115   6.677  11.350 -0.0323  0.4524  0.1021
 4872TIP3   OH238810   5.408   1.803  11.039 -0.2077  0.3392 -0.0614
 4872TIP3    H138811   5.445   1.863  10.973  1.4762 -0.7728 -0.1938
 4872TIP3    H238812   5.473   1.802  11.109 -1.8214  1.2486  1.5415
 4873TIP3   OH238813   0.029   2.663  11.865  0.5951  0.5777  0.1747
 4873TIP3    H138814   0.009   2.749  11.901  0.2559  0.7893 -0.5142
 4873TIP3    H238815   0.124   2.654  11.874  0.6725  1.1656 -0.0848
 4874TIP3   OH238816   0.135   4.763  10.933  0.0805 -0.1892 -0.6785
 4874TIP3    H138817   0.209   4.743  10.990  0.1744  0.0379 -0.7186
 4874TIP3    H238818   0.094   4.839  10.973 -0.2906 -0.4778 -0.5117
 4875TIP3   OH238819   4.376   5.912  10.163 -0.8553 -0.0918 -0.8240
 4875TIP3    H138820   4.421   5.828  10.154  0.7310  0.5466  0.6665
 4875TIP3    H238821   4.330   5.923  10.080  1.6935 -0.8559 -2.4675
 4876TIP3   OH238822   2.863   3.234  11.816 -0.0622  0.5580 -0.0580
 4876TIP3    H138823   2.947   3.221  11.772 -0.0427 -0.5517  0.2592
 4876TIP3    H238824   2.840   3.147  11.848 -1.5493  0.7488 -0.5177
 4877TIP3   OH238825   4.525   0.549  11.339 -0.3941 -0.3522 -0.2712
 4877TIP3    H138826   4.503   0.565  11.431  2.7568 -1.2765  0.7767
 4877TIP3    H238827   4.518   0.454  11.328 -0.5275 -0.2727 -0.9442
 4878TIP3   OH238828   4.396   0.981  11.161  0.3092 -0.5518 -0.6321
 4878TIP3    H138829   4.453   1.056  11.181 -0.3964 -0.3289  0.6839
 4878TIP3    H238830   4.416   0.959  11.070  0.9188  0.9029 -0.8801
 4879TIP3   OH238831   4.163   5.153   9.080 -0.3721 -0.3044  0.0548
 4879TIP3    H138832   4.131   5.162   9.170  0.1357  0.9344  0.1279
 4879TIP3    H238833   4.109   5.214   9.029 -1.0186 -1.3751 -0.6084
 4880TIP3   OH238834   4.861   2.604   9.356  0.1402  0.3183 -0.0506
 4880TIP3    H138835   4.797   2.537   9.333 -0.3061  1.2638 -1.7921
 4880TIP3    H238836   4.809   2.684   9.364  1.0922  1.2352 -2.1453
 4881TIP3   OH238837   6.184   5.436  11.831  0.0737 -0.1187  0.1734
 4881TIP3    H138838   6.265   5.395  11.800 -0.2437 -0.8376  0.3006
 4881TIP3    H238839   6.173   5.406  11.921  0.2679  0.8958  0.5504
 4882TIP3   OH238840   4.860   4.619   8.657  0.2409  0.1751  0.7971
 4882TIP3    H138841   4.776   4.660   8.637  0.9023  1.0812 -0.1883
 4882TIP3    H238842   4.925   4.673   8.612  1.2427 -1.2914  0.4096
 4883TIP3   OH238843   3.512   4.522  10.984 -0.0126 -0.4938  0.1822
 4883TIP3    H138844   3.527   4.559  11.071  0.0600 -1.0810  0.4187
 4883TIP3    H238845   3.488   4.598  10.930 -3.3051 -0.4748  1.4259
 4884TIP3   OH238846   3.194   2.798  10.697 -0.1692  0.3982 -0.0410
 4884TIP3    H138847   3.159   2.767  10.613  1.4366  1.4731 -1.1511
 4884TIP3    H238848   3.147   2.746  10.762 -0.3717 -1.5822 -1.6542
 4885TIP3   OH238849   3.700   0.526  10.308  0.4650 -0.6848  0.2072
 4885TIP3    H138850   3.639   0.514  10.380 -0.0916  4.1489  0.8625
 4885TIP3    H238851   3.786   0.532  10.351  0.2979  0.7607  0.4068
 4886TIP3   OH238852   1.440   6.702  11.947  0.1584  0.4894 -0.0213
 4886TIP3    H138853   1.436   6.619  11.899 -0.0629  0.0576  0.7212
 4886TIP3    H238854   1.531   6.709  11.975  0.4953  1.1718 -1.2153
 4887TIP3   OH238855   6.042   2.594   8.323 -0.3742  0.6752 -0.1741
 4887TIP3    H138856   5.982   2.658   8.361  0.8017  1.8117 -0.1385
 4887TIP3    H238857   6.115   2.590   8.386 -0.2863 -0.4908 -0.3256
 4888TIP3   OH238858   1.074   3.486   9.046  0.0843 -0.2221 -0.0974
 4888TIP3    H138859   1.071   3.526   8.959 -0.6219 -0.0239  0.0183
 4888TIP3    H238860   1.132   3.543   9.097  0.4914 -0.3345 -0.4272
 4889TIP3   OH238861   5.151   5.420  11.660  0.0911 -0.3648 -0.4720
 4889TIP3    H138862   5.157   5.329  11.689  0.2847 -0.4044 -0.6311
 4889TIP3    H238863   5.192   5.470  11.731  0.3663 -0.4415 -0.5759
 4890TIP3   OH238864   2.763   4.983  10.000 -0.2016 -0.3275  0.0036
 4890TIP3    H138865   2.683   4.998   9.951  1.3742  2.7451 -1.9388
 4890TIP3    H238866   2.773   5.061  10.055  1.0872 -1.0082  0.7961
 4891TIP3   OH238867   4.185   3.430  11.051 -0.3806  0.0593  0.0179
 4891TIP3    H138868   4.174   3.470  11.137 -0.8729 -2.1122  1.0377
 4891TIP3    H238869   4.275   3.451  11.026  0.4866 -0.9764  2.0432
 4892TIP3   OH238870   6.156   0.810  11.708 -0.4158  0.6406  0.0555
 4892TIP3    H138871   6.217   0.749  11.666 -0.3943  1.1082 -0.6225
 4892TIP3    H238872   6.090   0.827  11.641 -0.4543  1.3107  0.2603
 4893TIP3   OH238873   5.589   6.625  10.665 -0.5452 -0.2758  0.0089
 4893TIP3    H138874   5.545   6.597  10.746 -0.8094  0.6716  0.2021
 4893TIP3    H238875   5.679   6.643  10.692 -0.1495 -1.6512 -0.2738
 4894TIP3   OH238876   1.972   4.930   9.448  0.5511  0.0493  0.1921
 4894TIP3    H138877   1.947   5.004   9.393  0.7419  0.1906  0.2943
 4894TIP3    H238878   1.928   4.945   9.531  0.0116 -0.3270 -0.0228
 4895TIP3   OH238879   0.390   1.739  10.782 -0.4027  0.5683  0.4546
 4895TIP3    H138880   0.344   1.740  10.865  0.7708  1.7196  1.1289
 4895TIP3    H238881   0.429   1.651  10.776 -2.8464 -0.5423 -0.2853
 4896TIP3   OH238882   1.056   0.658  11.115  0.6018  0.1418  0.1479
 4896TIP3    H138883   0.974   0.685  11.074 -0.1110 -1.4893  0.4016
 4896TIP3    H238884   1.089   0.587  11.060  0.0889 -1.4814  1.8098
 4897TIP3   OH238885   4.132   0.930  11.782 -0.2141  0.1307  0.2686
 4897TIP3    H138886   4.037   0.946  11.780 -0.0540  1.0987 -0.6469
 4897TIP3    H238887   4.140   0.839  11.809 -1.4172  0.0047  0.2811
 4898TIP3   OH238888   4.375   4.096  11.300 -0.2589  0.5311 -0.1071
 4898TIP3    H138889   4.304   4.117  11.360  0.3969 -0.5328  1.0839
 4898TIP3    H238890   4.438   4.167  11.311  0.2258 -0.0474  1.1081
 4899TIP3   OH238891   3.722   5.931  11.029 -0.2269 -0.5990 -0.2807
 4899TIP3    H138892   3.701   5.950  11.120 -0.9609  0.6843 -0.6930
 4899TIP3    H238893   3.682   6.003  10.979  0.4575 -1.0835 -1.5849
 4900TIP3   OH238894   2.932   3.580  10.069 -0.0310 -0.3756 -0.6473
 4900TIP3    H138895   2.951   3.502  10.018 -1.7347 -1.1247 -0.2017
 4900TIP3    H238896   3.006   3.638  10.053  0.5493 -1.4827 -2.1605
 4901TIP3   OH238897   2.115   4.872  10.279  0.0423 -0.5175  0.8504
 4901TIP3    H138898   2.187   4.828  10.325  1.5579 -2.0028 -2.5945
 4901TIP3    H238899   2.046   4.806  10.274  0.7283 -1.1483 -0.7818
 4902TIP3   OH238900   2.944   5.183   9.531  0.3742 -0.2385 -0.0987
 4902TIP3    H138901   2.865   5.168   9.582  1.0431  0.9219  1.3511
 4902TIP3    H238902   3.006   5.117   9.562  0.5431 -0.0064  0.0624
 4903TIP3   OH238903   1.493   1.753   9.360  0.3934  0.0457  0.1126
 4903TIP3    H138904   1.512   1.661   9.345 -2.9179 -0.5874 -1.0040
 4903TIP3    H238905   1.516   1.796   9.278 -0.4842 -0.2776 -0.3194
 4904TIP3   OH238906   3.070   0.779  10.954 -0.3656 -0.5493 -0.9422
 4904TIP3    H138907   3.147   0.802  11.006 -1.1800  1.2394 -0.4567
 4904TIP3    H238908   3.102   0.714  10.891  1.4825  0.0333 -0.6582
 4905TIP3   OH238909   3.279   6.772  11.580  0.1273  0.0887  0.0995
 4905TIP3    H138910   3.302   6.823  11.502  0.6509 -0.5589 -0.1816
 4905TIP3    H238911   3.246   6.689  11.546 -0.3961  0.1031  0.5611
 4906TIP3   OH238912   3.887   5.455  11.023  0.1038 -0.1877 -0.2021
 4906TIP3    H138913   3.978   5.479  11.043  0.0977 -0.7958  0.6346
 4906TIP3    H238914   3.885   5.446  10.928  0.8140  0.2331 -0.2700
 4907TIP3   OH238915   5.679   2.940   8.602  0.3690  0.0266 -0.1338
 4907TIP3    H138916   5.633   2.895   8.532  1.4049 -0.7182 -0.3616
 4907TIP3    H238917   5.769   2.907   8.597  0.6034  0.4006  1.1643
 4908TIP3   OH238918   3.912   1.339   8.413 -0.2679 -0.1513  0.3057
 4908TIP3    H138919   3.999   1.378   8.422 -0.6612  0.4177  1.9717
 4908TIP3    H238920   3.901   1.285   8.492 -1.4534 -0.1330  0.1788
 4909TIP3   OH238921   2.563   1.154  11.300 -0.0013 -0.0362 -0.0437
 4909TIP3    H138922   2.511   1.234  11.311 -0.3897 -0.0429 -1.5165
 4909TIP3    H238923   2.602   1.163  11.213  2.9811  0.2096  1.1989
 4910TIP3   OH238924   2.118   4.997  11.319  0.4203 -0.3976 -0.2234
 4910TIP3    H138925   2.039   4.977  11.269 -0.6211 -1.2237  1.6488
 4910TIP3    H238926   2.180   4.928  11.296 -0.1174 -0.8798 -0.2324
 4911TIP3   OH238927   3.387   2.808  10.046  0.2446 -0.8271 -0.2792
 4911TIP3    H138928   3.430   2.786   9.964  0.8480  0.1505 -0.2452
 4911TIP3    H238929   3.426   2.892  10.072 -0.5326 -0.7101  0.5786
 4912TIP3   OH238930   4.740   6.210   9.363  0.2422  0.6719 -0.3580
 4912TIP3    H138931   4.794   6.278   9.321  0.9768  0.9823  1.0161
 4912TIP3    H238932   4.727   6.242   9.452  0.7329 -1.0568  0.3775
 4913TIP3   OH238933   1.767   4.150   9.734  0.3516  0.1604 -0.6244
 4913TIP3    H138934   1.816   4.106   9.664  2.5553 -2.9949  2.5545
 4913TIP3    H238935   1.684   4.103   9.738  0.8193 -0.6629 -0.2607
 4914TIP3   OH238936   0.879   4.817  10.595 -0.8546 -0.8012  0.0072
 4914TIP3    H138937   0.819   4.744  10.579 -2.7368  0.7824 -0.4690
 4914TIP3    H238938   0.851   4.854  10.678  0.7671 -1.2249  0.7725
 4915TIP3   OH238939   0.655   2.010   9.657 -0.4424 -0.1301  0.2619
 4915TIP3    H138940   0.642   1.952   9.732 -0.6246  2.0073  1.9847
 4915TIP3    H238941   0.570   2.012   9.613 -0.2399 -1.6772 -0.2633
 4916TIP3   OH238942   6.100   0.704   8.887  0.4499  0.1290 -0.3521
 4916TIP3    H138943   6.145   0.788   8.883  1.6930 -0.5409 -1.2424
 4916TIP3    H238944   6.165   0.641   8.854 -0.3943 -1.1956  0.4311
 4917TIP3   OH238945   4.932   6.559  11.718 -0.3055 -0.0025 -0.1661
 4917TIP3    H138946   4.955   6.492  11.653  0.3632  1.0387 -1.0397
 4917TIP3    H238947   5.015   6.584  11.757 -0.3272  1.4489 -0.9985
 4918TIP3   OH238948   4.722   0.667  11.215 -0.0095  0.4186  0.3375
 4918TIP3    H138949   4.673   0.610  11.275 -2.2497  0.6070 -1.1743
 4918TIP3    H238950   4.787   0.710  11.270 -0.1870 -1.3895  2.0833
 4919TIP3   OH238951   4.732   2.492  12.075 -0.5968  0.6958  0.5341
 4919TIP3    H138952   4.731   2.402  12.109 -0.3061  0.7876  0.7891
 4919TIP3    H238953   4.658   2.535  12.118 -0.0545  0.8941  1.2878
 4920TIP3   OH238954   6.319   1.115   9.593 -0.1228  0.3680 -0.3023
 4920TIP3    H138955   6.412   1.122   9.611 -0.2977  0.1872  0.7193
 4920TIP3    H238956   6.292   1.033   9.635 -0.7434  0.4123 -0.5972
 4921TIP3   OH238957   3.241   6.131   9.801  0.0974  0.2189 -0.4640
 4921TIP3    H138958   3.202   6.088   9.878 -0.5909 -0.1946 -1.0280
 4921TIP3    H238959   3.226   6.224   9.815  0.6463  0.2083  0.2604
 4922TIP3   OH238960   5.046   4.098   9.501 -0.7049 -0.5234  0.1959
 4922TIP3    H138961   4.965   4.079   9.454 -1.2027 -0.4064  0.9875
 4922TIP3    H238962   5.031   4.064   9.590  0.4846 -1.3978  0.0918
 4923TIP3   OH238963   4.554   6.268  11.489  0.2997 -0.5289  0.4348
 4923TIP3    H138964   4.479   6.231  11.536  0.0016  0.6357  0.9030
 4923TIP3    H238965   4.595   6.328  11.551 -0.5851  1.6849 -1.0020
 4924TIP3   OH238966   4.397   2.802  11.526  0.2619  0.1765  0.4631
 4924TIP3    H138967   4.472   2.815  11.584  0.4599 -0.1277  0.2765
 4924TIP3    H238968   4.434   2.768  11.445 -0.0104  0.6171  0.1448
 4925TIP3   OH238969   5.872   1.784  10.149 -0.4545 -0.1460  0.0760
 4925TIP3    H138970   5.821   1.703  10.149 -0.5164 -0.1094  0.3069
 4925TIP3    H238971   5.932   1.774  10.222  1.2774 -1.0463 -1.4028
 4926TIP3   OH238972   3.874   2.165  10.203 -0.1219  0.1246 -0.2186
 4926TIP3    H138973   3.930   2.088  10.210 -0.8625 -0.7998 -3.1726
 4926TIP3    H238974   3.921   2.224  10.144 -1.4823  0.0029 -1.4824
 4927TIP3   OH238975   0.999   3.495  10.881 -0.0599  0.3591  0.5321
 4927TIP3    H138976   0.963   3.449  10.805 -0.5494  0.0830  0.9288
 4927TIP3    H238977   0.923   3.538  10.922  0.4861  2.2342 -0.2954
 4928TIP3   OH238978   5.315   6.425  11.733 -0.7896 -0.0429  0.0383
 4928TIP3    H138979   5.405   6.436  11.762 -0.5379 -0.3452 -0.6096
 4928TIP3    H238980   5.267   6.494  11.778 -0.0045  0.9497 -0.5854
 4929TIP3   OH238981   1.342   3.389   8.421 -0.3675 -0.1039  0.6781
 4929TIP3    H138982   1.314   3.475   8.451  0.3331  0.2051  0.4537
 4929TIP3    H238983   1.435   3.384   8.443  0.0644 -0.0373 -0.9901
 4930TIP3   OH238984   5.437   4.278  11.214  0.7692  0.1466 -0.2654
 4930TIP3    H138985   5.461   4.210  11.277 -0.7931 -0.4811 -0.2976
 4930TIP3    H238986   5.401   4.349  11.267 -1.5653 -0.8141 -0.4074
 4931TIP3   OH238987   0.233   1.284  11.098 -0.0071  0.1669 -0.3696
 4931TIP3    H138988   0.173   1.348  11.138  0.2755 -0.1107  0.5165
 4931TIP3    H238989   0.317   1.329  11.095  0.3598 -0.3895  0.9143
 4932TIP3   OH238990   5.653   1.848  11.529  0.2887  0.2251  0.9855
 4932TIP3    H138991   5.663   1.776  11.591 -0.1664  0.9691  1.9379
 4932TIP3    H238992   5.742   1.862  11.494  0.6420  0.0892  1.8048
 4933TIP3   OH238993   4.932   1.305   9.110  0.4001 -0.0601  0.0532
 4933TIP3    H138994   4.895   1.350   9.185  0.9572  1.9115 -0.8037
 4933TIP3    H238995   4.867   1.316   9.040 -0.0272 -1.7068  0.1408
 4934TIP3   OH238996   2.670   6.530   9.403 -0.0193  0.2480 -0.2500
 4934TIP3    H138997   2.601   6.577   9.357 -1.0329  0.7138  1.6479
 4934TIP3    H238998   2.711   6.596   9.459  0.6281 -0.4697  0.1424
 4935TIP3   OH238999   1.485   5.486  11.569 -0.2922  0.3297  0.1204
 4935TIP3    H139000   1.431   5.416  11.531  0.0335 -0.0095  0.2711
 4935TIP3    H239001   1.548   5.439  11.624 -1.7919  0.8465  2.4445
 4936TIP3   OH239002   6.177   2.269   9.850 -0.7046  0.4478  0.1306
 4936TIP3    H139003   6.159   2.354   9.890  1.2468  0.5379  0.9020
 4936TIP3    H239004   6.243   2.228   9.907 -0.0935 -0.7185 -1.3361
 4937TIP3   OH239005   6.457   5.061   9.157  0.1931 -0.1618  0.1585
 4937TIP3    H139006   6.407   4.984   9.184 -0.7054  0.1648 -0.5220
 4937TIP3    H239007   6.474   5.047   9.064  1.0139 -0.0603  0.2815
 4938TIP3   OH239008   4.819   0.821   9.807  0.5818 -0.6098 -0.5331
 4938TIP3    H139009   4.856   0.806   9.720 -0.4403  0.2857 -1.1590
 4938TIP3    H239010   4.726   0.834   9.791  0.2630 -1.0727  0.7885
 4939TIP3   OH239011   1.064   5.949  11.214 -0.3554  0.3188  0.5482
 4939TIP3    H139012   1.017   5.989  11.287 -1.9653  0.3183 -0.4184
 4939TIP3    H239013   1.067   5.856  11.234 -0.4344  0.3717  0.8018
 4940TIP3   OH239014   4.180   4.130   9.967  0.6026  0.2676 -0.0975
 4940TIP3    H139015   4.219   4.058   9.919 -0.0338 -0.2744  0.1791
 4940TIP3    H239016   4.135   4.182   9.900  0.9616  0.3481 -0.2796
 4941TIP3   OH239017   1.335   2.216  12.015 -0.6647  0.1865 -0.0551
 4941TIP3    H139018   1.324   2.189  12.106  1.7703  0.1277  0.3001
 4941TIP3    H239019   1.292   2.148  11.963 -1.0043 -0.4305  1.0197
 4942TIP3   OH239020   1.863   1.937   9.851 -0.2511  0.1314 -0.3213
 4942TIP3    H139021   1.842   1.992   9.777 -1.6859  1.0207  0.6941
 4942TIP3    H239022   1.782   1.933   9.902  1.0366  0.7311  1.9265
 4943TIP3   OH239023   3.357   4.133   9.923  0.3828  0.0412  0.0309
 4943TIP3    H139024   3.422   4.080   9.876  0.7767 -0.4712  1.1396
 4943TIP3    H239025   3.339   4.084  10.003 -0.1059  1.0173  0.5313
 4944TIP3   OH239026   1.952   0.017  10.395 -0.8019  0.5298  0.4133
 4944TIP3    H139027   1.994   0.078  10.455  0.9065  0.8207 -1.0013
 4944TIP3    H239028   1.988   0.039  10.309 -2.7006 -0.2656 -0.6461
 4945TIP3   OH239029   1.636   2.498   7.705  0.4892 -0.9287  0.0326
 4945TIP3    H139030   1.599   2.425   7.656  0.3023 -0.6623 -0.2262
 4945TIP3    H239031   1.730   2.483   7.703  0.7257  0.3432 -2.5101
 4946TIP3   OH239032   5.274   5.644  11.139  0.0456 -0.4246 -0.2171
 4946TIP3    H139033   5.297   5.737  11.143 -0.2639 -0.2330 -1.9672
 4946TIP3    H239034   5.277   5.614  11.230  0.5830  1.1863  0.3266
 4947TIP3   OH239035   0.623   4.024   8.267 -0.3838 -0.3729  0.2982
 4947TIP3    H139036   0.592   3.938   8.240 -0.9473 -0.6405  1.7256
 4947TIP3    H239037   0.568   4.086   8.219  0.1785 -0.7886 -0.9109
 4948TIP3   OH239038   6.681   1.120  11.650 -0.8744  0.4103 -0.5830
 4948TIP3    H139039   6.711   1.032  11.673  0.6580  1.3075  1.0711
 4948TIP3    H239040   6.726   1.140  11.568  0.6129  0.5081  0.2326
 4949TIP3   OH239041   4.997   1.455  10.944 -0.0408  0.2704 -0.2039
 4949TIP3    H139042   5.050   1.533  10.962 -0.7839  0.5236  0.9850
 4949TIP3    H239043   4.926   1.487  10.888 -0.2862  0.4310  0.1960
 4950TIP3   OH239044   4.060   5.210  10.615 -0.0203  0.1720  0.6228
 4950TIP3    H139045   4.034   5.219  10.706  0.0299 -0.6533  0.7260
 4950TIP3    H239046   4.148   5.247  10.611 -0.2926  0.8544  0.7538
 4951TIP3   OH239047   0.665   2.070   9.131 -0.1817 -0.3741 -0.8929
 4951TIP3    H139048   0.581   2.034   9.160 -0.0760 -0.8086 -1.1197
 4951TIP3    H239049   0.689   2.131   9.200  0.2221 -1.6337  0.1130
 4952TIP3   OH239050   1.864   1.347  10.691 -0.1040  0.1240  0.2237
 4952TIP3    H139051   1.861   1.421  10.752  0.8105  1.5019 -1.2949
 4952TIP3    H239052   1.884   1.271  10.746  0.9231  1.3393  1.6257
 4953TIP3   OH239053   4.752   2.992   8.437  0.7609 -0.1505 -0.0497
 4953TIP3    H139054   4.820   2.929   8.411  0.2307 -0.1392 -1.5385
 4953TIP3    H239055   4.676   2.970   8.383  0.5587  1.7453 -0.6259
 4954TIP3   OH239056   3.008   1.322   9.671 -0.6468 -0.1737 -0.0739
 4954TIP3    H139057   3.058   1.394   9.712 -2.1972  0.4308  0.8351
 4954TIP3    H239058   3.009   1.252   9.737  0.2562 -0.7420 -0.6711
 4955TIP3   OH239059   1.770   1.456  10.938  0.1253 -0.2017 -0.5907
 4955TIP3    H139060   1.821   1.431  11.015 -0.9285 -0.4285  0.0598
 4955TIP3    H239061   1.680   1.433  10.961 -0.0659 -1.4612 -2.3822
 4956TIP3   OH239062   4.306   6.471  11.140  0.4707 -0.4031  0.5358
 4956TIP3    H139063   4.278   6.382  11.121  0.4084 -0.4198  0.7087
 4956TIP3    H239064   4.243   6.526  11.092 -0.3063 -0.4261  1.5105
 4957TIP3   OH239065   1.756   1.485   9.149  1.0599 -0.0711  0.7122
 4957TIP3    H139066   1.693   1.417   9.172  0.1863 -0.2542 -1.9828
 4957TIP3    H239067   1.828   1.472   9.211 -0.3760 -1.4994  2.1839
 4958TIP3   OH239068   5.663   6.694  10.252 -0.8979 -0.3157 -0.1527
 4958TIP3    H139069   5.612   6.726  10.177 -1.1465  0.6480  0.4111
 4958TIP3    H239070   5.754   6.700  10.224 -1.0353 -1.6406 -1.0112
 4959TIP3   OH239071   2.431   2.604   9.651 -0.0781 -0.2532 -0.2099
 4959TIP3    H139072   2.515   2.643   9.629 -0.8486  0.7918 -1.4176
 4959TIP3    H239073   2.441   2.574   9.741  1.6153 -0.2689 -0.3765
 4960TIP3   OH239074   2.917   2.465   9.793  0.6850  0.2523  0.1720
 4960TIP3    H139075   2.829   2.427   9.797  0.4548  0.6879 -0.4818
 4960TIP3    H239076   2.911   2.545   9.846  1.1707 -0.5947  1.5508
 4961TIP3   OH239077   4.287   0.768   9.901  1.3086  0.0696  0.0245
 4961TIP3    H139078   4.231   0.845   9.907  0.9284 -0.1598 -0.5733
 4961TIP3    H239079   4.232   0.695   9.930  1.1996 -0.2010 -0.8454
 4962TIP3   OH239080   1.590   1.690   9.624  0.5061  0.5365  0.4968
 4962TIP3    H139081   1.593   1.673   9.530  1.4532  1.4711  0.3311
 4962TIP3    H239082   1.583   1.604   9.665 -0.6768  0.1620 -0.4390
 4963TIP3   OH239083   3.967   4.151  11.340 -0.2602 -0.0604  0.7882
 4963TIP3    H139084   3.910   4.075  11.345  0.9053 -0.9263  1.4874
 4963TIP3    H239085   4.020   4.136  11.261 -1.3104  0.9997 -0.1636
 4964TIP3   OH239086   2.286   3.285  11.408  0.4234 -0.2142  0.1282
 4964TIP3    H139087   2.327   3.372  11.415  0.3777 -0.2049  0.2712
 4964TIP3    H239088   2.271   3.258  11.498 -1.2593  0.4353  0.0894
 4965TIP3   OH239089   0.619   5.221   9.083  0.1201 -0.4248  0.0698
 4965TIP3    H139090   0.714   5.207   9.083  0.3972  1.2618  0.2640
 4965TIP3    H239091   0.597   5.234   8.990  0.4792  1.3811  0.1949
 4966TIP3   OH239092   3.825   6.697  11.328 -0.2142 -0.3291 -0.5586
 4966TIP3    H139093   3.756   6.673  11.390 -1.0548  0.7953 -1.0375
 4966TIP3    H239094   3.804   6.647  11.249 -0.2913 -0.2421 -0.5937
 4967TIP3   OH239095   0.347   6.180  11.331  0.1783 -0.3648 -0.3501
 4967TIP3    H139096   0.430   6.179  11.283  1.4172  2.5935  1.4715
 4967TIP3    H239097   0.295   6.247  11.287 -0.8142 -1.3614 -0.7364
 4968TIP3   OH239098   3.315   4.942  11.121 -0.4220 -0.2633  0.4153
 4968TIP3    H139099   3.232   4.990  11.113 -0.8145 -0.9141  0.5245
 4968TIP3    H239100   3.376   4.991  11.066 -0.3500  1.3438  1.8408
 4969TIP3   OH239101   6.622   2.080   9.273 -0.7045 -0.2205  0.1382
 4969TIP3    H139102   6.647   2.023   9.347 -1.0268  0.8955  1.1293
 4969TIP3    H239103   6.528   2.067   9.264 -0.5812 -0.7594 -0.4422
 4970TIP3   OH239104   2.140   2.033  11.310  0.0454  0.2620 -0.2253
 4970TIP3    H139105   2.061   1.980  11.306  0.5858 -0.7703  1.4562
 4970TIP3    H239106   2.207   1.980  11.266  1.1437 -1.7172  3.3747
 4971TIP3   OH239107   4.715   3.522   8.284 -0.6724  0.3661 -0.2631
 4971TIP3    H139108   4.767   3.545   8.360 -0.9892 -1.4761  0.5677
 4971TIP3    H239109   4.773   3.468   8.230 -1.4954 -1.3281  0.4574
 4972TIP3   OH239110   2.711   3.970  10.627  0.0360 -0.4235  0.2261
 4972TIP3    H139111   2.720   4.060  10.657 -1.2065 -0.3075  0.2990
 4972TIP3    H239112   2.769   3.964  10.551  0.8837  0.1403  0.8103
 4973TIP3   OH239113   0.072   2.171   9.181 -0.7049  0.9162  0.5042
 4973TIP3    H139114  -0.017   2.138   9.169 -0.2584  0.0031 -0.5648
 4973TIP3    H239115   0.112   2.161   9.095  1.2499 -1.2698  1.5623
 4974TIP3   OH239116   1.020   0.245  11.131  0.0064  0.5541 -0.0320
 4974TIP3    H139117   1.018   0.163  11.081 -1.5558  0.9339 -0.6503
 4974TIP3    H239118   1.064   0.222  11.213  0.2558 -0.7180 -0.4959
 4975TIP3   OH239119   4.591   6.774  10.299 -0.4114 -0.1231 -0.1953
 4975TIP3    H139120   4.623   6.842  10.358 -1.2708  0.5086 -0.4414
 4975TIP3    H239121   4.600   6.693  10.349 -0.0167  0.2536  0.3554
 4976TIP3   OH239122   4.393   1.049   9.608  0.1093  0.0968  0.7929
 4976TIP3    H139123   4.377   0.958   9.632  0.2271  0.0874  0.8337
 4976TIP3    H239124   4.348   1.059   9.524 -0.5341  0.2022  1.1363
 4977TIP3   OH239125   0.582   1.106  10.341  0.3870 -0.1419  0.2454
 4977TIP3    H139126   0.542   1.036  10.392  0.1147  1.5215  2.4534
 4977TIP3    H239127   0.513   1.134  10.281 -0.0830 -0.5906  0.5676
 4978TIP3   OH239128   6.560   2.821   8.821 -0.1693 -0.3908  0.0475
 4978TIP3    H139129   6.635   2.869   8.785  0.2355 -0.7856  0.3496
 4978TIP3    H239130   6.543   2.752   8.758 -2.2266  1.4733 -1.5862
 4979TIP3   OH239131   5.844   1.476   8.827  0.1168 -0.3099  0.4226
 4979TIP3    H139132   5.814   1.390   8.800 -0.1018 -0.1912  0.2790
 4979TIP3    H239133   5.917   1.459   8.886  2.7121 -0.5569 -2.6105
 4980TIP3   OH239134   0.487   1.171   9.573  0.7005  0.3662 -0.1377
 4980TIP3    H139135   0.443   1.256   9.582  0.8613  0.3205  1.2211
 4980TIP3    H239136   0.416   1.109   9.558 -0.0787 -0.0291  3.9983
 4981TIP3   OH239137   2.970   2.059  10.322  0.4810 -0.5461 -0.2466
 4981TIP3    H139138   3.056   2.018  10.324 -0.3272 -2.3326 -0.5804
 4981TIP3    H239139   2.921   2.016  10.393 -0.3939 -0.1543 -0.5964
 4982TIP3   OH239140   1.486   5.271   9.485 -0.3012  0.6484  0.1554
 4982TIP3    H139141   1.517   5.332   9.418  1.5192  0.5989  0.8851
 4982TIP3    H239142   1.536   5.294   9.563 -0.3553 -1.0729  0.7418
 4983TIP3   OH239143   4.854   4.383   8.820  0.1123 -0.0861  0.8168
 4983TIP3    H139144   4.816   4.452   8.767 -2.5259 -1.2169  1.0836
 4983TIP3    H239145   4.908   4.429   8.884 -0.3304  1.5950  0.0457
 4984TIP3   OH239146   1.426   2.224  10.703  0.5494  0.2224 -0.2300
 4984TIP3    H139147   1.508   2.261  10.734 -0.3787  0.3897  2.2706
 4984TIP3    H239148   1.386   2.293  10.650  1.1185  0.8898  0.2022
 4985TIP3   OH239149   1.071   4.218   9.458 -0.0990  0.2303 -0.0834
 4985TIP3    H139150   1.072   4.314   9.450 -0.1300  0.2420  0.0544
 4985TIP3    H239151   1.116   4.200   9.540  2.3236 -0.0145 -1.3641
 4986TIP3   OH239152   1.465   0.080   9.924 -0.1145 -0.4670  0.1582
 4986TIP3    H139153   1.547   0.092   9.971 -0.8202 -0.2898  1.3941
 4986TIP3    H239154   1.456  -0.015   9.915 -0.7041 -0.5909  1.7737
 4987TIP3   OH239155   0.109   0.199  10.038  0.3251  0.6747  0.2651
 4987TIP3    H139156   0.099   0.113   9.997  0.3507  0.9235 -0.2680
 4987TIP3    H239157   0.070   0.260   9.976  2.3794  1.3179 -0.4771
 4988TIP3   OH239158   6.462   3.767  10.537  0.2053 -0.1806 -0.4113
 4988TIP3    H139159   6.442   3.759  10.630  0.9688  0.0273 -0.2162
 4988TIP3    H239160   6.449   3.860  10.517 -0.8708 -0.3966 -0.7432
 4989TIP3   OH239161   6.241   1.546  11.631 -0.1751  0.1422  0.2452
 4989TIP3    H139162   6.259   1.532  11.724 -1.3916  0.1189  0.4932
 4989TIP3    H239163   6.263   1.463  11.589 -2.5227 -0.9145  0.9770
 4990TIP3   OH239164   5.577   0.680  11.949  0.6391  0.3305  0.1370
 4990TIP3    H139165   5.491   0.640  11.935  1.7429 -2.1990 -0.0177
 4990TIP3    H239166   5.564   0.773  11.929 -1.8540 -0.1183 -0.6780
 4991TIP3   OH239167   2.446   2.221  11.214 -0.2248 -0.0055 -0.1419
 4991TIP3    H139168   2.535   2.245  11.187 -0.6369  0.4739 -1.1036
 4991TIP3    H239169   2.420   2.289  11.275  0.3119 -0.5218  0.6951
 4992TIP3   OH239170   1.036   0.809   8.973  0.4654 -0.4927  0.7784
 4992TIP3    H139171   0.969   0.810   8.905  2.7985 -2.1761 -1.7277
 4992TIP3    H239172   1.081   0.894   8.963  0.5563 -0.5767  0.4594
 4993TIP3   OH239173   2.156   2.082   8.155  0.1139 -0.1332  0.3839
 4993TIP3    H139174   2.122   2.050   8.239 -0.3175 -1.9143 -0.4313
 4993TIP3    H239175   2.251   2.077   8.164  0.0664 -2.0728  0.1687
 4994TIP3   OH239176   2.699   2.166  11.365  0.0738  0.2025  0.7822
 4994TIP3    H139177   2.744   2.182  11.282 -3.6178  0.9320 -1.2921
 4994TIP3    H239178   2.695   2.070  11.371  0.9341  0.1364  0.4655
 4995TIP3   OH239179   4.651   2.758  11.880 -0.3098 -0.1890  0.1106
 4995TIP3    H139180   4.723   2.764  11.943  1.4634  0.2495 -1.8228
 4995TIP3    H239181   4.586   2.822  11.910  0.1595 -0.4911  1.8313
 4996TIP3   OH239182   2.479   5.721  11.225 -0.0758  0.2856  0.1619
 4996TIP3    H139183   2.428   5.703  11.304  0.8527  0.5988  0.8503
 4996TIP3    H239184   2.497   5.815  11.227  1.5480  0.0045  0.5959
 4997TIP3   OH239185   0.198   6.356  11.157  0.0238  0.2550  0.2545
 4997TIP3    H139186   0.130   6.366  11.092  1.5102  1.2541 -1.2285
 4997TIP3    H239187   0.174   6.417  11.227 -0.2260  1.1446 -0.5913
 4998TIP3   OH239188   4.842   1.356  11.746 -0.1831  0.1481  0.8494
 4998TIP3    H139189   4.892   1.437  11.738 -1.0046  0.7752  1.8111
 4998TIP3    H239190   4.751   1.383  11.736 -0.4482 -0.7162  0.8265
 4999TIP3   OH239191   0.811   5.090   8.304 -0.4184 -0.7375  0.3924
 4999TIP3    H139192   0.731   5.106   8.255  0.6196  0.5198 -0.9822
 4999TIP3    H239193   0.875   5.066   8.237  1.1124  1.2623  1.0319
 5000TIP3   OH239194   1.680   5.998  10.143 -0.2028  0.2160  0.4496
 5000TIP3    H139195   1.635   5.994  10.228  1.1914  0.6660  1.2427
 5000TIP3    H239196   1.663   6.087  10.112  0.3167  0.4630  0.8593
 5001TIP3   OH239197   2.989   3.890  11.845 -0.1007  0.2191  0.1393
 5001TIP3    H139198   2.911   3.944  11.857 -0.5415 -0.4744  0.4976
 5001TIP3    H239199   3.014   3.864  11.934  1.9993  2.3945  0.2855
 5002TIP3   OH239200   0.802   4.261   9.084 -0.4285  0.5704  0.4221
 5002TIP3    H139201   0.751   4.269   9.165  0.6683 -0.5770  1.2597
 5002TIP3    H239202   0.893   4.270   9.112 -0.0893  1.3482 -0.8706
 5003TIP3   OH239203   2.363   0.816   9.868 -0.4910  0.3210 -0.3671
 5003TIP3    H139204   2.420   0.786   9.939 -0.2112 -1.4254 -1.2874
 5003TIP3    H239205   2.401   0.899   9.841  1.5002 -0.6761 -0.7850
 5004TIP3   OH239206   4.523   5.203  10.851 -0.2804  0.1581 -0.4957
 5004TIP3    H139207   4.577   5.181  10.775 -1.3079  1.2635 -1.6087
 5004TIP3    H239208   4.546   5.294  10.871  1.8175 -0.8492  2.1810
 5005TIP3   OH239209   6.423   5.673   9.553 -0.1962 -0.0070 -0.0561
 5005TIP3    H139210   6.494   5.689   9.490 -0.6886 -1.2021 -0.9623
 5005TIP3    H239211   6.466   5.672   9.638  0.3065  2.9877 -0.1645
 5006TIP3   OH239212   2.904   3.299  10.869  0.2369 -0.0032 -0.2269
 5006TIP3    H139213   3.000   3.294  10.874  0.3901  2.7328  1.0284
 5006TIP3    H239214   2.887   3.371  10.807 -1.0735 -1.0346 -1.1315
 5007TIP3   OH239215   4.402   5.009   9.976 -0.4064  1.0891  0.6670
 5007TIP3    H139216   4.381   4.965   9.893  1.1652 -0.2829  0.9436
 5007TIP3    H239217   4.348   5.088   9.975 -1.6371  0.2954 -0.9129
 5008TIP3   OH239218   3.442   4.711  10.685  0.2001  0.0377 -0.5340
 5008TIP3    H139219   3.415   4.721  10.594  1.0747  0.7201 -0.7376
 5008TIP3    H239220   3.517   4.770  10.694 -0.0922  0.2464  0.7278
 5009TIP3   OH239221   3.480   2.152   9.690 -0.2437 -0.3673 -0.2085
 5009TIP3    H139222   3.391   2.129   9.664 -0.8186  0.6424  0.7793
 5009TIP3    H239223   3.469   2.216   9.760  1.2655 -0.0024 -0.2634
 5010TIP3   OH239224   5.788   4.426  11.078 -0.2069  0.5347 -0.3293
 5010TIP3    H139225   5.795   4.513  11.039  0.4763  0.7777  0.3127
 5010TIP3    H239226   5.757   4.370  11.007  0.4936  1.0670 -1.0677
 5011TIP3   OH239227   5.432   0.723   8.816  0.6697 -0.0263 -0.6535
 5011TIP3    H139228   5.348   0.765   8.801  0.4583 -0.6453 -1.2506
 5011TIP3    H239229   5.486   0.750   8.741  0.9876  0.3375 -0.2946
 5012TIP3   OH239230   3.076   6.323   9.533 -0.1330  0.1411  0.3645
 5012TIP3    H139231   3.143   6.308   9.466  0.7318  2.3056  0.6410
 5012TIP3    H239232   3.043   6.236   9.554  2.5119 -1.0337  0.1059
 5013TIP3   OH239233   2.147   3.004  11.055 -0.4458  0.4344 -0.3448
 5013TIP3    H139234   2.224   2.958  11.089 -1.3576  0.0701  1.3275
 5013TIP3    H239235   2.162   3.095  11.078 -2.2251 -0.0669  3.7662
 5014TIP3   OH239236   6.589   6.125  11.312 -0.0763 -0.2260  0.3005
 5014TIP3    H139237   6.585   6.221  11.308  0.8559 -0.1974 -0.3202
 5014TIP3    H239238   6.679   6.106  11.340 -0.0021 -0.9269 -0.3853
 5015TIP3   OH239239   2.394   1.012  11.462 -0.4238 -0.1529  0.4671
 5015TIP3    H139240   2.439   0.927  11.460 -0.1241 -0.0142  1.1900
 5015TIP3    H239241   2.446   1.067  11.403 -1.4699 -0.8656 -1.1980
 5016TIP3   OH239242   0.557   2.533   9.674 -0.9832  0.2930  0.3684
 5016TIP3    H139243   0.493   2.575   9.617  1.2977  1.2250 -1.6911
 5016TIP3    H239244   0.531   2.441   9.676 -1.1780  0.2201 -2.2159
 5017TIP3   OH239245   4.464   0.643  11.585  0.0317  0.6527 -0.2644
 5017TIP3    H139246   4.374   0.646  11.551 -0.9255 -0.0963  2.0158
 5017TIP3    H239247   4.487   0.735  11.599 -1.4943  0.7933  1.7329
 5018TIP3   OH239248   4.752   5.490  11.493  0.0346  0.0671 -0.1767
 5018TIP3    H139249   4.794   5.575  11.478  0.3279  0.2498  1.5017
 5018TIP3    H239250   4.788   5.460  11.576 -1.1763 -1.0225 -0.0160
 5019TIP3   OH239251   5.228   0.763  10.281 -0.2491 -0.2841 -0.4635
 5019TIP3    H139252   5.303   0.822  10.277 -1.2814  1.2067  0.9902
 5019TIP3    H239253   5.262   0.684  10.324  0.7268 -0.0736 -0.8220
 5020TIP3   OH239254   6.269   1.825  10.395  0.5402 -0.4884 -0.4748
 5020TIP3    H139255   6.274   1.845  10.302  2.8287  2.4269  0.1571
 5020TIP3    H239256   6.348   1.863  10.433 -0.0243 -2.0584  2.6128
 5021TIP3   OH239257   6.478   0.075  10.798 -0.2570 -0.2769 -0.0333
 5021TIP3    H139258   6.480   0.170  10.786 -0.0079 -0.3977 -1.0600
 5021TIP3    H239259   6.529   0.041  10.724 -2.5669 -1.3503 -1.2170
 5022TIP3   OH239260   2.177   2.870   9.924 -0.5089 -0.3414  0.9058
 5022TIP3    H139261   2.229   2.795   9.952 -0.5644 -0.3785  0.9117
 5022TIP3    H239262   2.194   2.937   9.990 -0.2312 -0.2476  0.7410
 5023TIP3   OH239263   1.330   5.368   9.823  0.1676  0.3447  0.4375
 5023TIP3    H139264   1.343   5.431   9.752 -1.8523 -0.0151 -0.3294
 5023TIP3    H239265   1.416   5.357   9.862  0.7454  2.9189  0.0457
 5024TIP3   OH239266   6.316   0.170  11.825  0.3896  0.2868 -0.1803
 5024TIP3    H139267   6.322   0.232  11.898  0.0717  1.1520 -0.8790
 5024TIP3    H239268   6.239   0.199  11.775 -0.5312 -1.4139  0.1627
 5025TIP3   OH239269   5.936   0.587   7.603  0.1890 -0.4891 -0.3625
 5025TIP3    H139270   5.930   0.656   7.537  0.2494 -1.0702 -0.9857
 5025TIP3    H239271   6.029   0.567   7.609  0.4893  1.1789  1.6209
 5026TIP3   OH239272   6.685   4.607  10.926 -0.2659  0.6331  0.7595
 5026TIP3    H139273   6.670   4.623  10.833 -0.2421  0.5560  0.7424
 5026TIP3    H239274   6.758   4.664  10.949  1.4832 -1.2543  0.1280
 5027TIP3   OH239275   5.429   0.793  10.660 -0.1895 -0.7679  0.1186
 5027TIP3    H139276   5.497   0.810  10.595 -0.6424  0.4255 -0.0669
 5027TIP3    H239277   5.356   0.849  10.635 -1.0393 -1.5801  0.6597
 5028TIP3   OH239278   0.615   5.814  10.477 -0.0564 -0.2307  0.1009
 5028TIP3    H139279   0.655   5.735  10.441  1.3458  0.1479  0.7577
 5028TIP3    H239280   0.676   5.843  10.545 -0.7661  1.1760  0.1746
 5029TIP3   OH239281   1.757   5.301  11.432  0.3210  0.2550 -0.9599
 5029TIP3    H139282   1.776   5.388  11.467 -1.1606  0.0328  0.5254
 5029TIP3    H239283   1.824   5.245  11.470 -0.6849  0.1973  0.8573
 5030TIP3   OH239284   1.731   1.126   9.674 -0.0447  0.0904  0.3718
 5030TIP3    H139285   1.693   1.044   9.705 -1.4971 -0.4342 -2.4850
 5030TIP3    H239286   1.804   1.099   9.617 -1.5919  0.5697 -1.9807
 5031TIP3   OH239287   3.314   4.677  11.785 -0.1330 -0.4061  0.6784
 5031TIP3    H139288   3.268   4.761  11.781  0.3017 -0.2107 -0.3395
 5031TIP3    H239289   3.247   4.615  11.814 -0.2944  0.3983  2.1275
 5032TIP3   OH239290   0.911   6.017  10.081  0.3498  0.2859  0.0195
 5032TIP3    H139291   0.957   6.076  10.021 -0.2971  0.1252 -0.6508
 5032TIP3    H239292   0.850   6.073  10.128  0.5208  0.3326  0.1869
 5033TIP3   OH239293   1.144   1.677   8.275  0.2684  0.7112 -0.2989
 5033TIP3    H139294   1.192   1.615   8.220 -1.2928 -1.2808  0.4560
 5033TIP3    H239295   1.053   1.667   8.248 -0.0141  3.1237 -0.4947
 5034TIP3   OH239296   0.564   1.302  11.964 -0.2812 -0.4418  0.0153
 5034TIP3    H139297   0.618   1.350  11.902  0.6850 -1.8172 -0.2627
 5034TIP3    H239298   0.615   1.301  12.045 -0.1068 -1.3197 -0.0985
 5035TIP3   OH239299   1.568   2.532  10.447 -0.1147 -0.4023  0.3039
 5035TIP3    H139300   1.484   2.532  10.493 -0.5253  0.7986 -0.4140
 5035TIP3    H239301   1.563   2.607  10.388  0.4312 -1.8508 -1.6733
 5036TIP3   OH239302   3.965   1.491   9.038  0.1348  0.1625  0.3585
 5036TIP3    H139303   3.877   1.496   9.074  0.2581 -0.7528  0.8108
 5036TIP3    H239304   3.959   1.426   8.968  0.3643  0.4067  0.1062
 5037TIP3   OH239305   5.919   2.051  11.608 -0.2059  0.0297  0.3954
 5037TIP3    H139306   5.946   1.984  11.546 -1.6538 -0.8980  0.6983
 5037TIP3    H239307   5.862   2.110  11.557  0.9287  0.9606  0.1694
 5038TIP3   OH239308   4.418   4.193  10.451  0.2477  0.1558 -0.1389
 5038TIP3    H139309   4.333   4.167  10.415  0.0309  0.4948  0.1192
 5038TIP3    H239310   4.399   4.219  10.541  0.8631 -1.1280  0.3934
 5039TIP3   OH239311   1.516   0.470   9.778  0.2194 -0.2360 -0.2004
 5039TIP3    H139312   1.490   0.400   9.718  1.4257 -0.0985 -0.9229
 5039TIP3    H239313   1.605   0.492   9.751  0.1030  1.1215  0.4552
 5040TIP3   OH239314   1.436   2.909   9.885 -0.3302  0.0357 -0.1969
 5040TIP3    H139315   1.430   2.879   9.795  2.1133  1.1344 -0.7852
 5040TIP3    H239316   1.527   2.935   9.897 -0.6458  0.2409  2.4998
 5041TIP3   OH239317   5.458   3.302   8.514  0.2376 -0.8248  0.1184
 5041TIP3    H139318   5.480   3.379   8.566 -0.7748 -0.3721 -0.1058
 5041TIP3    H239319   5.521   3.302   8.442 -1.3749  1.3125 -1.3881
 5042TIP3   OH239320   2.080   3.462   9.871  0.5269  0.4149 -0.0138
 5042TIP3    H139321   2.027   3.504   9.939  0.8491  0.4176  0.2403
 5042TIP3    H239322   2.065   3.368   9.883  2.6251  0.2327  1.8079
 5043TIP3   OH239323   1.526   3.441  10.541 -0.2883  0.2063  0.1225
 5043TIP3    H139324   1.486   3.365  10.498  0.2051  0.1605 -0.2639
 5043TIP3    H239325   1.513   3.425  10.635 -2.2164  0.7755 -0.0246
 5044TIP3   OH239326   1.457   1.618   7.879  0.2171 -0.2178 -0.1762
 5044TIP3    H139327   1.444   1.528   7.907  0.4160 -0.3036 -0.3627
 5044TIP3    H239328   1.416   1.623   7.792  1.3325 -0.4710 -0.7407
 5045TIP3   OH239329   4.391   4.975  11.060  0.6978 -0.1055  0.0219
 5045TIP3    H139330   4.402   5.038  10.989 -0.3945  1.0220  0.8109
 5045TIP3    H239331   4.478   4.936  11.072  0.9433 -0.1866 -1.7715
 5046TIP3   OH239332   0.275   2.030   8.651  0.0935  0.3535  0.1278
 5046TIP3    H139333   0.239   1.949   8.687  0.3841  0.9776  1.9354
 5046TIP3    H239334   0.222   2.046   8.572 -0.8660 -0.8708  0.4812
 5047TIP3   OH239335   0.357   1.453   9.117 -0.1925  0.0500  0.2718
 5047TIP3    H139336   0.264   1.432   9.127  0.0108 -2.3602 -1.8919
 5047TIP3    H239337   0.403   1.387   9.168  0.3474 -0.3594 -0.7098
 5048TIP3   OH239338   4.972   2.109  11.378  0.0755  0.4975  0.8049
 5048TIP3    H139339   4.971   2.041  11.311 -2.7828  1.0239  0.1848
 5048TIP3    H239340   5.048   2.162  11.356 -1.6016  1.6511 -3.2243
 5049TIP3   OH239341   6.129   0.938   9.701 -0.1824 -0.3673 -0.5035
 5049TIP3    H139342   6.040   0.965   9.679 -0.7386 -2.2148 -0.6900
 5049TIP3    H239343   6.152   0.876   9.633  0.5848 -1.2092  0.5068
 5050TIP3   OH239344   3.490   1.998  11.383  0.2100  0.4214 -0.3863
 5050TIP3    H139345   3.481   1.903  11.393  2.8046  0.2847  1.6759
 5050TIP3    H239346   3.437   2.035  11.452 -0.0548  0.4395 -0.5982
 5051TIP3   OH239347   0.250   5.725  11.323 -0.4140  0.0877  0.6475
 5051TIP3    H139348   0.194   5.701  11.397  0.9319 -2.1709  1.0281
 5051TIP3    H239349   0.247   5.649  11.265  0.2709  0.9498 -0.5630
 5052TIP3   OH239350   5.653   1.989  10.013 -0.0093 -0.1386  0.1429
 5052TIP3    H139351   5.689   1.965  10.099  0.2625  0.6169  0.2487
 5052TIP3    H239352   5.725   2.035   9.969 -0.3267 -0.0361 -0.2710
 5053TIP3   OH239353   1.872   0.520  10.339 -0.0688  1.0411 -0.0725
 5053TIP3    H139354   1.903   0.543  10.252 -0.3917 -0.0359 -0.4843
 5053TIP3    H239355   1.794   0.574  10.352  0.2054  1.4880 -0.2886
 5054TIP3   OH239356   4.460   2.934  10.321  0.1638 -0.2353  0.3889
 5054TIP3    H139357   4.500   2.914  10.236 -0.4765 -2.1967  0.5126
 5054TIP3    H239358   4.465   2.852  10.370 -0.0400  0.6933  2.0362
 5055TIP3   OH239359   5.327   4.520  11.356 -0.5898 -1.0092 -0.6585
 5055TIP3    H139360   5.311   4.533  11.263 -0.3487 -1.6241 -0.7903
 5055TIP3    H239361   5.361   4.604  11.387 -0.6654 -0.8053 -1.1233
 5056TIP3   OH239362   2.423   0.815  10.674  0.1902 -0.4749  0.3621
 5056TIP3    H139363   2.503   0.863  10.694  0.0133  1.1318 -2.3296
 5056TIP3    H239364   2.356   0.858  10.727  0.1023  2.2316 -1.7314
 5057TIP3   OH239365   0.726   2.198   9.891  0.4238 -0.2749 -0.5325
 5057TIP3    H139366   0.655   2.166   9.836  0.4407 -0.4544 -0.4516
 5057TIP3    H239367   0.804   2.190   9.836  0.7095 -2.0121  0.0511
 5058TIP3   OH239368   2.312   3.386  10.162  0.7423 -0.0489 -0.1278
 5058TIP3    H139369   2.236   3.415  10.213  1.4920  1.0892  0.3835
 5058TIP3    H239370   2.297   3.423  10.075  0.2294 -0.6649 -0.3039
 5059TIP3   OH239371   4.818   6.269  10.705  0.4421  0.8206  0.6133
 5059TIP3    H139372   4.904   6.232  10.726  0.7277  1.8105  1.2939
 5059TIP3    H239373   4.809   6.259  10.611  0.4047 -1.1390  0.7742
 5060TIP3   OH239374   0.416   0.462  10.772  0.0537 -0.3388  0.0982
 5060TIP3    H139375   0.467   0.436  10.849  0.0114  0.8123  0.5224
 5060TIP3    H239376   0.387   0.551  10.791 -1.1920 -0.5652 -0.6183
 5061TIP3   OH239377   2.530   2.268  10.594  0.7202  0.1983  0.4139
 5061TIP3    H139378   2.449   2.317  10.579  1.4616  0.7459 -2.6289
 5061TIP3    H239379   2.503   2.176  10.593  0.2321  0.2405 -2.8094
 5062TIP3   OH239380   5.797   6.528   9.244 -0.3013  0.1704 -0.5675
 5062TIP3    H139381   5.757   6.448   9.277  0.8217 -0.2267 -0.0978
 5062TIP3    H239382   5.864   6.498   9.183 -0.3511  0.7804 -0.9289
 5063TIP3   OH239383   3.251   1.516  10.799 -0.2455  0.0672  0.1934
 5063TIP3    H139384   3.317   1.569  10.842  0.7276 -3.3647  3.4410
 5063TIP3    H239385   3.168   1.555  10.825  0.3664  2.0152 -0.5690
 5064TIP3   OH239386   3.492   6.341   9.876  0.2198 -0.5512 -0.7517
 5064TIP3    H139387   3.491   6.290   9.957  0.5712  0.1952 -0.2653
 5064TIP3    H239388   3.527   6.281   9.810  0.6767 -0.9159 -0.1847
 5065TIP3   OH239389   1.417   4.087   9.587 -0.5701 -0.0730 -0.0557
 5065TIP3    H139390   1.438   4.001   9.625 -1.6253 -0.5989 -0.6202
 5065TIP3    H239391   1.328   4.105   9.615 -1.0402 -0.0457 -1.4716
 5066TIP3   OH239392   0.274   5.928  10.148 -0.2018 -0.1764  0.2990
 5066TIP3    H139393   0.336   5.863  10.181  1.0159 -0.2094 -1.8896
 5066TIP3    H239394   0.225   5.883  10.079 -0.1970  0.8712 -0.4102
 5067TIP3   OH239395   5.402   1.842   8.972 -0.1640 -0.3108  0.1293
 5067TIP3    H139396   5.387   1.926   8.928 -1.5066  0.4953  2.0223
 5067TIP3    H239397   5.340   1.841   9.045  1.7884 -1.6882  1.8922
 5068TIP3   OH239398   6.452   0.301   9.738  0.1495  0.1244 -0.0764
 5068TIP3    H139399   6.481   0.299   9.647  0.2332 -0.7928 -0.0440
 5068TIP3    H239400   6.360   0.325   9.734  0.6650  2.2096 -0.2418
 5069TIP3   OH239401   3.030   0.348   8.979  0.2071 -0.3216  0.1035
 5069TIP3    H139402   3.103   0.329   8.921 -0.1525 -0.4527 -0.3095
 5069TIP3    H239403   3.061   0.419   9.035  0.4808 -0.0533 -0.3858
 5070TIP3   OH239404   4.147   2.973   9.180  0.4763  0.2667  0.0889
 5070TIP3    H139405   4.168   3.065   9.161 -0.8348  1.0451  2.0314
 5070TIP3    H239406   4.052   2.967   9.164  0.3846 -0.4840  0.8393
 5071TIP3   OH239407   2.084   2.735  11.699 -0.3351 -0.3988 -0.3921
 5071TIP3    H139408   2.175   2.707  11.705 -0.1141  0.4537  0.5485
 5071TIP3    H239409   2.035   2.667  11.745 -0.0727 -0.4261 -0.1486
 5072TIP3   OH239410   2.601   5.783  10.980  0.2661 -0.3832 -0.2900
 5072TIP3    H139411   2.512   5.759  10.954  0.2191 -0.9478  0.3529
 5072TIP3    H239412   2.656   5.753  10.908 -0.0252 -0.4131 -0.4990
 5073TIP3   OH239413   2.213   4.909   9.901  0.1139 -0.5954  0.0137
 5073TIP3    H139414   2.244   4.947   9.983  0.9655  1.6944 -1.3060
 5073TIP3    H239415   2.196   4.984   9.844 -1.1802 -2.0897 -1.6844
 5074TIP3   OH239416   4.763   2.292  11.381  0.1525 -0.1542  0.1834
 5074TIP3    H139417   4.847   2.329  11.353 -0.7808  1.5768 -0.4651
 5074TIP3    H239418   4.786   2.234  11.454  1.7712  1.3706  0.9529
 5075TIP3   OH239419   0.426   0.169   8.785  0.2142  0.6967  0.0153
 5075TIP3    H139420   0.474   0.107   8.730 -0.8444  0.4842 -0.6988
 5075TIP3    H239421   0.494   0.224   8.825  1.0252  0.6558 -1.2699
 5076TIP3   OH239422   4.197   0.346  10.595  0.8955  0.2431 -0.1573
 5076TIP3    H139423   4.259   0.419  10.596 -1.1022  2.0737 -1.3225
 5076TIP3    H239424   4.216   0.300  10.513  1.4475  0.0898  0.0538
 5077TIP3   OH239425   6.271   5.023  10.039  0.1806 -0.1746 -0.0709
 5077TIP3    H139426   6.288   5.080   9.963 -0.1606  0.0517  0.0217
 5077TIP3    H239427   6.345   5.040  10.098  0.7414 -0.7527 -0.5801
 5078TIP3   OH239428   1.071   1.477  10.456 -0.4411  0.1349 -0.5363
 5078TIP3    H139429   1.089   1.384  10.450 -1.2435 -0.1042  0.3994
 5078TIP3    H239430   1.091   1.499  10.548 -0.8988  0.7290 -0.5748
 5079TIP3   OH239431   3.044   3.391   9.243  0.0583 -0.0125 -0.1755
 5079TIP3    H139432   2.988   3.338   9.300  0.1440 -0.5855 -0.6261
 5079TIP3    H239433   2.996   3.397   9.161 -1.0288  2.4835  0.5320
 5080TIP3   OH239434   5.001   4.548   9.606 -0.0748 -0.7203  0.2148
 5080TIP3    H139435   4.981   4.515   9.694 -0.2134 -0.3203  0.3333
 5080TIP3    H239436   5.053   4.627   9.621 -0.7950 -0.1878 -0.0473
 5081TIP3   OH239437   4.440   2.380   9.570  0.0097 -0.2955 -0.0822
 5081TIP3    H139438   4.358   2.336   9.550 -0.1835 -0.0179  0.0908
 5081TIP3    H239439   4.441   2.456   9.511  0.0650 -0.2112  0.0270
 5082TIP3   OH239440   3.241   0.543  11.739  0.2387  0.5576  0.2595
 5082TIP3    H139441   3.166   0.598  11.762  1.1559  1.0695  2.2378
 5082TIP3    H239442   3.207   0.483  11.672 -1.8369  0.9442  0.8898
 5083TIP3   OH239443   5.867   0.231  11.479 -0.4937  0.2566  0.2055
 5083TIP3    H139444   5.792   0.176  11.504 -1.3491  1.2308 -0.1904
 5083TIP3    H239445   5.883   0.209  11.387 -2.0633  2.0016 -0.5458
 5084TIP3   OH239446   1.212   1.365  10.203  0.9414  0.3318 -0.3449
 5084TIP3    H139447   1.236   1.438  10.260  2.7601 -0.1385 -0.4371
 5084TIP3    H239448   1.192   1.294  10.264 -1.0002  0.9221 -0.2517
 5085TIP3   OH239449   4.956   1.994   9.424 -0.2709 -0.3937  0.5390
 5085TIP3    H139450   4.943   1.902   9.445 -2.3128 -0.2426  0.1647
 5085TIP3    H239451   4.896   2.041   9.483 -0.9277  0.5043 -0.7925
 5086TIP3   OH239452   0.635   4.544  11.294  0.0946 -0.0075 -0.1947
 5086TIP3    H139453   0.593   4.532  11.209  1.5671  0.4207 -1.0195
 5086TIP3    H239454   0.716   4.493  11.287  0.6525  0.7465  0.6302
 5087TIP3   OH239455   0.606   2.762   9.476  0.0748 -0.1084 -0.5521
 5087TIP3    H139456   0.531   2.769   9.534 -0.4743 -3.6900 -0.5961
 5087TIP3    H239457   0.682   2.759   9.535 -0.4177 -2.9045  0.0793
 5088TIP3   OH239458   3.285   2.116  11.535 -0.3430  0.1211  0.7833
 5088TIP3    H139459   3.247   2.168  11.606  0.8530  1.0030  0.8079
 5088TIP3    H239460   3.212   2.102  11.474 -0.8789  1.1599  1.1575
 5089TIP3   OH239461   1.197   2.530   8.913 -0.1150 -0.7827  0.2905
 5089TIP3    H139462   1.255   2.505   8.841  0.5267 -0.3878  0.6517
 5089TIP3    H239463   1.130   2.585   8.874  0.9351  0.4547  0.1796
 5090TIP3   OH239464   1.234   3.282   8.181 -0.3029 -0.0870  0.1932
 5090TIP3    H139465   1.285   3.333   8.245 -1.2997  0.9487  0.2085
 5090TIP3    H239466   1.281   3.292   8.099  1.8999 -2.7501  0.9734
 5091TIP3   OH239467   5.411   2.085   8.805  0.1671  0.2154 -0.0236
 5091TIP3    H139468   5.374   2.159   8.853  1.2924  0.8325 -0.0725
 5091TIP3    H239469   5.372   2.091   8.718 -2.3454 -1.2541  0.8930
 5092TIP3   OH239470   4.998   3.225   8.662  0.4263 -0.4156  0.2656
 5092TIP3    H139471   4.907   3.231   8.631  0.3464 -1.5005  0.2446
 5092TIP3    H239472   5.050   3.234   8.582  0.2561 -1.8480 -0.0516
 5093TIP3   OH239473   0.995   2.852  11.148  0.1916 -0.1060 -0.4575
 5093TIP3    H139474   1.033   2.839  11.235 -0.7531  1.0504  0.1646
 5093TIP3    H239475   0.901   2.863  11.165  0.1144  1.0311 -1.5169
 5094TIP3   OH239476   4.033   0.767  10.248  0.1623 -0.1404  0.3444
 5094TIP3    H139477   4.022   0.689  10.302  1.1393 -0.1843  0.4902
 5094TIP3    H239478   4.069   0.735  10.166  0.3997  0.1369  0.3389
 5095TIP3   OH239479   6.297   5.344   9.583  0.1712  0.5023  0.4134
 5095TIP3    H139480   6.227   5.379   9.637  0.2520  0.0229  0.8394
 5095TIP3    H239481   6.338   5.420   9.543 -0.6801  0.7790  0.0459
 5096TIP3   OH239482   0.555   6.472   9.140  0.3797  0.4392  0.3045
 5096TIP3    H139483   0.559   6.562   9.109 -1.4865  0.2582 -0.6080
 5096TIP3    H239484   0.507   6.425   9.072 -1.6143 -0.5314  2.2444
 5097TIP3   OH239485   0.336   4.515   8.422  0.4563 -0.5996 -0.4781
 5097TIP3    H139486   0.427   4.528   8.395  0.3022 -0.9634 -1.1917
 5097TIP3    H239487   0.327   4.420   8.432  0.7507 -0.4366  1.7702
 5098TIP3   OH239488   5.828   3.986   9.666 -0.1130  0.0541 -0.0399
 5098TIP3    H139489   5.826   3.908   9.721  0.3947  1.1395  1.6056
 5098TIP3    H239490   5.749   4.034   9.690 -0.6422 -0.1386 -1.3498
 5099TIP3   OH239491   4.418   0.959  10.876 -0.1346 -0.8155  0.5798
 5099TIP3    H139492   4.350   1.017  10.841  1.2521 -0.1563 -1.2153
 5099TIP3    H239493   4.393   0.872  10.847 -0.7150 -0.7152  0.7741
 5100TIP3   OH239494   3.673   1.958  10.930 -0.0548 -0.2181 -0.2992
 5100TIP3    H139495   3.716   1.984  11.012 -1.7144  0.8034  0.2917
 5100TIP3    H239496   3.688   1.864  10.924  0.7722 -0.1772  0.7576
 5101TIP3   OH239497   3.139   3.664  10.563 -0.4023 -0.2759 -0.7924
 5101TIP3    H139498   3.235   3.659  10.563 -0.2871  0.9739  1.5830
 5101TIP3    H239499   3.120   3.758  10.560 -1.5109 -0.4518  0.3305
 5102TIP3   OH239500   1.882   3.758  11.332 -0.1564  0.4370  0.2494
 5102TIP3    H139501   1.908   3.796  11.416 -1.4980 -0.1691  0.9703
 5102TIP3    H239502   1.842   3.674  11.355 -2.7113  1.2675 -0.7222
 5103TIP3   OH239503   3.963   2.737   9.678 -0.5261  0.0361 -0.0364
 5103TIP3    H139504   3.954   2.809   9.616 -0.4152 -1.0447 -1.3376
 5103TIP3    H239505   3.877   2.696   9.681 -1.1967  1.4216  2.2950
 5104TIP3   OH239506   4.316   6.654   9.035 -0.0300  0.1013 -0.4916
 5104TIP3    H139507   4.222   6.662   9.020  0.0330  0.3035 -0.7835
 5104TIP3    H239508   4.339   6.732   9.086 -0.3994 -0.9961  1.4567
 5105TIP3   OH239509   4.266   0.475  10.217 -0.3880  0.0042  0.6719
 5105TIP3    H139510   4.327   0.411  10.253 -0.2809 -0.8080 -0.8821
 5105TIP3    H239511   4.283   0.555  10.266  2.6609  0.1172 -0.3941
 5106TIP3   OH239512   6.406   6.094   9.799 -0.2444 -0.0888  0.5895
 5106TIP3    H139513   6.447   6.026   9.853  0.9384 -0.4970 -0.7659
 5106TIP3    H239514   6.399   6.170   9.858  2.0362 -0.1625  1.0323
 5107TIP3   OH239515   6.033   5.806  11.614  0.1355  0.1489  0.0218
 5107TIP3    H139516   6.011   5.791  11.706  1.3177 -1.9500  0.0246
 5107TIP3    H239517   5.974   5.876  11.586 -0.4954  0.5853  2.2663
 5108TIP3   OH239518   1.632   5.858  10.605 -0.0682 -0.6632  0.1783
 5108TIP3    H139519   1.560   5.796  10.598  0.0053 -0.7726  0.3690
 5108TIP3    H239520   1.686   5.841  10.527 -0.3211 -0.4854 -0.0354
 5109TIP3   OH239521   1.993   0.474   8.905 -0.1529  0.1715 -0.0249
 5109TIP3    H139522   1.972   0.422   8.983 -1.0603  0.3720 -0.1241
 5109TIP3    H239523   2.064   0.426   8.863 -2.3167 -2.1807 -1.2399
 5110TIP3   OH239524   0.274   3.150   9.669  0.1818  0.6344  0.2097
 5110TIP3    H139525   0.275   3.163   9.764  0.1493  1.3762  0.1153
 5110TIP3    H239526   0.271   3.239   9.633 -0.3696  0.3498 -0.4769
 5111TIP3   OH239527   5.842   2.315  11.781 -0.5197 -0.1112  0.0602
 5111TIP3    H139528   5.825   2.299  11.688 -1.1442  2.2468 -0.2895
 5111TIP3    H239529   5.757   2.339  11.817 -0.0506  0.2529  0.9577
 5112TIP3   OH239530   2.014   2.265  12.108 -0.1764  0.5212  0.4992
 5112TIP3    H139531   1.976   2.194  12.159 -1.3031  0.3083 -0.5732
 5112TIP3    H239532   1.939   2.320  12.084  0.0957  0.0161 -1.7844
 5113TIP3   OH239533   0.495   1.677  10.251  0.0911 -0.1036  0.4494
 5113TIP3    H139534   0.556   1.744  10.221 -0.3376 -0.6528 -1.8907
 5113TIP3    H239535   0.410   1.722  10.255  0.2120  0.0553  1.1819
 5114TIP3   OH239536   1.074   3.750  11.124  0.2211 -0.2041  0.7004
 5114TIP3    H139537   1.097   3.658  11.135  0.7503 -0.1980 -0.2650
 5114TIP3    H239538   1.148   3.788  11.075 -1.1484  0.1379 -1.2090
 5115TIP3   OH239539   0.078   2.130   9.443 -0.2470  0.1619 -0.1449
 5115TIP3    H139540   0.063   2.121   9.349 -3.1707  0.2127  0.2234
 5115TIP3    H239541   0.111   2.045   9.471 -2.0930 -0.8173 -0.8114
 5116TIP3   OH239542   5.752   3.316   9.354 -0.3841  0.7567  0.2704
 5116TIP3    H139543   5.808   3.378   9.306 -0.4357 -0.0102 -0.8309
 5116TIP3    H239544   5.671   3.312   9.303 -0.2498 -0.4708  0.1220
 5117TIP3   OH239545   3.361   5.501  10.803 -0.5463 -0.6230 -0.2200
 5117TIP3    H139546   3.442   5.460  10.834 -0.2462  0.0721 -0.0812
 5117TIP3    H239547   3.384   5.592  10.786 -1.4343 -0.2753  0.3474
 5118TIP3   OH239548   0.317   2.366   9.085 -0.0110  0.4239 -0.2748
 5118TIP3    H139549   0.388   2.347   9.024  0.7631 -0.2903  0.8124
 5118TIP3    H239550   0.357   2.357   9.172 -1.5634 -0.5507  0.3838
 5119TIP3   OH239551   0.241   1.724  12.087  0.0137  0.2429  0.1084
 5119TIP3    H139552   0.309   1.791  12.078  0.2021  0.4474  2.3175
 5119TIP3    H239553   0.290   1.643  12.107 -0.3346  0.4273  1.8860
 5120TIP3   OH239554   5.867   2.660  11.208 -0.4801  0.3510 -0.1611
 5120TIP3    H139555   5.898   2.700  11.290  0.6194  0.3413 -0.5592
 5120TIP3    H239556   5.836   2.573  11.234  0.3405  0.1496  0.1747
 5121TIP3   OH239557   3.419   1.303  10.842 -0.1453 -0.3319 -0.3595
 5121TIP3    H139558   3.446   1.257  10.763 -0.3424  0.2563 -0.7735
 5121TIP3    H239559   3.340   1.351  10.817 -1.2702 -1.5700  0.6671
 5122TIP3   OH239560   2.820   5.285   9.068 -0.4221  0.4709 -0.5362
 5122TIP3    H139561   2.741   5.300   9.121  0.0613 -1.8718  0.9964
 5122TIP3    H239562   2.791   5.229   8.996 -0.3253  0.2899 -0.4353
 5123TIP3   OH239563   3.784   2.582  10.477 -0.4514  0.5347  0.1963
 5123TIP3    H139564   3.795   2.677  10.487  0.4515  0.4055  0.5535
 5123TIP3    H239565   3.690   2.569  10.476 -0.5872  1.4146  0.3744
 5124TIP3   OH239566   0.721   5.494   9.205 -0.5755 -0.6085  0.1758
 5124TIP3    H139567   0.651   5.506   9.141 -0.9166 -1.1647  0.4338
 5124TIP3    H239568   0.679   5.449   9.278 -0.3340  0.4975  1.0410
 5125TIP3   OH239569   5.284   3.158   9.624  0.0619  0.1281  0.2534
 5125TIP3    H139570   5.260   3.076   9.667 -1.7308  1.0092  1.0501
 5125TIP3    H239571   5.238   3.226   9.675 -0.5841  1.3854 -1.8884
 5126TIP3   OH239572   6.581   1.211  10.740 -0.4342  0.4074  0.3449
 5126TIP3    H139573   6.528   1.133  10.724 -1.1904  0.5724  1.8828
 5126TIP3    H239574   6.521   1.284  10.725  0.0254  0.6834 -0.2050
 5127TIP3   OH239575   1.953   5.729   9.116 -0.1778 -0.3841 -0.1178
 5127TIP3    H139576   1.884   5.688   9.063  0.4364  0.3660 -1.5565
 5127TIP3    H239577   1.939   5.823   9.104 -0.7295 -0.1317  2.0387
 5128TIP3   OH239578   3.943   3.115  11.727 -0.1427  0.0114 -0.0945
 5128TIP3    H139579   3.860   3.078  11.696 -0.5420  0.1217  0.8074
 5128TIP3    H239580   3.921   3.158  11.810  0.8765 -0.2176  0.3142
 5129TIP3   OH239581   1.070   6.715  11.322  0.6129 -0.2106  0.6154
 5129TIP3    H139582   1.043   6.722  11.231  4.8035 -2.0480 -1.0570
 5129TIP3    H239583   1.089   6.805  11.349 -0.8631  0.3785 -0.2138
 5130TIP3   OH239584   6.295   5.681  10.435  0.4133 -0.5424  0.1860
 5130TIP3    H139585   6.270   5.690  10.344  0.6989 -0.8051  0.0793
 5130TIP3    H239586   6.244   5.747  10.481  0.3647 -0.3232 -0.1823
 5131TIP3   OH239587   6.307   3.684  11.300  0.0873 -0.0276 -0.2553
 5131TIP3    H139588   6.266   3.770  11.295 -0.3021 -0.1326  0.8044
 5131TIP3    H239589   6.261   3.631  11.236 -1.3515 -0.0971  0.7999
 5132TIP3   OH239590   0.447   0.907  10.453  0.1702  0.1881  0.0313
 5132TIP3    H139591   0.438   0.875  10.363  0.8271  3.1201 -1.1816
 5132TIP3    H239592   0.359   0.902  10.489 -0.4490  0.5000 -1.3640
 5133TIP3   OH239593   1.313   3.950  10.094 -0.0974 -0.0818 -0.1787
 5133TIP3    H139594   1.365   4.017  10.140 -1.4257  0.1382  1.1061
 5133TIP3    H239595   1.344   3.867  10.130 -0.4384  0.0295  0.3791
 5134TIP3   OH239596   0.112   4.966   9.596  0.6283 -0.3783  0.7510
 5134TIP3    H139597   0.147   5.055   9.589 -0.1889 -0.1271 -0.7874
 5134TIP3    H239598   0.189   4.909   9.599  1.1675  0.3285  0.5843
 5135TIP3   OH239599   0.124   1.119   8.621  0.3314 -0.1623  0.0864
 5135TIP3    H139600   0.091   1.120   8.711  0.1654 -1.2124  0.0507
 5135TIP3    H239601   0.058   1.167   8.571  0.2219  0.0757  0.4482
 5136TIP3   OH239602   4.745   0.524   9.611  0.0164  0.3343 -0.4007
 5136TIP3    H139603   4.834   0.495   9.630 -0.2026 -1.6256 -2.0857
 5136TIP3    H239604   4.757   0.608   9.566  0.9883  0.1735 -0.4649
 5137TIP3   OH239605   3.978   4.383  10.084 -0.1084 -0.1836 -0.4067
 5137TIP3    H139606   4.031   4.420  10.014 -0.7509  1.4282 -0.0740
 5137TIP3    H239607   3.899   4.352  10.040  0.0437 -0.3629 -0.5580
 5138TIP3   OH239608   1.496   2.460   8.928 -0.4708 -0.2158  0.1682
 5138TIP3    H139609   1.435   2.426   8.862 -2.1840 -0.6745  1.9103
 5138TIP3    H239610   1.509   2.387   8.988  2.5752 -0.4264 -0.5762
 5139TIP3   OH239611   4.675   4.564  11.682  0.4209  0.6506  0.2150
 5139TIP3    H139612   4.741   4.590  11.745  2.4653 -0.3036 -1.4323
 5139TIP3    H239613   4.684   4.469  11.676 -2.6876  0.1409  1.5768
 5140TIP3   OH239614   4.067   0.210   9.667  0.0855  0.2965  0.0771
 5140TIP3    H139615   4.143   0.265   9.685 -0.2752  0.6755  0.4851
 5140TIP3    H239616   3.992   0.261   9.700 -0.3863  0.1043 -0.6781
 5141TIP3   OH239617   2.545   5.361   9.995  0.0014  0.0332 -0.1979
 5141TIP3    H139618   2.535   5.432  10.058 -2.3190 -0.3735 -0.0217
 5141TIP3    H239619   2.456   5.325   9.985  0.4732 -0.5708 -2.9235
 5142TIP3   OH239620   3.496   2.688  10.276  0.2054 -0.3701 -0.0166
 5142TIP3    H139621   3.494   2.602  10.234  0.2483 -0.1376 -0.4992
 5142TIP3    H239622   3.467   2.749  10.208  1.1052  0.1236  0.0304
 5143TIP3   OH239623   0.493   0.330   9.476  0.2786  0.0953  0.2853
 5143TIP3    H139624   0.410   0.303   9.514 -0.1187  0.1107 -0.5534
 5143TIP3    H239625   0.521   0.405   9.530 -0.7048  0.6772  0.0144
 5144TIP3   OH239626   0.436   4.940  10.349  0.4324 -0.4402  0.8912
 5144TIP3    H139627   0.384   4.869  10.313 -0.1579 -0.0555  0.9670
 5144TIP3    H239628   0.372   4.997  10.392  0.7773  0.6368  0.0177
 5145TIP3   OH239629   4.155   2.836  11.126  0.0923 -0.0238  0.2822
 5145TIP3    H139630   4.164   2.888  11.206  0.7157  2.0914 -1.0759
 5145TIP3    H239631   4.233   2.780  11.125 -0.4645 -0.8628  1.6517
 5146TIP3   OH239632   1.971   4.961   9.750  0.0987  0.2383  0.4297
 5146TIP3    H139633   2.042   4.898   9.739 -0.6042 -0.3849 -0.7823
 5146TIP3    H239634   2.010   5.034   9.797  1.6126  0.0204 -0.4495
 5147TIP3   OH239635   0.975   2.124  10.199  0.3980 -0.0227 -0.3666
 5147TIP3    H139636   1.043   2.169  10.148  1.3575 -1.4155 -0.3705
 5147TIP3    H239637   0.895   2.173  10.180  0.8303 -0.0955 -2.7357
 5148TIP3   OH239638   3.049   1.107   9.857  0.0429  0.5589  0.3205
 5148TIP3    H139639   3.048   1.013   9.871  1.4216  0.5634  0.6523
 5148TIP3    H239640   3.115   1.120   9.789 -0.4577  1.2533 -0.0428
 5149TIP3   OH239641   6.176   4.223  11.379  0.2464  0.7983  0.2194
 5149TIP3    H139642   6.117   4.219  11.304  0.2828 -0.8708  0.2322
 5149TIP3    H239643   6.136   4.286  11.438 -0.3667  1.3044 -0.7199
 5150TIP3   OH239644   2.096   2.042  10.850 -0.2911 -0.2549 -0.2654
 5150TIP3    H139645   2.174   2.037  10.905  0.8841 -1.1132 -1.9469
 5150TIP3    H239646   2.071   2.135  10.852  1.8447  0.3914 -1.0980
 5151TIP3   OH239647   3.232   2.506  11.453 -0.6397 -0.1784 -0.0688
 5151TIP3    H139648   3.270   2.549  11.377 -0.3219 -1.3641 -0.6047
 5151TIP3    H239649   3.138   2.499  11.432 -1.0073  1.6764  0.7396
 5152TIP3   OH239650   5.837   0.801  10.876 -0.3811  0.5358  0.2062
 5152TIP3    H139651   5.837   0.787  10.781  2.1550  1.4119 -0.0133
 5152TIP3    H239652   5.758   0.757  10.907 -0.4983 -1.0945 -2.1273
 5153TIP3   OH239653   3.829   2.803   9.244  0.2727  0.4378  0.2402
 5153TIP3    H139654   3.788   2.722   9.274 -0.7442  0.8117 -0.1053
 5153TIP3    H239655   3.861   2.782   9.156 -0.9346  0.6891 -0.2858
 5154TIP3   OH239656   6.720   4.018  10.778  0.0771  0.3582 -0.0840
 5154TIP3    H139657   6.632   3.983  10.793 -0.3998  1.0184 -1.2242
 5154TIP3    H239658   6.778   3.955  10.820 -0.9167 -0.3549  0.2573
 5155TIP3   OH239659   0.740   1.816  11.116  0.2918  1.1998 -0.1935
 5155TIP3    H139660   0.778   1.902  11.096 -0.4003  1.9614  1.5298
 5155TIP3    H239661   0.732   1.815  11.212  1.6543 -1.4005 -0.0166
 5156TIP3   OH239662   5.427   2.324  11.591 -0.5497  0.1871  0.5127
 5156TIP3    H139663   5.517   2.326  11.560 -0.6825  1.0920  0.1211
 5156TIP3    H239664   5.403   2.417  11.600 -1.1106 -0.0474  1.5976
 5157TIP3   OH239665   2.484   3.700  10.036 -0.2732  0.1528 -0.6392
 5157TIP3    H139666   2.401   3.708   9.988 -0.6371 -1.2877 -0.3077
 5157TIP3    H239667   2.496   3.786  10.077 -1.7685  0.2968 -0.4287
 5158TIP3   OH239668   2.279   5.246  11.329  0.4258  0.3083  0.1779
 5158TIP3    H139669   2.275   5.318  11.266 -0.2110  2.0548  2.1548
 5158TIP3    H239670   2.194   5.203  11.322  0.1730  0.8042  0.2204
 5159TIP3   OH239671   2.170   3.232   8.945 -0.4306 -0.6837 -0.1656
 5159TIP3    H139672   2.120   3.285   8.883 -1.1611 -1.2734 -0.1008
 5159TIP3    H239673   2.262   3.253   8.927 -0.7131  1.0720  0.3008
 5160TIP3   OH239674   0.687   3.846  10.902  0.5960 -0.0978  0.0575
 5160TIP3    H139675   0.652   3.868  10.988  0.7227  0.2656  0.0174
 5160TIP3    H239676   0.614   3.804  10.856  0.0150  1.1759 -0.2318
 5161TIP3   OH239677   6.378   2.962  11.539  0.4269 -0.4250  0.7457
 5161TIP3    H139678   6.409   2.930  11.624  0.3022  1.6452  1.6485
 5161TIP3    H239679   6.288   2.990  11.556  0.4972  0.2877  0.0162
 5162TIP3   OH239680   2.886   3.391  11.185 -0.1407 -0.9277  0.0501
 5162TIP3    H139681   2.923   3.473  11.153  0.7825 -1.4028 -0.1516
 5162TIP3    H239682   2.818   3.417  11.247  0.1427 -0.0168 -0.0111
 5163TIP3   OH239683   4.990   0.543  11.072  0.3423  0.4030  0.2136
 5163TIP3    H139684   4.987   0.473  11.137 -0.9798 -1.5748 -1.8689
 5163TIP3    H239685   4.914   0.597  11.091 -0.5651 -0.6999 -0.2291
 5164TIP3   OH239686   2.305   4.399  11.769  0.0491 -0.3879 -0.0068
 5164TIP3    H139687   2.249   4.443  11.706  0.8905 -0.1964 -0.6264
 5164TIP3    H239688   2.384   4.453  11.773  0.2519 -0.7306  0.7564
 5165TIP3   OH239689   3.923   4.158   9.542  0.0756 -0.4025  0.3362
 5165TIP3    H139690   3.855   4.123   9.485  0.3413 -1.4505  0.6394
 5165TIP3    H239691   3.993   4.185   9.483 -0.6025  0.7164  0.0193
 5166TIP3   OH239692   6.019   3.851  11.139 -0.5078 -0.2042 -0.1580
 5166TIP3    H139693   6.037   3.873  11.231  0.6874  0.4622 -0.5429
 5166TIP3    H239694   5.924   3.835  11.137 -0.7411  0.8785  0.9735
 5167TIP3   OH239695   0.028   0.686   9.621 -0.2672 -0.0744 -0.0345
 5167TIP3    H139696   0.020   0.690   9.526  1.8137  0.8524 -0.2344
 5167TIP3    H239697   0.029   0.593   9.642  1.1578 -0.3348 -1.1574
 5168TIP3   OH239698   6.461   1.001   9.901 -0.2251  0.0984 -0.4195
 5168TIP3    H139699   6.473   0.908   9.884  0.8264  0.3003 -0.8335
 5168TIP3    H239700   6.370   1.008   9.932 -0.2423 -1.0831 -0.1561
 5169TIP3   OH239701   0.199   2.930  10.680 -0.4071  1.0167 -0.1780
 5169TIP3    H139702   0.127   2.886  10.727 -0.1590  2.1690  1.3862
 5169TIP3    H239703   0.272   2.869  10.687 -0.4396  1.0696  0.7675
 5170TIP3   OH239704   6.116   6.546  11.215 -0.1842 -0.4733 -0.0166
 5170TIP3    H139705   6.184   6.483  11.237  0.7801  0.5512  0.0700
 5170TIP3    H239706   6.048   6.533  11.281  0.0069 -1.3992  0.0050
 5171TIP3   OH239707   3.751   2.814  11.243  0.1307 -0.1292 -0.1870
 5171TIP3    H139708   3.656   2.821  11.250  0.1203 -0.7906  0.4453
 5171TIP3    H239709   3.776   2.885  11.184 -0.7876 -0.1519 -0.6259
 5172TIP3   OH239710   6.304   1.322  10.048 -0.5039 -0.7153  0.2986
 5172TIP3    H139711   6.396   1.322  10.076  0.0662 -1.1095 -1.4496
 5172TIP3    H239712   6.260   1.264  10.111  0.4384 -0.5664  1.1318
 5173TIP3   OH239713   0.818   2.768  11.892  0.0131 -0.5750  0.0241
 5173TIP3    H139714   0.894   2.718  11.864  1.1604  1.6971 -1.1426
 5173TIP3    H239715   0.777   2.799  11.811  0.0584  1.3379  0.6682
 5174TIP3   OH239716   6.704   5.883   9.913 -0.2731 -0.9902  0.2183
 5174TIP3    H139717   6.717   5.918   9.824 -0.7548 -0.5705  0.3086
 5174TIP3    H239718   6.717   5.958   9.971  2.5097 -1.7505  0.7138
 5175TIP3   OH239719   3.127   2.926   9.913 -0.3739 -0.4159  0.2969
 5175TIP3    H139720   3.173   2.843   9.922 -0.7696 -0.5651  1.0494
 5175TIP3    H239721   3.080   2.920   9.831 -0.2083 -0.8353  0.2323
 5176TIP3   OH239722   3.257   6.373  10.121  0.1247 -0.0108  0.0061
 5176TIP3    H139723   3.213   6.398  10.039 -0.7972  1.4571  0.8911
 5176TIP3    H239724   3.279   6.457  10.162 -1.5041 -0.6066  2.3314
 5177TIP3   OH239725   3.353   0.515  11.057 -0.2077  0.2996  0.1752
 5177TIP3    H139726   3.438   0.476  11.041 -0.0219 -0.2029  2.0689
 5177TIP3    H239727   3.363   0.607  11.032  0.4181 -0.0747 -1.0049
 5178TIP3   OH239728   6.740   5.383   9.336  0.9838  0.3071 -0.3820
 5178TIP3    H139729   6.827   5.384   9.376  0.2394 -0.5767  1.3592
 5178TIP3    H239730   6.755   5.352   9.247  2.3774 -0.4174  0.0753
 5179TIP3   OH239731   4.792   2.120   9.596 -0.1051  0.0557 -0.1970
 5179TIP3    H139732   4.774   2.061   9.669 -0.1878  0.5786  0.2164
 5179TIP3    H239733   4.725   2.188   9.603  0.1328  0.3274 -0.5210
 5180TIP3   OH239734   6.587   4.673  11.685  0.1327  0.1748  0.2776
 5180TIP3    H139735   6.578   4.767  11.699  0.4619  0.2042  0.3003
 5180TIP3    H239736   6.533   4.656  11.608 -0.5150  0.2545  0.7056
 5181TIP3   OH239737   3.111   5.648  11.595 -0.3911  0.1776  0.2785
 5181TIP3    H139738   3.067   5.708  11.656 -2.2720  0.9800 -1.7405
 5181TIP3    H239739   3.196   5.631  11.636 -0.2209  3.3314  1.5067
 5182TIP3   OH239740   3.345   3.131   9.033  1.1083 -0.5602  0.1785
 5182TIP3    H139741   3.336   3.100   8.943 -0.7775  1.6060 -0.4779
 5182TIP3    H239742   3.352   3.051   9.085  0.5884 -1.9329 -1.7394
 5183TIP3   OH239743   2.875   3.423  10.339  0.0650 -0.0929  0.0095
 5183TIP3    H139744   2.818   3.359  10.382  0.3868  0.3800  1.1933
 5183TIP3    H239745   2.820   3.465  10.274  0.2189 -2.5285 -1.8046
 5184TIP3   OH239746   1.437   0.430   9.473 -0.3228  0.1982  0.1766
 5184TIP3    H139747   1.486   0.392   9.400 -0.0968 -0.3166  0.5907
 5184TIP3    H239748   1.410   0.355   9.525 -2.2259  0.3955 -0.4429
 5185TIP3   OH239749   6.391   6.689   8.896 -0.2965 -0.3667  0.4722
 5185TIP3    H139750   6.299   6.665   8.907 -0.9334  0.7527 -1.9109
 5185TIP3    H239751   6.394   6.739   8.815  2.3721  0.0006  0.7007
 5186TIP3   OH239752   6.348   6.731   9.943  0.0234  0.9730 -0.6280
 5186TIP3    H139753   6.443   6.730   9.931  0.4339  1.9091  1.9155
 5186TIP3    H239754   6.329   6.649   9.988 -0.4768  0.6163 -1.4540
 5187TIP3   OH239755   4.877   1.157   8.572 -0.2195  0.0954 -0.2847
 5187TIP3    H139756   4.891   1.206   8.491 -1.0770  0.0523 -0.4659
 5187TIP3    H239757   4.790   1.119   8.563  0.7558 -2.2523 -0.5407
 5188TIP3   OH239758   6.709   1.835   8.297  0.1641 -0.6310  0.3652
 5188TIP3    H139759   6.675   1.881   8.220  0.8020 -0.1233  0.3846
 5188TIP3    H239760   6.652   1.759   8.306 -0.9005  0.1299  0.3142
 5189TIP3   OH239761   2.548   6.151  10.406 -0.9267 -0.3571 -0.0844
 5189TIP3    H139762   2.490   6.149  10.482  2.0806  0.0896  2.3876
 5189TIP3    H239763   2.542   6.240  10.373  0.1493  0.4437  1.7347
 5190TIP3   OH239764   0.130   6.611  11.275  0.0272 -0.5268  0.2512
 5190TIP3    H139765   0.042   6.632  11.245  0.5494  0.6279 -0.5677
 5190TIP3    H239766   0.128   6.628  11.369 -0.9683 -1.8153  0.4930
 5191TIP3   OH239767   2.764   3.509  11.401  0.5170  0.1554 -0.3314
 5191TIP3    H139768   2.678   3.480  11.430  0.4560 -0.4238 -1.0617
 5191TIP3    H239769   2.815   3.517  11.482 -0.4349  1.2896  0.1875
 5192TIP3   OH239770   1.888   0.301  10.018  0.2663  0.0492 -0.0360
 5192TIP3    H139771   1.817   0.359   9.990 -0.5406 -1.2421 -0.7594
 5192TIP3    H239772   1.967   0.342   9.983 -0.2955  0.6361 -0.6525
 5193TIP3   OH239773   2.861   2.077   9.327 -0.1722  0.1682 -0.1682
 5193TIP3    H139774   2.839   1.993   9.369  0.2838  0.0686 -0.1239
 5193TIP3    H239775   2.956   2.084   9.337 -0.2543  0.8724  0.1562
 5194TIP3   OH239776   3.636   0.348   9.054 -0.2495 -0.1680  0.2317
 5194TIP3    H139777   3.618   0.279   8.990  2.5275 -0.4692 -0.3477
 5194TIP3    H239778   3.619   0.430   9.007 -0.9693 -0.4230  0.0411
 5195TIP3   OH239779   6.039   5.034  11.879 -0.6223  0.6563 -0.6439
 5195TIP3    H139780   6.093   5.042  11.958  0.8019  2.1806 -1.7203
 5195TIP3    H239781   5.953   5.068  11.906 -0.9731 -1.3018  0.9363
 5196TIP3   OH239782   6.260   2.986  10.433 -0.2036  0.4783 -0.3318
 5196TIP3    H139783   6.334   3.034  10.470  0.9541  0.1430 -2.0942
 5196TIP3    H239784   6.183   3.034  10.462  0.8194  2.1551 -0.2825
 5197TIP3   OH239785   0.920   1.457   9.224  0.0516  0.0646 -0.3405
 5197TIP3    H139786   0.908   1.432   9.315  0.0380  0.1095 -0.3308
 5197TIP3    H239787   0.831   1.459   9.188  0.0397  0.2531 -0.3010
 5198TIP3   OH239788   0.052   6.653   9.514 -0.1211 -0.3026  0.2040
 5198TIP3    H139789   0.031   6.578   9.570 -1.4582 -0.5862 -0.6355
 5198TIP3    H239790  -0.032   6.692   9.493  0.2469 -0.6125 -2.1615
 5199TIP3   OH239791   4.451   4.568  10.345  0.3975  0.7115 -0.3421
 5199TIP3    H139792   4.451   4.642  10.284 -0.2109  1.2186  0.2465
 5199TIP3    H239793   4.380   4.512  10.315 -1.6102  2.2138  1.3043
 5200TIP3   OH239794   3.196   4.917  10.770 -0.1099  0.0843  0.3200
 5200TIP3    H139795   3.289   4.938  10.773 -0.0721  0.2270 -0.9682
 5200TIP3    H239796   3.153   5.001  10.785  0.0013  0.3114 -0.5543
 5201TIP3   OH239797   4.384   5.821   9.803  0.1043  0.3842  0.1563
 5201TIP3    H139798   4.461   5.765   9.815 -0.0484  0.1302 -0.0148
 5201TIP3    H239799   4.338   5.780   9.729  1.1095  1.9639 -1.4290
 5202TIP3   OH239800   1.009   2.915   9.171 -0.1049  0.4680  0.2217
 5202TIP3    H139801   0.947   2.846   9.149  0.7982  0.2329 -1.7877
 5202TIP3    H239802   0.954   2.988   9.201 -1.3547  0.1660 -1.1968
 5203TIP3   OH239803   2.649   6.358   9.656 -0.2023 -0.0034 -0.1491
 5203TIP3    H139804   2.614   6.272   9.631 -0.4929 -0.0723  0.4689
 5203TIP3    H239805   2.659   6.405   9.573 -0.8647 -0.3296 -0.4256
 5204TIP3   OH239806   4.923   5.122  10.459  0.0487 -0.1025  0.4221
 5204TIP3    H139807   4.925   5.056  10.389  1.6882  0.1745  0.1847
 5204TIP3    H239808   4.897   5.203  10.416 -0.6259 -0.2900  0.4645
 5205TIP3   OH239809   1.345   5.065  11.830 -0.8273 -0.0875 -0.2076
 5205TIP3    H139810   1.376   5.143  11.877 -0.2767 -0.9272  0.8408
 5205TIP3    H239811   1.425   5.024  11.796 -1.2477  0.9067 -2.6027
 5206TIP3   OH239812   3.184   3.309  10.860 -0.1242 -0.7303  0.4211
 5206TIP3    H139813   3.240   3.384  10.845 -0.3428 -0.8470 -1.1620
 5206TIP3    H239814   3.239   3.233  10.840  0.2164 -1.0497  2.3871
 5207TIP3   OH239815   4.741   2.091  10.747  0.0910 -0.5104 -0.5640
 5207TIP3    H139816   4.695   2.094  10.830 -0.3093 -1.3781 -0.7450
 5207TIP3    H239817   4.672   2.082  10.681  0.3340  1.0243 -1.0784
 5208TIP3   OH239818   1.246   0.017  11.005 -0.5615  0.2783  0.0046
 5208TIP3    H139819   1.153   0.039  11.011 -0.4185  1.4105 -1.3847
 5208TIP3    H239820   1.248  -0.077  10.990 -1.6307  0.5640 -2.3292
 5209TIP3   OH239821   3.881   5.317  11.495 -0.1074 -0.0694 -0.0475
 5209TIP3    H139822   3.848   5.298  11.407 -0.6238 -0.8444  0.2957
 5209TIP3    H239823   3.968   5.352  11.481 -0.6267  0.9340 -0.9288
 5210TIP3   OH239824   0.781   2.457   8.990  0.1357 -0.2990 -0.1720
 5210TIP3    H139825   0.843   2.432   8.922 -1.7284 -0.0221 -2.0967
 5210TIP3    H239826   0.736   2.376   9.013  1.9297 -0.7497  2.1302
 5211TIP3   OH239827   4.657   4.286  11.565 -0.0014 -0.4443  0.3690
 5211TIP3    H139828   4.604   4.213  11.596 -0.0107 -0.9819 -0.8453
 5211TIP3    H239829   4.651   4.281  11.470 -0.0593  1.1896  0.2608
 5212TIP3   OH239830   0.109   6.098   9.318  0.3486  0.0486  0.3075
 5212TIP3    H139831   0.112   6.193   9.310 -0.3271  0.0789  0.3403
 5212TIP3    H239832   0.199   6.069   9.302  0.3987  0.6273 -0.5022
 5213TIP3   OH239833   3.528   4.586   9.761  0.1683 -0.1814 -0.0472
 5213TIP3    H139834   3.494   4.550   9.679 -2.8294 -0.1667  1.0600
 5213TIP3    H239835   3.514   4.516   9.825 -0.3837  0.8707  1.0110
 5214TIP3   OH239836   5.831   6.724  10.741 -0.6231 -0.2873  0.1791
 5214TIP3    H139837   5.853   6.746  10.832  0.5634 -0.1136 -0.1279
 5214TIP3    H239838   5.895   6.773  10.689 -0.0166 -1.8792 -0.6527
 5215TIP3   OH239839   5.249   3.091   9.336  0.2665 -0.2386 -0.1527
 5215TIP3    H139840   5.156   3.069   9.346  0.1871  0.6664  1.5692
 5215TIP3    H239841   5.287   3.069   9.421  1.1963  1.3102 -0.1291
 5216TIP3   OH239842   2.346   2.429  10.512 -0.8855 -0.6239  0.0301
 5216TIP3    H139843   2.252   2.438  10.494 -1.2208 -1.7202  1.0446
 5216TIP3    H239844   2.378   2.519  10.518 -1.6554 -0.2362 -1.3429
 5217TIP3   OH239845   4.741   1.714  11.634 -0.6172  0.1613 -0.1408
 5217TIP3    H139846   4.693   1.709  11.551 -0.3695 -0.2189 -0.2631
 5217TIP3    H239847   4.789   1.796  11.628 -1.8744  0.9577  0.3265
 5218TIP3   OH239848   1.849   0.709  10.959  0.3233 -0.3769 -0.2079
 5218TIP3    H139849   1.916   0.641  10.961  0.0868 -0.5967  1.0930
 5218TIP3    H239850   1.826   0.723  11.051 -0.5736  0.5292 -0.5513
 5219TIP3   OH239851   4.607   0.215  10.671 -0.1570  0.4923 -0.2171
 5219TIP3    H139852   4.521   0.175  10.662  0.8425 -1.6998 -0.7019
 5219TIP3    H239853   4.632   0.199  10.763 -0.3433  1.3068 -0.0194
 5220TIP3   OH239854   6.724   6.257  10.198 -0.7243  0.2774  0.3624
 5220TIP3    H139855   6.755   6.329  10.252 -1.1420  0.2462  0.6454
 5220TIP3    H239856   6.780   6.182  10.223  0.3187  0.7105 -0.5785
 5221TIP3   OH239857   3.480   3.114  10.090 -0.3264 -0.0892  0.3522
 5221TIP3    H139858   3.452   3.201  10.063  0.2653 -0.4643 -1.6244
 5221TIP3    H239859   3.442   3.102  10.177 -0.6339  2.0181  0.5548
 5222TIP3   OH239860   4.913   3.344   8.171  0.2322  0.5760  0.3131
 5222TIP3    H139861   4.986   3.346   8.109 -0.5082 -0.5111 -0.6472
 5222TIP3    H239862   4.954   3.329   8.256  1.1617  0.4930 -0.1367
 5223TIP3   OH239863   2.124   2.457   9.817  0.1020  0.2705 -0.3593
 5223TIP3    H139864   2.158   2.532   9.768 -1.6898  1.0178 -0.5473
 5223TIP3    H239865   2.132   2.384   9.757  0.8257  0.5318 -0.5948
 5224TIP3   OH239866   2.363   0.399  11.929  0.1801 -0.1986  1.1481
 5224TIP3    H139867   2.284   0.453  11.930  0.5411  0.4342 -0.5679
 5224TIP3    H239868   2.434   0.461  11.946  0.7885  0.3766 -2.5791
 5225TIP3   OH239869   2.959   4.451  11.592 -1.0728  0.0214  0.2570
 5225TIP3    H139870   3.051   4.464  11.613 -0.8631  2.6555 -1.6645
 5225TIP3    H239871   2.913   4.473  11.673 -0.0776  2.9346  0.1723
 5226TIP3   OH239872   4.555   3.496  11.236 -0.3972  0.0333  0.3210
 5226TIP3    H139873   4.525   3.460  11.153  0.8521  0.7918 -0.4855
 5226TIP3    H239874   4.545   3.590  11.226 -0.2191  0.1328  1.0401
 5227TIP3   OH239875   6.249   6.337  11.292  0.5782 -0.1368 -0.1751
 5227TIP3    H139876   6.339   6.311  11.271  0.7432  0.2526  0.0521
 5227TIP3    H239877   6.195   6.266  11.257  0.8378  0.4737 -1.9301
 5228TIP3   OH239878   5.098   4.054   8.576 -0.4566 -0.7368  0.6541
 5228TIP3    H139879   5.071   3.991   8.508  0.2464  0.6953 -1.0305
 5228TIP3    H239880   5.018   4.099   8.600 -0.2767  1.2018 -1.9109
 5229TIP3   OH239881   0.693   6.431   9.658 -0.3143 -0.3762  0.2514
 5229TIP3    H139882   0.623   6.379   9.696 -1.5267  0.9088 -0.1578
 5229TIP3    H239883   0.649   6.496   9.604  1.0891  1.3331  1.0398
 5230TIP3   OH239884   6.791   5.401  10.534  0.1635  0.2477 -0.3776
 5230TIP3    H139885   6.834   5.464  10.476  0.0514  2.1429  1.4410
 5230TIP3    H239886   6.754   5.335  10.476  1.9427  0.8233 -2.2696
 5231TIP3   OH239887   3.672   4.893  10.725 -0.5655 -0.2690  0.0438
 5231TIP3    H139888   3.758   4.863  10.696 -0.3882 -1.5544  1.7291
 5231TIP3    H239889   3.691   4.946  10.803 -1.1337  1.7808 -1.1264
 5232TIP3   OH239890   1.098   1.796  10.013  0.2172  0.0412  0.1988
 5232TIP3    H139891   1.154   1.827  10.084 -0.4668  0.9958  0.3322
 5232TIP3    H239892   1.123   1.704  10.002 -0.0603 -0.2935  2.0563
 5233TIP3   OH239893   2.471   3.159  10.116  0.4924  0.0917 -0.4299
 5233TIP3    H139894   2.555   3.179  10.159 -0.5634  0.2154  1.7087
 5233TIP3    H239895   2.439   3.244  10.087  0.1290  0.3751  0.7239
 5234TIP3   OH239896   3.573   4.703  11.791  0.1585 -0.1551  0.0242
 5234TIP3    H139897   3.477   4.698  11.789  0.0217  1.8024 -1.5596
 5234TIP3    H239898   3.598   4.709  11.698  1.7265  0.5214  0.4711
 5235TIP3   OH239899   1.126   4.536  10.740  0.1664 -0.1070 -0.0963
 5235TIP3    H139900   1.035   4.522  10.768  0.0616  0.3328 -0.2111
 5235TIP3    H239901   1.163   4.592  10.808  0.3856 -0.3652  0.0024
 5236TIP3   OH239902   0.291   4.798   9.688  0.3057  0.1444  0.4553
 5236TIP3    H139903   0.229   4.725   9.685  1.7302 -1.1497  1.0582
 5236TIP3    H239904   0.297   4.821   9.780 -0.9174  1.7815  0.1707
 5237TIP3   OH239905   3.856   2.367  11.204  0.2196 -0.4881 -0.6178
 5237TIP3    H139906   3.803   2.336  11.278  0.0358  0.3467 -0.3897
 5237TIP3    H239907   3.937   2.317  11.211  0.6597  0.3831  0.8348
 5238TIP3   OH239908   5.078   3.890  11.430 -0.4229  0.6351 -0.3397
 5238TIP3    H139909   5.171   3.915  11.427 -0.7023  1.7454 -0.2995
 5238TIP3    H239910   5.065   3.855  11.518 -0.5114  2.5534  0.4721
 5239TIP3   OH239911   5.206   3.379   9.193  0.3272  0.2803 -0.5567
 5239TIP3    H139912   5.138   3.346   9.134 -1.0928 -0.5243  1.4146
 5239TIP3    H239913   5.180   3.469   9.212 -0.1502  0.0250  0.0655
 5240TIP3   OH239914   0.765   6.619  11.442  0.8305  0.0553 -0.6210
 5240TIP3    H139915   0.859   6.633  11.457  0.3313  2.4811  0.6277
 5240TIP3    H239916   0.736   6.568  11.517  0.4711  2.7381  1.2054
 5241TIP3   OH239917   4.185   3.340   8.940 -0.2558  0.1243  0.1237
 5241TIP3    H139918   4.223   3.389   8.867  1.8771 -2.6866 -0.8453
 5241TIP3    H239919   4.257   3.326   9.000 -1.9054  2.0813  2.7623
 5242TIP3   OH239920   0.641   2.859   8.077  0.1782 -0.2891  0.0059
 5242TIP3    H139921   0.722   2.811   8.093  0.6972  0.9657  1.3875
 5242TIP3    H239922   0.572   2.793   8.090  0.9399 -1.4285 -1.4466
 5243TIP3   OH239923   0.915   3.401  11.907 -0.0654 -0.5908  0.4282
 5243TIP3    H139924   0.945   3.476  11.959  0.7676 -0.1568 -0.6343
 5243TIP3    H239925   0.846   3.437  11.851  0.4781 -0.5655 -0.2291
 5244TIP3   OH239926   3.226   3.272   9.423  0.6569  0.3491 -0.0751
 5244TIP3    H139927   3.169   3.316   9.360 -0.2579  0.7530  1.0095
 5244TIP3    H239928   3.193   3.182   9.427 -0.7131  0.8725  1.4205
 5245TIP3   OH239929   4.956   1.916  10.290  0.8255 -0.4922  0.4503
 5245TIP3    H139930   4.969   1.821  10.294  0.0839 -0.6130  0.2163
 5245TIP3    H239931   4.972   1.939  10.199  0.1251 -0.5353  0.3127
 5246TIP3   OH239932   4.283   6.282  10.231 -0.2490 -0.4507 -0.2412
 5246TIP3    H139933   4.276   6.317  10.320  0.5997 -0.5936 -0.1043
 5246TIP3    H239934   4.216   6.215  10.226  0.2009 -0.9805  0.5693
 5247TIP3   OH239935   3.190   1.380   9.037 -0.0597  0.5352  0.3823
 5247TIP3    H139936   3.169   1.462   8.994  0.9358 -0.0705 -1.3408
 5247TIP3    H239937   3.142   1.314   8.987  0.7467 -0.1379  0.4809
 5248TIP3   OH239938   2.186   5.163   9.479  0.0120  0.2853 -0.6779
 5248TIP3    H139939   2.108   5.128   9.437  1.1329 -0.5117 -2.1863
 5248TIP3    H239940   2.247   5.180   9.407  2.0173 -1.1533  0.5576
 5249TIP3   OH239941   0.194   2.989  11.690  0.1051  0.1551  0.0770
 5249TIP3    H139942   0.127   3.056  11.676 -1.2165 -0.9630  0.7567
 5249TIP3    H239943   0.196   2.939  11.608  1.2043  1.0987 -0.4873
 5250TIP3   OH239944   1.252   4.831   9.979  0.1889 -0.0728  0.8602
 5250TIP3    H139945   1.345   4.855   9.977  0.3471 -0.6134 -1.7336
 5250TIP3    H239946   1.210   4.892   9.919 -1.1371 -0.0053  1.8030
 5251TIP3   OH239947   6.531   0.711  11.323  0.9976 -0.9460  0.1151
 5251TIP3    H139948   6.624   0.731  11.327  0.5835  1.3589 -0.2688
 5251TIP3    H239949   6.493   0.761  11.396 -0.1352 -0.3879 -0.8259
 5252TIP3   OH239950   1.836   6.239  11.197  0.1502  0.1988  0.1449
 5252TIP3    H139951   1.785   6.163  11.228  0.5556  0.1452  0.6917
 5252TIP3    H239952   1.918   6.201  11.165 -0.9511  0.0287 -2.7905
 5253TIP3   OH239953   0.678   5.986  11.840  0.3644 -0.7697  0.2444
 5253TIP3    H139954   0.711   6.064  11.796 -0.6912 -1.1078 -1.2261
 5253TIP3    H239955   0.645   6.018  11.924  0.9264  0.1746  0.1196
 5254TIP3   OH239956   3.764   6.539  11.566  0.2938  0.1098 -0.0629
 5254TIP3    H139957   3.750   6.497  11.651 -1.3212 -1.7748 -1.1730
 5254TIP3    H239958   3.707   6.616  11.567 -1.7889 -1.3523 -0.3406
 5255TIP3   OH239959   1.685   1.680  11.580 -0.5366  0.3027 -0.0950
 5255TIP3    H139960   1.676   1.721  11.666 -0.7167 -0.7957  0.4344
 5255TIP3    H239961   1.633   1.599  11.587 -0.4777  0.1545 -1.2073
 5256TIP3   OH239962   5.481   0.417   8.800 -0.5566 -0.1424 -0.6317
 5256TIP3    H139963   5.410   0.466   8.758 -0.0482  0.3400 -0.9402
 5256TIP3    H239964   5.482   0.448   8.890 -0.7525 -0.1706 -0.6188
 5257TIP3   OH239965   6.355   2.830  11.799  0.0945 -0.5126 -0.1840
 5257TIP3    H139966   6.326   2.746  11.763 -0.0805 -1.2533  1.5870
 5257TIP3    H239967   6.296   2.847  11.872  0.8966  0.5468  0.2495
 5258TIP3   OH239968   5.104   6.771   9.918 -0.3405 -0.2223 -0.4591
 5258TIP3    H139969   5.013   6.777   9.888  0.4618 -0.1132 -3.1628
 5258TIP3    H239970   5.135   6.688   9.882  0.3770 -0.7461  1.2849
 5259TIP3   OH239971   3.294   1.438  10.538  0.2484  0.1430  0.5268
 5259TIP3    H139972   3.278   1.477  10.624 -1.0577 -0.9392  0.8120
 5259TIP3    H239973   3.249   1.353  10.541 -0.7509  0.5310 -1.5937
 5260TIP3   OH239974   4.015   6.284  10.424  0.5265  0.3045  0.0582
 5260TIP3    H139975   3.983   6.218  10.485  0.1694  0.6579  0.2571
 5260TIP3    H239976   4.106   6.300  10.451  0.3489  0.5149  0.5532
 5261TIP3   OH239977   0.264   2.387   8.525  0.0028  0.5354  0.8251
 5261TIP3    H139978   0.292   2.328   8.455 -0.8540  0.4581  0.5388
 5261TIP3    H239979   0.345   2.432   8.551  0.2720  0.9440 -0.5786
 5262TIP3   OH239980   1.124   0.167  11.378  0.1108  0.0998 -0.0617
 5262TIP3    H139981   1.086   0.241  11.425 -0.3862  1.1263 -1.9536
 5262TIP3    H239982   1.211   0.156  11.416 -0.9356 -0.4094  2.3799
 5263TIP3   OH239983   4.002   4.948  10.682  0.0603  0.4934 -0.5894
 5263TIP3    H139984   4.021   5.042  10.682  1.7146  0.2097 -1.8359
 5263TIP3    H239985   4.079   4.908  10.641  1.2358 -1.8088  3.3064
 5264TIP3   OH239986   6.739   5.182   9.080  0.4047 -0.4842  0.1223
 5264TIP3    H139987   6.736   5.159   9.173 -1.7083  1.8519  0.7368
 5264TIP3    H239988   6.674   5.124   9.039  0.0921 -0.3484  0.4189
 5265TIP3   OH239989   3.208   0.143  10.119 -0.9356  0.0066  0.5124
 5265TIP3    H139990   3.158   0.225  10.126 -0.3008  0.8493 -2.7647
 5265TIP3    H239991   3.227   0.135  10.025  1.9858 -2.1419  1.1343
 5266TIP3   OH239992   3.012   4.759  11.739 -0.1247 -0.5420  0.0126
 5266TIP3    H139993   2.968   4.798  11.664 -0.3749 -1.1613 -0.1671
 5266TIP3    H239994   3.061   4.831  11.778  0.7067 -0.3965 -1.2529
 5267TIP3   OH239995   0.249   3.622   8.472 -0.6254  0.2772 -0.3296
 5267TIP3    H139996   0.330   3.666   8.500 -0.8159  0.6505 -0.3634
 5267TIP3    H239997   0.278   3.538   8.437 -0.0700  1.1346 -2.0319
 5268TIP3   OH239998   1.499   6.044  10.948  0.3985 -0.1398 -0.1366
 5268TIP3    H139999   1.451   6.046  11.031 -1.5830  1.3336 -1.2354
 5268TIP3    H240000   1.588   6.070  10.971  0.0458 -0.3597  1.6070
 5269TIP3   OH240001   3.279   6.651  10.231 -0.2434  0.2134 -0.6720
 5269TIP3    H140002   3.313   6.738  10.251 -0.0204 -0.1497  0.5976
 5269TIP3    H240003   3.228   6.664  10.151 -0.8230  1.6685 -0.1170
 5270TIP3   OH240004   2.194   3.333  10.716 -0.1701 -0.0650 -0.1306
 5270TIP3    H140005   2.227   3.406  10.663  0.4873  2.0571  2.9252
 5270TIP3    H240006   2.272   3.291  10.751 -0.5948 -0.7967 -0.0426
 5271TIP3   OH240007   0.434   5.565  10.471 -0.0469 -0.2185  0.2617
 5271TIP3    H140008   0.463   5.614  10.547 -0.1120 -1.1512  0.9004
 5271TIP3    H240009   0.514   5.533  10.430 -0.0316 -0.1049  0.2033
 5272TIP3   OH240010   0.012   1.692  11.936  0.6062 -0.6953  0.3208
 5272TIP3    H140011  -0.034   1.764  11.980  0.1678  0.5246 -1.9596
 5272TIP3    H240012   0.100   1.693  11.973 -0.5042 -1.6678  3.2218
 5273TIP3   OH240013   4.994   6.513  10.476 -0.2039 -0.8622  0.4428
 5273TIP3    H140014   4.899   6.522  10.481 -0.5734 -1.7693 -2.7294
 5273TIP3    H240015   5.026   6.560  10.553 -3.1233  0.7737  0.8329
 5274TIP3   OH240016   6.194   3.797  10.598 -0.6400  0.5667  0.4069
 5274TIP3    H140017   6.200   3.891  10.577  0.0713  0.5089  0.3138
 5274TIP3    H240018   6.165   3.794  10.689  0.6033  0.9196  0.8412
 5275TIP3   OH240019   3.567   3.071  10.924  0.1325 -0.1165  0.1985
 5275TIP3    H140020   3.518   3.007  10.872 -0.3116 -0.4096  0.9660
 5275TIP3    H240021   3.504   3.105  10.987  0.0133  2.0572 -1.0197
 5276TIP3   OH240022   1.861   0.415  11.774  0.2847 -0.2352  0.9774
 5276TIP3    H140023   1.797   0.376  11.715  0.5853 -0.0141  0.4995
 5276TIP3    H240024   1.815   0.489  11.813  0.5557  0.5511 -0.1381
 5277TIP3   OH240025   0.773   0.190   9.812  0.2318  0.0467  0.5591
 5277TIP3    H140026   0.701   0.156   9.760  1.1540  0.5985 -1.1671
 5277TIP3    H240027   0.833   0.116   9.822  0.5261  0.1986 -0.0505
 5278TIP3   OH240028   0.130   5.356  11.711  0.0540  0.1328 -0.6670
 5278TIP3    H140029   0.158   5.267  11.733 -0.9689 -0.4943 -1.8215
 5278TIP3    H240030   0.179   5.378  11.631 -1.2469 -0.2204 -1.5807
 5279TIP3   OH240031   0.368   4.188   9.594 -0.1469 -0.2322 -0.7424
 5279TIP3    H140032   0.340   4.152   9.679  0.1275 -0.0591 -0.5755
 5279TIP3    H240033   0.383   4.281   9.612  1.8418 -0.5552 -0.4778
 5280TIP3   OH240034   0.105   2.948  11.985 -0.1401 -0.4985  0.1623
 5280TIP3    H140035   0.164   2.971  11.913  1.0451 -0.9641  0.9350
 5280TIP3    H240036   0.065   3.031  12.011 -1.6351 -0.5344 -1.8906
 5281TIP3   OH240037   4.398   6.656   9.930 -0.1255  0.3055  0.4157
 5281TIP3    H140038   4.448   6.712   9.989  0.5518  0.3434 -0.1827
 5281TIP3    H240039   4.333   6.614   9.986  0.4524  0.4054  1.1728
 5282TIP3   OH240040   2.390   4.979  11.659  0.0652  0.0142  0.4461
 5282TIP3    H140041   2.309   4.940  11.627  0.8610 -0.5156 -1.0461
 5282TIP3    H240042   2.370   5.072  11.669 -0.7325 -0.1189  0.1190
 5283TIP3   OH240043   0.767   6.781   9.430  0.2117  0.2808  0.3680
 5283TIP3    H140044   0.829   6.789   9.357 -0.7318  3.3346 -0.2689
 5283TIP3    H240045   0.701   6.719   9.399  0.9551 -0.1161 -0.4703
 5284TIP3   OH240046   5.663   6.660   9.472  0.1888 -0.6153 -0.2886
 5284TIP3    H140047   5.672   6.585   9.413 -0.0778 -0.5308 -0.4383
 5284TIP3    H240048   5.751   6.699   9.474 -0.2292  0.5786 -2.2443
 5285TIP3   OH240049   4.061   0.264   9.313  0.0781  0.0413  0.2255
 5285TIP3    H140050   4.054   0.303   9.226 -0.3273  0.0611  0.2632
 5285TIP3    H240051   3.973   0.273   9.351  0.2724  0.1232  0.6723
 5286TIP3   OH240052   1.446   3.656  11.052  0.2471  0.5025  0.4664
 5286TIP3    H140053   1.536   3.626  11.064 -0.2615 -0.7101  1.4212
 5286TIP3    H240054   1.449   3.750  11.068  1.4605  0.5972 -0.2091
 5287TIP3   OH240055   6.733   1.197  10.413  0.2771  0.3245  0.3711
 5287TIP3    H140056   6.649   1.243  10.407 -0.8060 -1.7121 -1.4156
 5287TIP3    H240057   6.792   1.260  10.454 -2.1300  1.7982  1.8090
 5288TIP3   OH240058   2.823   5.740   9.536  0.0958 -0.1922 -0.1237
 5288TIP3    H140059   2.906   5.696   9.550  0.0628 -0.5142 -0.8737
 5288TIP3    H240060   2.843   5.833   9.543  0.7698 -0.2152 -1.4815
 5289TIP3   OH240061   4.132   6.165   9.385  0.3009 -0.2872  0.5023
 5289TIP3    H140062   4.117   6.232   9.452  0.2291 -0.8470  1.0617
 5289TIP3    H240063   4.048   6.156   9.341  0.4729  0.4167  0.0141
 5290TIP3   OH240064   5.683   4.591   9.361  0.3644  0.4323 -0.0940
 5290TIP3    H140065   5.608   4.603   9.420  0.3921  1.3686 -0.2325
 5290TIP3    H240066   5.671   4.658   9.294  1.3283  0.5999 -0.1144
 5291TIP3   OH240067   4.845   4.095   9.699 -0.4249  0.2679  0.5755
 5291TIP3    H140068   4.761   4.076   9.659  0.3997 -1.7994 -0.3042
 5291TIP3    H240069   4.836   4.066   9.790 -0.0875 -1.9650 -0.0360
 5292TIP3   OH240070   2.463   4.025   9.385 -0.2472  0.5409 -0.2114
 5292TIP3    H140071   2.538   4.003   9.442  0.0612  0.1793 -0.7444
 5292TIP3    H240072   2.503   4.043   9.300 -0.6899  1.2731 -0.2669
 5293TIP3   OH240073   0.856   6.019  11.469  0.0982 -0.1889  0.5281
 5293TIP3    H140074   0.884   6.109  11.481 -0.7553  0.2085 -0.2967
 5293TIP3    H240075   0.888   5.973  11.546  0.1310  0.9173  1.1970
 5294TIP3   OH240076   2.377   6.190  10.603 -0.0784 -0.1041  0.4923
 5294TIP3    H140077   2.312   6.257  10.623  1.0226  0.4676  2.4497
 5294TIP3    H240078   2.377   6.133  10.679  0.5193 -1.0871 -0.2196
 5295TIP3   OH240079   3.535   2.574   9.232  0.4690 -0.5947  0.1552
 5295TIP3    H140080   3.457   2.526   9.258 -0.8327  0.2744 -1.8995
 5295TIP3    H240081   3.577   2.599   9.315 -1.3610 -1.1808  1.3065
 5296TIP3   OH240082   6.501   6.219   8.446  0.3640  0.0201  0.1009
 5296TIP3    H140083   6.577   6.270   8.473  0.5344 -0.9653  1.5730
 5296TIP3    H240084   6.516   6.132   8.482 -0.7067 -0.6336 -0.9663
 5297TIP3   OH240085   6.135   1.535   9.883 -0.4864 -0.2654  0.4821
 5297TIP3    H140086   6.167   1.448   9.860 -0.6486 -0.5922  1.4316
 5297TIP3    H240087   6.131   1.534   9.979  0.0376  0.9779  0.5275
 5298TIP3   OH240088   2.263   0.980  10.816 -0.3819 -0.7532  0.0504
 5298TIP3    H140089   2.189   0.956  10.761  0.2572  1.2191 -1.7956
 5298TIP3    H240090   2.248   1.072  10.838  0.4530 -0.9248  1.4751
 5299TIP3   OH240091   4.339   5.028  10.760 -0.0816 -0.1009 -0.5013
 5299TIP3    H140092   4.278   5.102  10.753 -0.2442  0.3950  3.7714
 5299TIP3    H240093   4.424   5.069  10.777  0.4028 -0.8743 -1.0074
 5300TIP3   OH240094   5.251   3.879  10.027  0.2857 -0.0238 -0.2950
 5300TIP3    H140095   5.176   3.924  10.064  0.4211  0.8748 -1.0789
 5300TIP3    H240096   5.214   3.817   9.964  0.1935  0.3710 -0.6321
 5301TIP3   OH240097   5.771   1.107  11.750 -0.1592  0.7064  0.4122
 5301TIP3    H140098   5.843   1.046  11.768  0.4677  0.9710 -1.0721
 5301TIP3    H240099   5.762   1.158  11.830 -0.9575 -1.5514  1.8692
 5302TIP3   OH240100   6.467   4.004  11.713  0.6211 -0.1107 -0.2029
 5302TIP3    H140101   6.376   4.001  11.744  0.0188  1.8406 -1.5581
 5302TIP3    H240102   6.512   3.936  11.763 -1.6937 -1.5187  0.1202
 5303TIP3   OH240103   3.506   2.720  11.102  0.3623 -0.5133 -0.0898
 5303TIP3    H140104   3.544   2.635  11.124  0.6115 -0.1305  0.9973
 5303TIP3    H240105   3.556   2.748  11.025  0.4602 -1.2196 -0.2997
 5304TIP3   OH240106   6.480   1.607  11.367 -0.9177 -0.2264 -0.3587
 5304TIP3    H140107   6.565   1.567  11.385 -1.4261 -0.2881  2.3947
 5304TIP3    H240108   6.480   1.688  11.419 -2.8503 -0.7274  0.5346
 5305TIP3   OH240109   6.428   6.424   8.223 -0.1093 -0.2268  0.0622
 5305TIP3    H140110   6.446   6.344   8.272  1.0344  0.1437  0.2748
 5305TIP3    H240111   6.513   6.451   8.189 -0.7524 -0.0538 -1.4944
 5306TIP3   OH240112   1.742   2.957  10.029 -0.5096  0.1010  0.5026
 5306TIP3    H140113   1.740   2.883   9.968 -0.2709 -1.1029  1.8848
 5306TIP3    H240114   1.760   3.033   9.974  1.3505 -1.1385 -0.7579
 5307TIP3   OH240115   3.232   0.731  10.506 -0.5007  0.4407 -0.1565
 5307TIP3    H140116   3.287   0.712  10.582 -0.2224 -1.3385 -0.7604
 5307TIP3    H240117   3.239   0.826  10.496  1.3284  0.4509  0.6579
 5308TIP3   OH240118   2.156   2.612  11.299 -0.6636 -0.1478  0.3501
 5308TIP3    H140119   2.216   2.558  11.351 -2.6312  0.2850  3.2992
 5308TIP3    H240120   2.143   2.562  11.219  2.2544 -1.0533  0.3150
 5309TIP3   OH240121   2.684   0.577   9.438 -0.4059 -0.0326 -0.2374
 5309TIP3    H140122   2.685   0.519   9.362  0.2219 -0.3873  0.0367
 5309TIP3    H240123   2.644   0.658   9.405 -0.2338 -0.2140 -0.9193
 5310TIP3   OH240124   5.986   2.087  11.928  0.1660  0.0814 -0.0417
 5310TIP3    H140125   5.918   2.020  11.921 -0.2370  0.2488  1.7215
 5310TIP3    H240126   5.954   2.158  11.873 -0.4008 -0.3924 -0.3393
 5311TIP3   OH240127   6.400   3.714   8.875 -0.1809 -0.5027 -0.1352
 5311TIP3    H140128   6.378   3.663   8.953  0.3533  0.4438  0.6553
 5311TIP3    H240129   6.494   3.703   8.865  0.2515  1.6464  1.0540
 5312TIP3   OH240130   6.689   5.972  10.786 -0.5064  0.2218 -0.1604
 5312TIP3    H140131   6.597   5.956  10.767 -0.6559  0.6350  0.2169
 5312TIP3    H240132   6.692   5.993  10.879 -0.3399  2.4702 -0.6100
 5313TIP3   OH240133   6.764   4.728  11.289 -0.1403 -0.1473 -0.3846
 5313TIP3    H140134   6.697   4.754  11.352 -1.5593 -0.5525 -1.6812
 5313TIP3    H240135   6.756   4.791  11.217  1.2514  0.1295 -0.3259
 5314TIP3   OH240136   6.265   2.068  11.997 -0.7234  0.2379  0.2151
 5314TIP3    H140137   6.175   2.052  11.969  0.0941 -1.7985 -1.5709
 5314TIP3    H240138   6.309   1.983  11.987  1.4319  1.1869  0.9067
 5315TIP3   OH240139   5.022   1.708   9.439  0.6583 -0.1899 -0.2796
 5315TIP3    H140140   4.986   1.657   9.512  0.2011  1.3976  0.6365
 5315TIP3    H240141   5.117   1.704   9.451  0.5662  0.7463  0.9205
 5316TIP3   OH240142   2.169   1.492  11.693  0.3509  0.0061  0.1547
 5316TIP3    H140143   2.260   1.468  11.709 -0.0259 -0.4702  1.6914
 5316TIP3    H240144   2.154   1.469  11.601  2.2762  1.7686 -0.6838
 5317TIP3   OH240145   0.101   6.241  11.684 -0.3584  0.2100 -0.1077
 5317TIP3    H140146   0.088   6.331  11.654 -0.0050 -0.0125 -0.9748
 5317TIP3    H240147   0.030   6.225  11.746 -0.7228  0.9237 -0.3334
 5318TIP3   OH240148   3.730   4.786  11.533  0.2117 -0.0301 -0.3677
 5318TIP3    H140149   3.791   4.827  11.595 -0.5233 -0.2137  0.5114
 5318TIP3    H240150   3.771   4.703  11.510  0.4321 -0.0273 -0.0031
 5319TIP3   OH240151   2.528   5.208   9.117  0.1736 -0.0718 -0.0804
 5319TIP3    H140152   2.572   5.133   9.075  0.0596 -0.2995  0.2031
 5319TIP3    H240153   2.446   5.172   9.151  0.6920 -0.1115  1.1705
 5320TIP3   OH240154   3.267   5.748  11.236  0.9392  0.4407  0.4845
 5320TIP3    H140155   3.176   5.741  11.209  0.8737 -0.5817  0.9337
 5320TIP3    H240156   3.317   5.743  11.154  0.6687 -0.8856  0.3909
 5321TIP3   OH240157   6.704   1.155  11.020  0.2198 -0.6455  0.0078
 5321TIP3    H140158   6.729   1.062  11.022 -0.6467 -0.8836  0.1363
 5321TIP3    H240159   6.670   1.169  10.932 -0.4166 -0.6571  0.2522
 5322TIP3   OH240160   3.955   2.956   9.904  0.0966  0.0089  0.4360
 5322TIP3    H140161   3.997   3.008   9.836 -0.0549  0.9635  1.0548
 5322TIP3    H240162   3.883   3.011   9.935 -0.1143 -0.6040  1.0579
 5323TIP3   OH240163   1.270   6.534  11.007  0.8842  0.0909 -0.3039
 5323TIP3    H140164   1.321   6.453  11.012  0.2452 -0.3191 -0.2980
 5323TIP3    H240165   1.197   6.513  10.948 -0.0003  0.2662  0.6947
 5324TIP3   OH240166   1.051   3.977   8.522  0.1021 -0.1218  0.1616
 5324TIP3    H140167   1.134   3.989   8.570 -0.0667  0.3410  0.3378
 5324TIP3    H240168   1.076   3.982   8.430  0.1345  0.9209  0.2237
 5325TIP3   OH240169   0.695   0.897   9.759 -0.2899  0.7240 -0.5839
 5325TIP3    H140170   0.757   0.824   9.762  1.6667  2.2945 -0.9301
 5325TIP3    H240171   0.739   0.968   9.806 -1.1612  2.3591 -2.1140
 5326TIP3   OH240172   0.020   4.316   9.529 -0.2641  0.6733 -0.3114
 5326TIP3    H140173  -0.075   4.319   9.516 -0.5391 -2.5034  0.0930
 5326TIP3    H240174   0.031   4.316   9.624 -0.0448 -0.8132 -0.3107
 5327TIP3   OH240175   5.447   4.098   9.951  0.3647 -0.5658  0.0910
 5327TIP3    H140176   5.474   4.071   9.863 -0.1431 -1.3528  0.1684
 5327TIP3    H240177   5.368   4.046   9.968 -1.6562  2.1060 -0.4188
 5328TIP3   OH240178   5.982   4.633  10.573 -0.3532  0.2493  0.3483
 5328TIP3    H140179   5.897   4.589  10.569  0.2167 -0.8265 -0.6550
 5328TIP3    H240180   6.043   4.564  10.601  0.1099  1.1745  1.7520
 5329TIP3   OH240181   1.307   2.019   9.361 -0.2914 -0.2536  0.0318
 5329TIP3    H140182   1.333   1.990   9.449  0.8219 -1.2331 -0.5923
 5329TIP3    H240183   1.212   2.009   9.361 -0.1525 -1.9266  0.5742
 5330TIP3   OH240184   2.676   0.732   8.509 -0.0643  0.2571 -0.4148
 5330TIP3    H140185   2.597   0.712   8.559  0.1044  0.9542  0.1485
 5330TIP3    H240186   2.645   0.755   8.422 -0.3598 -1.0184 -0.6622
 5331TIP3   OH240187   1.519   5.192   9.951  0.2679  0.2973 -0.2171
 5331TIP3    H140188   1.534   5.151   9.866 -1.4991 -2.3776  0.6371
 5331TIP3    H240189   1.572   5.141  10.012 -1.5467 -0.4709  0.8058
 5332TIP3   OH240190   5.302   6.142  11.782  0.1228  0.1302  0.5157
 5332TIP3    H140191   5.208   6.130  11.783  0.1067  0.0582  2.2481
 5332TIP3    H240192   5.315   6.235  11.762 -0.2764  0.0222 -0.2723
 5333TIP3   OH240193   2.596   6.534  10.451  0.1505  0.1085  0.1549
 5333TIP3    H140194   2.689   6.552  10.439 -0.0268  0.1485 -1.2886
 5333TIP3    H240195   2.556   6.620  10.462 -0.1162  0.3755 -2.4257
 5334TIP3   OH240196   0.190   3.717   9.837 -0.5378  0.1458  0.7269
 5334TIP3    H140197   0.248   3.740   9.765  1.0882 -0.1769  1.8673
 5334TIP3    H240198   0.242   3.733   9.916 -2.1352  0.1794  1.8418
 5335TIP3   OH240199   3.614   5.269  10.428  0.1638 -0.4594 -0.1232
 5335TIP3    H140200   3.590   5.286  10.337  1.6841  2.0434 -0.1479
 5335TIP3    H240201   3.697   5.221  10.422  1.1822  1.2151 -0.1418
 5336TIP3   OH240202   1.674   6.542   8.837 -0.3089  0.0607 -0.1476
 5336TIP3    H140203   1.586   6.576   8.857 -0.0987  0.1176  0.7157
 5336TIP3    H240204   1.680   6.461   8.886  0.7834  0.9697  1.2774
 5337TIP3   OH240205   4.984   1.560   8.310 -0.1960 -0.0697  0.3983
 5337TIP3    H140206   5.003   1.629   8.246  0.8225 -0.2888  0.4431
 5337TIP3    H240207   5.029   1.588   8.389  0.2113 -0.7759  0.4221
 5338TIP3   OH240208   1.961   3.515  10.120  0.1698 -0.2187  0.2412
 5338TIP3    H140209   2.013   3.565  10.183 -1.2049  1.9221 -0.2318
 5338TIP3    H240210   1.879   3.564  10.112 -0.1291 -0.9840 -2.4236
 5339TIP3   OH240211   5.787   5.087   9.877  0.1233  0.6419 -0.0401
 5339TIP3    H140212   5.803   5.003   9.921  0.1145  0.2481 -0.7582
 5339TIP3    H240213   5.875   5.122   9.861  0.1514  0.4423 -0.3372
 5340TIP3   OH240214   6.248   4.464   9.247 -0.0605  0.5406 -0.3388
 5340TIP3    H140215   6.246   4.375   9.282 -1.4845  0.3669 -0.8113
 5340TIP3    H240216   6.213   4.456   9.159 -0.9191  1.6683 -0.1171
 5341TIP3   OH240217   3.797   2.049  11.150 -0.2997 -0.2201  0.2332
 5341TIP3    H140218   3.883   2.067  11.188 -0.3169 -1.4693  0.9292
 5341TIP3    H240219   3.748   2.005  11.220 -1.6963  0.9124  0.0227
 5342TIP3   OH240220   4.138   1.030   9.902  0.0236  0.2930 -0.1880
 5342TIP3    H140221   4.206   1.040   9.969  0.1907 -2.2050  0.1256
 5342TIP3    H240222   4.082   1.106   9.913  0.1882  0.1290  2.6631
 5343TIP3   OH240223   0.434   5.175  11.290 -0.7974  0.5735  0.6403
 5343TIP3    H140224   0.520   5.210  11.267 -0.0748 -0.9068  0.9636
 5343TIP3    H240225   0.450   5.123  11.369 -2.1604  0.9580  1.2018
 5344TIP3   OH240226   0.947   3.131  11.811  0.2229 -0.2225  0.6524
 5344TIP3    H140227   0.916   3.221  11.816  0.9199  0.0002  1.2986
 5344TIP3    H240228   1.043   3.139  11.812  0.2930 -0.9535  0.3753
 5345TIP3   OH240229   0.125   5.644   9.450  0.1771 -0.5898  0.8285
 5345TIP3    H140230   0.129   5.687   9.364 -1.1081  1.0148  1.5301
 5345TIP3    H240231   0.152   5.554   9.432  2.9707  0.4205 -0.7224
 5346TIP3   OH240232   5.337   0.330  11.677 -0.4009  0.5556  0.6939
 5346TIP3    H140233   5.251   0.364  11.651  0.3601  2.7055  0.7947
 5346TIP3    H240234   5.377   0.401  11.727  2.4220  0.6721 -1.4356
 5347TIP3   OH240235   6.658   1.624  11.093  0.1768 -0.2164  0.2429
 5347TIP3    H140236   6.655   1.665  11.007 -1.3734  1.0952  0.8738
 5347TIP3    H240237   6.669   1.697  11.154  1.1379 -1.1078  1.1995
 5348TIP3   OH240238   3.178   5.414  10.354  0.6816  0.6984 -0.6118
 5348TIP3    H140239   3.149   5.503  10.377  0.9076  0.2448  1.6897
 5348TIP3    H240240   3.232   5.387  10.428  0.3163 -1.5000 -1.0921
 5349TIP3   OH240241   1.347   0.388  10.040  0.1999  0.2364  0.6487
 5349TIP3    H140242   1.308   0.308  10.005 -1.4842  0.4684  1.8620
 5349TIP3    H240243   1.321   0.456   9.977 -0.2091  0.1717  0.7454
 5350TIP3   OH240244   4.274   1.313   9.644  0.3355  0.5498  0.2940
 5350TIP3    H140245   4.327   1.234   9.637  0.1951  0.4102  0.7748
 5350TIP3    H240246   4.183   1.282   9.641  0.2784  0.7237  0.1715
 5351TIP3   OH240247   6.424   1.805  11.971  0.1075 -0.6624  0.0365
 5351TIP3    H140248   6.465   1.759  12.045 -0.4253 -1.3004 -0.0599
 5351TIP3    H240249   6.468   1.770  11.894  0.9607  0.3110  0.0590
 5352TIP3   OH240250   3.264   3.422  11.692  0.0654 -0.1411  0.0926
 5352TIP3    H140251   3.211   3.343  11.685  1.0662 -0.8411  0.2143
 5352TIP3    H240252   3.284   3.445  11.601 -1.2859  0.7355 -0.0138
 5353TIP3   OH240253   4.352   2.997  12.134 -0.1981  0.0635  0.1481
 5353TIP3    H140254   4.332   3.086  12.106 -0.6057 -0.0368  0.1112
 5353TIP3    H240255   4.448   2.992  12.133 -0.1926  0.2759 -0.5479
 5354TIP3   OH240256   4.724   4.819  10.812  0.1945 -0.5618 -0.1345
 5354TIP3    H140257   4.789   4.861  10.756 -0.9364  0.5306 -0.6608
 5354TIP3    H240258   4.649   4.804  10.755 -0.4137 -0.8453  0.7151
 5355TIP3   OH240259   2.132   1.233  11.297  0.2864  0.2504 -0.4741
 5355TIP3    H140260   2.227   1.228  11.304  0.3627  0.9243 -0.8858
 5355TIP3    H240261   2.100   1.183  11.372  0.9755  0.5113  0.0154
 5356TIP3   OH240262   6.317   2.178  10.064  0.1859 -0.7135  0.0247
 5356TIP3    H140263   6.371   2.256  10.074  1.2242 -1.3592 -0.4598
 5356TIP3    H240264   6.240   2.196  10.118 -0.2705  1.2308 -1.1260
 5357TIP3   OH240265   5.780   1.990  11.120  0.3435  0.1503  0.2429
 5357TIP3    H140266   5.700   2.037  11.145  0.7112  0.8681  0.0857
 5357TIP3    H240267   5.804   2.028  11.036 -0.4516 -1.7125 -0.8841
 5358TIP3   OH240268   3.663   2.568   9.482  0.3820 -0.1334 -0.3316
 5358TIP3    H140269   3.723   2.501   9.515 -0.5249 -1.5520 -1.4049
 5358TIP3    H240270   3.602   2.584   9.554  1.3878  0.5321  0.3903
 5359TIP3   OH240271   1.008   2.687   8.795  0.0974  0.0133  0.6338
 5359TIP3    H140272   0.944   2.725   8.855 -1.0726 -0.5796 -0.2041
 5359TIP3    H240273   0.963   2.612   8.756  2.1188 -1.9056  1.7784
 5360TIP3   OH240274   4.669   2.789  11.573  0.3609  0.1580 -0.1084
 5360TIP3    H140275   4.667   2.809  11.666  4.2651  0.2328  0.0953
 5360TIP3    H240276   4.738   2.724  11.563  0.4209  0.5214 -3.0146
 5361TIP3   OH240277   5.923   0.510   8.157  0.9057  0.1146  0.4077
 5361TIP3    H140278   5.999   0.469   8.115  1.0490  1.6321 -0.9334
 5361TIP3    H240279   5.847   0.474   8.110  0.5486 -2.7206  2.8677
 5362TIP3   OH240280   4.906   6.326  10.229 -0.1556  0.2369  0.0920
 5362TIP3    H140281   4.927   6.387  10.159  0.4573  1.7813  1.5500
 5362TIP3    H240282   4.945   6.365  10.308  0.2025 -2.0196  1.1065
 5363TIP3   OH240283   4.240   3.464   9.945  0.4071 -0.0937 -0.0024
 5363TIP3    H140284   4.156   3.478   9.990 -0.6558  0.8593 -2.1260
 5363TIP3    H240285   4.253   3.369   9.948 -1.2439 -0.3747 -0.4035
 5364TIP3   OH240286   3.771   0.427  10.735  0.2129  0.1527  0.3159
 5364TIP3    H140287   3.744   0.435  10.827  0.5567  0.4875  0.3910
 5364TIP3    H240288   3.786   0.517  10.707  0.6104  0.0174  0.0844
 5365TIP3   OH240289   6.545   4.923   8.593  0.6556  0.5014  0.0854
 5365TIP3    H140290   6.578   4.836   8.570 -0.5156  0.0435  0.0514
 5365TIP3    H240291   6.622   4.973   8.617  1.3009 -0.7007  0.5743
 5366TIP3   OH240292   3.125   3.583   9.012  0.0657  0.2321  0.1949
 5366TIP3    H140293   3.206   3.544   9.043 -0.8208 -1.7342  0.1841
 5366TIP3    H240294   3.064   3.510   9.004 -1.5954  1.5797 -0.2067
 5367TIP3   OH240295   5.697   4.703   9.659  0.1705  0.8753 -0.2639
 5367TIP3    H140296   5.738   4.786   9.638  0.0984  1.1070  0.4876
 5367TIP3    H240297   5.621   4.698   9.601 -1.4603  2.6549  1.5391
 5368TIP3   OH240298   3.934   4.817  10.923  0.5668  0.4660  0.0463
 5368TIP3    H140299   4.023   4.784  10.936  0.9393  0.9408 -1.1417
 5368TIP3    H240300   3.937   4.861  10.838 -1.0137 -0.2344 -0.4157
 5369TIP3   OH240301   3.370   3.215  10.577  0.3294 -0.0340 -0.5066
 5369TIP3    H140302   3.405   3.301  10.600  0.4698 -0.4209  0.8286
 5369TIP3    H240303   3.275   3.228  10.577  0.3433  0.0993 -0.1412
 5370TIP3   OH240304   4.580   2.105  10.528  0.5570 -0.0598 -0.3170
 5370TIP3    H140305   4.565   2.192  10.492  0.7605  0.4623  0.7976
 5370TIP3    H240306   4.608   2.052  10.454  1.4072  1.0816 -0.8467
 5371TIP3   OH240307   2.929   1.329  10.928 -0.0068  0.1627 -0.2064
 5371TIP3    H140308   2.931   1.339  10.833 -1.2971  1.1127 -0.1516
 5371TIP3    H240309   2.859   1.266  10.945 -0.8586  1.1977  0.1863
 5372TIP3   OH240310   0.491   2.722   9.230  0.3920  0.2887 -0.0149
 5372TIP3    H140311   0.401   2.707   9.261  1.0690 -5.0865  0.3039
 5372TIP3    H240312   0.538   2.753   9.307 -0.8802  1.9267  0.1495
 5373TIP3   OH240313   0.056   3.250  11.509 -0.1049 -0.6549  0.2612
 5373TIP3    H140314   0.051   3.330  11.561  0.2423 -0.4453 -0.0237
 5373TIP3    H240315  -0.035   3.225  11.494 -0.2548  0.4749 -0.8628
 5374TIP3   OH240316   2.052   4.542  11.328 -0.7849 -0.5093 -0.0912
 5374TIP3    H140317   2.103   4.623  11.337 -0.8833 -0.7071  3.2306
 5374TIP3    H240318   2.075   4.510  11.241  2.1455  1.1786 -0.0833
 5375TIP3   OH240319   6.575   4.535  11.298  0.1706  0.2028 -0.4885
 5375TIP3    H140320   6.653   4.590  11.302  1.2397 -1.3254  1.4488
 5375TIP3    H240321   6.541   4.535  11.387 -0.3253 -1.4921 -0.6389
 5376TIP3   OH240322   5.812   2.969  11.202 -0.1770  0.2281  0.2584
 5376TIP3    H140323   5.873   2.899  11.227 -0.5841  0.2938  1.4616
 5376TIP3    H240324   5.734   2.954  11.255 -0.2565  1.6198  0.5810
 5377TIP3   OH240325   3.017   4.555   8.984  0.0196  0.2175  0.3345
 5377TIP3    H140326   3.056   4.594   9.062  0.7380  0.4341 -0.1270
 5377TIP3    H240327   3.017   4.625   8.919 -0.6225  0.0542  0.1489
 5378TIP3   OH240328   1.305   2.811  11.142  0.1686 -0.2181 -0.0078
 5378TIP3    H140329   1.272   2.894  11.108  1.3833 -0.4770 -2.0058
 5378TIP3    H240330   1.240   2.782  11.206 -1.1774  1.3705 -0.6171
 5379TIP3   OH240331   6.402   6.418   9.429 -0.2765  0.1564 -0.3268
 5379TIP3    H140332   6.358   6.333   9.424 -1.4297  0.5991  1.4033
 5379TIP3    H240333   6.377   6.464   9.349  0.9052 -1.3242 -1.6277
 5380TIP3   OH240334   2.722   6.022  11.774  0.1293  0.2822 -0.2675
 5380TIP3    H140335   2.747   6.103  11.729 -0.7046  1.4337  1.2561
 5380TIP3    H240336   2.628   6.032  11.790  0.4318  0.0403  1.9017
 5381TIP3   OH240337   1.041   0.541  11.673 -0.0228 -0.0632 -0.4745
 5381TIP3    H140338   1.127   0.584  11.677  1.0847 -2.1801  2.6868
 5381TIP3    H240339   0.984   0.597  11.727 -0.1281  0.3156 -0.9691
 5382TIP3   OH240340   3.807   4.639  11.094  0.3311  0.0359 -0.0161
 5382TIP3    H140341   3.718   4.672  11.108  0.0678 -0.6780  0.0802
 5382TIP3    H240342   3.843   4.693  11.024  0.2446  1.0947  0.7266
 5383TIP3   OH240343   4.545   5.393   9.179 -0.0722 -0.2237 -0.4254
 5383TIP3    H140344   4.525   5.331   9.250  0.6035 -0.2333 -0.2309
 5383TIP3    H240345   4.523   5.346   9.099  0.3483 -0.6921 -0.2761
 5384TIP3   OH240346   6.303   3.979   8.832 -0.2364  0.0712 -0.2318
 5384TIP3    H140347   6.246   3.962   8.757 -0.8190  0.8435  0.0137
 5384TIP3    H240348   6.342   3.894   8.852 -2.0313 -0.7139  0.1777
 5385TIP3   OH240349   2.044   4.993  11.828  0.3984  0.3335 -0.3961
 5385TIP3    H140350   2.115   5.052  11.805 -0.1093  1.5162  0.9468
 5385TIP3    H240351   2.071   4.908  11.793  2.1325  0.8984 -0.4966
 5386TIP3   OH240352   3.137   0.342  11.109  0.0710  0.5208 -0.5535
 5386TIP3    H140353   3.196   0.414  11.087  1.2189 -0.7685 -1.9630
 5386TIP3    H240354   3.077   0.336  11.035 -1.3465  1.2854  0.4923
 5387TIP3   OH240355   4.908   4.725   9.903 -0.0559 -0.4316  0.1547
 5387TIP3    H140356   4.901   4.729   9.998  1.8644  0.8026  0.3186
 5387TIP3    H240357   4.902   4.632   9.881 -1.8513 -0.6310  1.3052
 5388TIP3   OH240358   3.666   6.002  11.283  0.1957 -0.4416  0.0941
 5388TIP3    H140359   3.599   5.974  11.345 -1.6264  1.6909 -0.7546
 5388TIP3    H240360   3.693   6.088  11.314  0.4269 -0.0348 -1.1584
 5389TIP3   OH240361   1.986   4.207  11.434 -0.6753 -0.4869  0.5781
 5389TIP3    H140362   2.034   4.193  11.515  1.0304  0.3085 -0.2370
 5389TIP3    H240363   1.946   4.293  11.444  2.1730  1.0835 -0.5716
 5390TIP3   OH240364   4.146   2.764   9.939  0.2475 -0.4887 -0.2257
 5390TIP3    H140365   4.091   2.688   9.952 -0.7147  0.3184  0.5962
 5390TIP3    H240366   4.097   2.819   9.877  0.0293  0.2831  0.5947
 5391TIP3   OH240367   1.957   6.066   2.929  0.0285  0.5245  0.2156
 5391TIP3    H140368   1.881   6.043   2.982  0.5929  2.3068  1.9341
 5391TIP3    H240369   1.955   6.161   2.922  1.6464  0.5611 -0.3775
 5392TIP3   OH240370   1.793   5.334   3.104 -0.1843 -0.4044  0.3199
 5392TIP3    H140371   1.712   5.340   3.155 -0.1855 -3.3801  0.8498
 5392TIP3    H240372   1.802   5.240   3.085  3.3812 -0.2743  0.7233
 5393TIP3   OH240373   5.576   1.275   0.853  0.1756 -0.5200 -0.2557
 5393TIP3    H140374   5.486   1.293   0.881  0.0489  2.2868 -2.0800
 5393TIP3    H240375   5.568   1.196   0.799 -0.8171 -1.4636  1.1899
 5394TIP3   OH240376   2.321   6.004   3.277 -0.2552  0.0642  0.1549
 5394TIP3    H140377   2.346   5.912   3.286 -0.1049 -0.0932 -1.5031
 5394TIP3    H240378   2.350   6.028   3.189  1.3124  2.2294  1.1648
 5395TIP3   OH240379   1.263   6.731   1.698  0.2230  0.1347  0.2058
 5395TIP3    H140380   1.170   6.706   1.703  0.1120  0.0854 -1.4584
 5395TIP3    H240381   1.298   6.712   1.784 -1.2119 -0.3114  0.7150
 5396TIP3   OH240382   2.391   6.521   2.446 -0.4371 -0.3545  0.4081
 5396TIP3    H140383   2.390   6.554   2.356 -1.0639 -1.1222  0.1217
 5396TIP3    H240384   2.309   6.472   2.454 -0.7767  0.3889  1.6609
 5397TIP3   OH240385   1.269   6.727   1.107  0.5113 -0.1546  0.6331
 5397TIP3    H140386   1.322   6.651   1.130  0.6461  0.0208  0.9019
 5397TIP3    H240387   1.182   6.708   1.142  0.4262 -0.3889  0.2964
 5398TIP3   OH240388   3.178   1.286   3.851  0.3172  0.3042 -0.1154
 5398TIP3    H140389   3.216   1.244   3.928 -1.4384  0.2842  0.7904
 5398TIP3    H240390   3.197   1.226   3.779  4.4237  1.6059 -0.3571
 5399TIP3   OH240391   6.474   3.079   2.666  0.1666  0.3807 -0.3354
 5399TIP3    H140392   6.564   3.050   2.649  0.7856  2.1073 -0.2239
 5399TIP3    H240393   6.478   3.114   2.755 -1.2180 -1.6350  0.6012
 5400TIP3   OH240394   3.287   5.694   4.126  0.3830  0.0248 -0.4918
 5400TIP3    H140395   3.358   5.697   4.190 -0.1484  1.4347  0.0577
 5400TIP3    H240396   3.209   5.673   4.178  0.2788 -0.9032 -0.9988
 5401TIP3   OH240397   2.267   3.690   2.694 -0.4553 -0.0749 -0.0340
 5401TIP3    H140398   2.258   3.719   2.785 -3.4398  0.2495 -0.3248
 5401TIP3    H240399   2.189   3.637   2.678  0.4332 -0.8617 -2.1833
 5402TIP3   OH240400   1.814   3.284   2.414 -0.1003 -0.1612  0.0842
 5402TIP3    H140401   1.866   3.215   2.457 -0.0230 -1.6919 -2.3027
 5402TIP3    H240402   1.868   3.312   2.341 -0.4936  1.9513  0.5595
 5403TIP3   OH240403   3.210   2.805   3.449  0.0251  0.0990  0.3236
 5403TIP3    H140404   3.228   2.719   3.488 -0.0064  0.0800  0.2957
 5403TIP3    H240405   3.295   2.849   3.448 -0.1499  0.5211  1.4252
 5404TIP3   OH240406   0.653   3.526   2.207 -0.1251  0.0600  0.7471
 5404TIP3    H140407   0.610   3.544   2.124 -1.0856 -0.5492  1.0898
 5404TIP3    H240408   0.583   3.536   2.272  0.4755 -0.0230  1.4129
 5405TIP3   OH240409   4.957   5.227   1.618 -0.0601  0.2463 -0.2858
 5405TIP3    H140410   4.918   5.307   1.651 -2.7409 -1.0097 -0.1379
 5405TIP3    H240411   5.046   5.252   1.591 -0.5654  3.0445  0.3977
 5406TIP3   OH240412   6.126   5.189   2.372  0.2855 -0.6045 -0.0843
 5406TIP3    H140413   6.052   5.247   2.390 -0.2568 -1.5529  0.7510
 5406TIP3    H240414   6.089   5.116   2.324  1.0461 -0.1009 -1.5275
 5407TIP3   OH240415   0.604   0.486   0.616  0.0884 -0.9237 -0.0506
 5407TIP3    H140416   0.533   0.426   0.592 -0.1989 -0.3452 -0.6611
 5407TIP3    H240417   0.683   0.432   0.611 -0.3474 -1.7149  1.1732
 5408TIP3   OH240418   6.071   3.362   1.883  0.3229 -0.5730 -0.4056
 5408TIP3    H140419   5.975   3.364   1.879  0.1336  1.2965  2.2263
 5408TIP3    H240420   6.090   3.302   1.955  0.8930  1.6148  1.3574
 5409TIP3   OH240421   2.627   4.543   1.811  0.2114  0.5807  0.0220
 5409TIP3    H140422   2.690   4.576   1.747  1.5636 -0.3330  0.8208
 5409TIP3    H240423   2.640   4.448   1.811 -0.4029  0.4821  0.9861
 5410TIP3   OH240424   0.037   1.850   1.442  0.7023  0.2053  0.8368
 5410TIP3    H140425   0.071   1.928   1.485  1.7151  0.8055 -0.9471
 5410TIP3    H240426   0.048   1.868   1.349  0.0924 -1.6936  0.3638
 5411TIP3   OH240427   3.107   2.714   0.561 -0.4866 -0.2484 -0.0206
 5411TIP3    H140428   3.117   2.714   0.656 -0.9397  0.0995  0.0349
 5411TIP3    H240429   3.036   2.777   0.545  0.8803  1.2038 -0.7171
 5412TIP3   OH240430   0.729   6.074   2.094  0.2439  0.0013  0.1521
 5412TIP3    H140431   0.731   6.042   2.185 -1.0232  0.4991  0.3860
 5412TIP3    H240432   0.771   6.160   2.098  0.5868 -0.1666  0.1795
 5413TIP3   OH240433   4.643   2.698   3.077 -0.3270  0.0963  0.2056
 5413TIP3    H140434   4.678   2.609   3.081  3.6462  1.4790  0.1960
 5413TIP3    H240435   4.563   2.689   3.025 -0.5386 -3.5249  0.8757
 5414TIP3   OH240436   6.423   0.163   0.777  0.0906  0.3020 -0.3871
 5414TIP3    H140437   6.359   0.109   0.730 -0.5426  0.2397  0.5195
 5414TIP3    H240438   6.380   0.184   0.860  1.6547 -0.5767  0.6832
 5415TIP3   OH240439   5.644   6.648   2.689  0.1412  0.4010  0.8164
 5415TIP3    H140440   5.616   6.739   2.695 -0.4627  0.2832 -0.0627
 5415TIP3    H240441   5.573   6.598   2.730  0.2223  0.2776  0.8090
 5416TIP3   OH240442   0.881   1.286   3.428 -0.5967  0.0439  0.1111
 5416TIP3    H140443   0.819   1.330   3.370  0.0851  0.5536 -0.2493
 5416TIP3    H240444   0.960   1.277   3.375 -0.0648  0.2369  0.8634
 5417TIP3   OH240445   1.767   0.019   2.619 -0.0573  0.3837 -0.0529
 5417TIP3    H140446   1.724   0.069   2.550 -1.0699  0.6031  0.7090
 5417TIP3    H240447   1.856   0.054   2.623 -0.0458  0.5089 -1.0911
 5418TIP3   OH240448   5.291   2.695   3.735 -0.0933 -0.8598  0.0793
 5418TIP3    H140449   5.263   2.749   3.660  1.4354 -0.0717  0.0341
 5418TIP3    H240450   5.226   2.712   3.802  0.9602  2.1007  0.5034
 5419TIP3   OH240451   0.992   6.687   3.240 -0.1150  0.1555 -0.1287
 5419TIP3    H140452   0.953   6.695   3.328 -0.6350 -1.0431 -0.2211
 5419TIP3    H240453   1.072   6.637   3.254 -0.8094 -1.1075 -0.4521
 5420TIP3   OH240454   2.587   4.632   2.767 -0.0029 -0.4003 -0.0793
 5420TIP3    H140455   2.668   4.678   2.743  0.1787 -0.0208  1.1962
 5420TIP3    H240456   2.582   4.559   2.705 -0.5676  1.5647 -2.5581
 5421TIP3   OH240457   1.487   0.327   1.180 -0.0735 -0.0096 -0.0680
 5421TIP3    H140458   1.460   0.397   1.240  0.1212  0.4361 -0.4910
 5421TIP3    H240459   1.406   0.302   1.135 -0.0996  0.1119 -0.0890
 5422TIP3   OH240460   4.710   5.649   1.120  0.2793 -0.4140  0.1546
 5422TIP3    H140461   4.616   5.638   1.137 -0.0716 -0.6916 -1.7421
 5422TIP3    H240462   4.738   5.564   1.086  0.8207  0.1630 -0.8811
 5423TIP3   OH240463   2.153   5.579   2.717  0.4325 -0.2869 -0.6283
 5423TIP3    H140464   2.241   5.609   2.740  1.5830 -3.0095 -1.1520
 5423TIP3    H240465   2.117   5.548   2.800  0.7730 -1.0541 -0.7629
 5424TIP3   OH240466   3.440   0.741   2.099  0.0697  0.1301 -0.8578
 5424TIP3    H140467   3.508   0.690   2.055  0.3008 -2.2823  1.9809
 5424TIP3    H240468   3.358   0.701   2.070  0.1910 -1.0305  0.3397
 5425TIP3   OH240469   4.939   5.461   0.908  0.9103  0.0876 -0.2054
 5425TIP3    H140470   5.026   5.437   0.875  2.1585  2.9941  0.6127
 5425TIP3    H240471   4.898   5.508   0.835  0.1089 -0.9791 -0.4695
 5426TIP3   OH240472   3.824   1.945   3.869  0.1694 -0.5567  0.2127
 5426TIP3    H140473   3.892   1.883   3.894  0.6309  0.4247  1.5151
 5426TIP3    H240474   3.828   2.013   3.936 -1.7413 -0.1946  0.0247
 5427TIP3   OH240475   3.337   4.006   3.552  0.3475  0.1926 -0.2372
 5427TIP3    H140476   3.393   4.008   3.630  1.6436  0.2158 -1.1461
 5427TIP3    H240477   3.289   4.089   3.554 -0.0487 -0.0444  0.8171
 5428TIP3   OH240478   0.674   6.543   3.720  0.1197  0.2957  0.5312
 5428TIP3    H140479   0.594   6.532   3.669  0.1331 -0.6492  0.7039
 5428TIP3    H240480   0.676   6.637   3.741 -0.1865  0.5924 -0.6923
 5429TIP3   OH240481   4.769   1.485   3.202 -0.4288  0.0151 -0.2689
 5429TIP3    H140482   4.786   1.399   3.163  0.7743 -0.5110  1.3152
 5429TIP3    H240483   4.675   1.499   3.189 -0.5677 -1.3423 -0.9228
 5430TIP3   OH240484   6.412   4.530   1.744 -0.1822  0.1560  0.1856
 5430TIP3    H140485   6.397   4.562   1.834  1.8171 -0.8877  0.9472
 5430TIP3    H240486   6.479   4.589   1.710  1.0670 -1.1168  0.3914
 5431TIP3   OH240487   0.595   6.396   3.135  0.1962  0.2714 -0.1583
 5431TIP3    H140488   0.554   6.407   3.049  0.9031 -0.5185 -0.6172
 5431TIP3    H240489   0.662   6.464   3.139 -0.5327  0.9691  0.2032
 5432TIP3   OH240490   4.620   3.420   1.761  0.1039  0.1520  0.5674
 5432TIP3    H140491   4.548   3.482   1.771 -1.2996 -0.9059 -1.9500
 5432TIP3    H240492   4.577   3.338   1.735  2.0075 -1.4659  2.1786
 5433TIP3   OH240493   5.140   6.116   3.573  0.2519 -0.4941 -0.5390
 5433TIP3    H140494   5.226   6.093   3.538  0.9424 -0.7232  1.2071
 5433TIP3    H240495   5.153   6.122   3.667 -1.9253 -1.8207 -0.0781
 5434TIP3   OH240496   1.971   3.502   1.437  0.1264 -0.4535 -0.2306
 5434TIP3    H140497   1.888   3.511   1.485  0.6214 -0.8559  0.7337
 5434TIP3    H240498   1.977   3.582   1.384 -0.4223  0.0324  0.4214
 5435TIP3   OH240499   6.499   4.755   0.866 -0.0311  0.1116 -0.1957
 5435TIP3    H140500   6.456   4.777   0.949 -1.0186  0.7312 -0.8573
 5435TIP3    H240501   6.592   4.775   0.882 -0.5713  2.9938 -0.1030
 5436TIP3   OH240502   5.693   0.135   1.622 -0.1292 -0.4865  0.3634
 5436TIP3    H140503   5.679   0.178   1.538  1.1957 -0.1688  0.2853
 5436TIP3    H240504   5.762   0.070   1.605  0.9242  0.3098  1.4204
 5437TIP3   OH240505   0.770   5.712   1.201 -0.3657 -0.0500 -0.3702
 5437TIP3    H140506   0.791   5.800   1.170  1.5752 -0.1140  0.6243
 5437TIP3    H240507   0.820   5.654   1.144 -0.0008 -0.3928  0.2937
 5438TIP3   OH240508   4.002   1.900   0.969  0.1277 -0.2664  0.6554
 5438TIP3    H140509   3.957   1.850   1.037  0.5858 -3.4889 -1.1940
 5438TIP3    H240510   4.083   1.930   1.010 -0.1938 -1.0246  1.8764
 5439TIP3   OH240511   6.394   0.821   2.892  0.5727  0.4935  0.1220
 5439TIP3    H140512   6.386   0.915   2.876 -1.2502  0.1320 -1.5235
 5439TIP3    H240513   6.378   0.811   2.985 -4.2997  1.4894 -0.3345
 5440TIP3   OH240514   0.976   3.150   3.299  0.6161 -0.0179  0.2429
 5440TIP3    H140515   0.916   3.094   3.348  0.4302  0.8252  1.0085
 5440TIP3    H240516   1.023   3.090   3.242  0.2076 -0.9137  0.8186
 5441TIP3   OH240517   2.478   5.608   2.698  0.2353 -0.1177 -0.0960
 5441TIP3    H140518   2.559   5.640   2.659 -0.9158  0.5339 -2.0683
 5441TIP3    H240519   2.428   5.687   2.718 -0.0502 -0.5246  0.8598
 5442TIP3   OH240520   4.718   4.504   2.893 -0.3693 -0.1236 -0.2830
 5442TIP3    H140521   4.663   4.460   2.959  0.3100 -0.5624 -0.0050
 5442TIP3    H240522   4.757   4.578   2.941 -0.2564 -0.1576 -0.3228
 5443TIP3   OH240523   0.691   0.647   0.814 -0.3593 -0.4729 -0.1317
 5443TIP3    H140524   0.675   0.584   0.744 -0.8619  0.0500 -0.5001
 5443TIP3    H240525   0.605   0.681   0.836  0.0027  0.9473 -0.7699
 5444TIP3   OH240526   4.716   5.173   3.501  0.2508  0.6880 -0.1433
 5444TIP3    H140527   4.744   5.247   3.555  0.5985 -0.0138  0.6547
 5444TIP3    H240528   4.729   5.096   3.556  0.2567 -0.0139 -1.0918
 5445TIP3   OH240529   3.450   3.559   1.147  0.4467  0.5002 -0.5429
 5445TIP3    H140530   3.419   3.646   1.173  0.8474  0.4201  0.2255
 5445TIP3    H240531   3.522   3.576   1.087  0.2045  0.6929 -0.7831
 5446TIP3   OH240532   6.246   0.618   1.258 -0.4928 -0.4069 -0.5741
 5446TIP3    H140533   6.261   0.697   1.310  0.3336 -0.8880 -0.0430
 5446TIP3    H240534   6.332   0.597   1.221 -0.4929 -1.5204 -0.0014
 5447TIP3   OH240535   5.091   2.131   2.215  0.0369  0.5761  0.3226
 5447TIP3    H140536   5.109   2.101   2.125  1.2331  0.7848  0.4632
 5447TIP3    H240537   5.155   2.083   2.269 -0.4813  0.6692  1.0236
 5448TIP3   OH240538   2.120   4.906   3.533  0.6466  0.1991  0.1958
 5448TIP3    H140539   2.144   4.889   3.624 -0.0759 -1.9160  0.0469
 5448TIP3    H240540   2.130   4.822   3.489 -0.0111  0.9354 -1.4536
 5449TIP3   OH240541   5.700   0.821   2.400 -0.2551  0.1209 -0.0888
 5449TIP3    H140542   5.767   0.807   2.333 -0.8961  0.7827 -0.8900
 5449TIP3    H240543   5.633   0.754   2.381 -0.3606  0.2059 -0.0136
 5450TIP3   OH240544   5.785   4.068   1.842  0.2226 -0.3614 -0.0691
 5450TIP3    H140545   5.812   4.056   1.933 -0.4783 -1.1650  0.0449
 5450TIP3    H240546   5.777   4.162   1.831  0.3633 -0.2597  0.6896
 5451TIP3   OH240547   4.797   5.943   1.561 -0.2943 -0.1903 -0.5595
 5451TIP3    H140548   4.776   6.036   1.553  0.5758 -0.0829 -1.7120
 5451TIP3    H240549   4.762   5.919   1.647 -0.3150  1.2544 -0.1347
 5452TIP3   OH240550   5.407   6.474   3.700 -1.2222 -0.0274 -0.3169
 5452TIP3    H140551   5.467   6.468   3.626 -1.4099  0.0491 -0.4749
 5452TIP3    H240552   5.407   6.567   3.723 -1.2879 -0.0254 -0.3236
 5453TIP3   OH240553   5.288   1.607   1.310 -0.4707 -0.5283 -0.3465
 5453TIP3    H140554   5.301   1.546   1.382  0.3448 -1.4787 -1.2647
 5453TIP3    H240555   5.334   1.567   1.236  1.4095  1.8991 -0.6155
 5454TIP3   OH240556   2.040   1.934   2.869 -0.0389  0.5964 -0.3581
 5454TIP3    H140557   2.050   1.980   2.786 -2.3934 -0.5181 -1.3426
 5454TIP3    H240558   1.998   1.997   2.927 -1.4319  0.3636 -1.0806
 5455TIP3   OH240559   4.048   3.793   2.116 -0.4243 -0.0970 -0.3932
 5455TIP3    H140560   4.116   3.790   2.049  0.6001  1.2978  0.5210
 5455TIP3    H240561   3.975   3.839   2.074 -1.1898 -2.2994 -1.6400
 5456TIP3   OH240562   3.296   4.742   1.020 -0.1950  0.2946 -0.0183
 5456TIP3    H140563   3.218   4.796   1.034 -1.4204 -0.8667 -1.9124
 5456TIP3    H240564   3.367   4.805   1.010 -1.3042  1.5141 -0.6568
 5457TIP3   OH240565   6.337   3.614   2.136  0.5227  0.3844  0.6006
 5457TIP3    H140566   6.335   3.571   2.051  1.7634  0.1907  0.6576
 5457TIP3    H240567   6.355   3.544   2.199  2.6465  0.9342  0.6865
 5458TIP3   OH240568   6.191   4.447   1.459 -0.1111 -0.1017  0.2332
 5458TIP3    H140569   6.247   4.503   1.405  2.5530 -1.4551  1.4115
 5458TIP3    H240570   6.211   4.473   1.549 -0.5695 -1.3687  0.7149
 5459TIP3   OH240571   4.911   0.940   3.628  0.6874  0.2287 -0.4272
 5459TIP3    H140572   4.845   1.004   3.599  0.1701 -0.6131 -1.1573
 5459TIP3    H240573   4.888   0.921   3.719  1.0537  1.3315 -0.0935
 5460TIP3   OH240574   3.501   5.064   3.642 -0.0281 -0.7087 -0.0714
 5460TIP3    H140575   3.575   5.004   3.645  1.4615  1.0738  0.5475
 5460TIP3    H240576   3.464   5.061   3.731  0.0984 -0.6445 -0.0164
 5461TIP3   OH240577   3.203   5.111   2.717  0.0168 -0.3892 -0.3193
 5461TIP3    H140578   3.116   5.118   2.756  0.0771  1.0960 -0.3827
 5461TIP3    H240579   3.201   5.171   2.642  1.3044  0.2565  0.1241
 5462TIP3   OH240580   6.611   4.047   2.574  0.4273  0.0515 -0.3899
 5462TIP3    H140581   6.585   3.977   2.634 -0.0293  1.9602  1.7891
 5462TIP3    H240582   6.592   4.013   2.487  0.9583 -2.7999  0.5226
 5463TIP3   OH240583   2.357   0.972   3.050 -0.1796 -0.1615 -0.0435
 5463TIP3    H140584   2.341   0.994   3.142 -0.7236  1.4401 -0.4825
 5463TIP3    H240585   2.280   0.924   3.023 -1.0247  1.2227 -0.2034
 5464TIP3   OH240586   3.161   3.379   3.375  0.1489 -0.5074 -0.6152
 5464TIP3    H140587   3.241   3.432   3.375 -0.1330 -0.0797 -0.3728
 5464TIP3    H240588   3.092   3.440   3.400 -0.0215 -1.2344  0.7958
 5465TIP3   OH240589   4.449   4.747   2.274  0.0122  0.3255 -0.3569
 5465TIP3    H140590   4.408   4.778   2.354 -0.4921  1.4934 -1.0293
 5465TIP3    H240591   4.416   4.806   2.206  2.2883  0.9158 -1.0364
 5466TIP3   OH240592   5.906   1.662   2.751  0.0315 -0.2804  0.3946
 5466TIP3    H140593   5.828   1.626   2.792 -1.1246  0.8095 -0.7431
 5466TIP3    H240594   5.912   1.751   2.786 -0.6819  0.4924 -1.3362
 5467TIP3   OH240595   3.795   2.636   3.768  0.2794  0.2994  0.2585
 5467TIP3    H140596   3.711   2.683   3.771  1.1271  1.9381 -0.3002
 5467TIP3    H240597   3.853   2.687   3.825  1.4156  0.3317 -0.8756
 5468TIP3   OH240598   4.403   5.701   4.211  0.1091  0.0216  0.5112
 5468TIP3    H140599   4.372   5.621   4.253 -0.1635 -0.5449 -0.7370
 5468TIP3    H240600   4.499   5.692   4.210  0.1563  0.3044  1.4921
 5469TIP3   OH240601   5.306   0.233   2.694 -0.0438 -0.4609  0.1684
 5469TIP3    H140602   5.253   0.308   2.721  1.0485  0.4342 -0.1192
 5469TIP3    H240603   5.244   0.174   2.651 -1.1742 -0.3610  1.5719
 5470TIP3   OH240604   2.976   2.298   1.585 -0.0174 -0.7706 -0.0969
 5470TIP3    H140605   3.026   2.377   1.603 -1.6366 -0.2520  2.7915
 5470TIP3    H240606   2.983   2.286   1.491  0.4099  2.7623 -0.6587
 5471TIP3   OH240607   2.308   3.126   1.665 -0.8851  0.7298  0.2238
 5471TIP3    H140608   2.281   3.074   1.589 -0.3089  1.4184 -0.4699
 5471TIP3    H240609   2.367   3.192   1.629  2.6626 -1.3311  1.7747
 5472TIP3   OH240610   4.595   6.274   3.153  0.5974 -0.2328 -0.2416
 5472TIP3    H140611   4.535   6.294   3.081 -0.2098 -2.0300 -0.1060
 5472TIP3    H240612   4.579   6.345   3.216  0.6840  0.8744 -1.4202
 5473TIP3   OH240613   4.980   1.824   1.653  0.0320  0.1907  0.3074
 5473TIP3    H140614   5.042   1.753   1.672 -0.8592 -1.3122 -1.9547
 5473TIP3    H240615   5.022   1.874   1.582 -0.6466  0.0869 -0.1760
 5474TIP3   OH240616   5.075   3.717   1.987 -0.4810  0.0973 -0.4320
 5474TIP3    H140617   5.122   3.637   2.013  0.7136  0.5359 -1.1281
 5474TIP3    H240618   5.125   3.788   2.028 -1.9504  0.4662  0.7756
 5475TIP3   OH240619   3.959   0.930   2.297 -0.0295 -0.1376  0.1405
 5475TIP3    H140620   4.009   1.000   2.253 -1.1902  0.8420  0.3391
 5475TIP3    H240621   3.884   0.975   2.336  0.4157 -1.1307  2.2976
 5476TIP3   OH240622   0.118   4.610   2.039 -0.6963 -0.2646 -0.1599
 5476TIP3    H140623   0.146   4.666   2.112  0.1207  0.2079 -0.8293
 5476TIP3    H240624   0.193   4.553   2.022 -0.8947 -0.3957 -0.6120
 5477TIP3   OH240625   3.832   6.790   4.196 -0.1953  0.0459  0.0947
 5477TIP3    H140626   3.850   6.821   4.107  1.8447 -0.1528  0.3900
 5477TIP3    H240627   3.775   6.714   4.184  1.4554 -1.0663 -1.2018
 5478TIP3   OH240628   0.892   6.127   0.380  0.1175 -0.6266 -0.1607
 5478TIP3    H140629   0.965   6.065   0.381  0.8531  0.1854  2.0287
 5478TIP3    H240630   0.822   6.081   0.334  1.2026 -2.3896 -0.1476
 5479TIP3   OH240631   3.322   6.273   2.140 -0.0812  0.4357  0.2845
 5479TIP3    H140632   3.398   6.269   2.198 -1.1216 -3.0202  1.6514
 5479TIP3    H240633   3.258   6.214   2.180 -0.9784 -2.0687 -4.1969
 5480TIP3   OH240634   6.061   5.257   1.244  0.2214 -0.4474  0.3001
 5480TIP3    H140635   6.031   5.300   1.164  0.3974  0.4141  0.6817
 5480TIP3    H240636   5.981   5.222   1.284  0.0922 -0.5984 -0.0817
 5481TIP3   OH240637   1.349   5.768   1.908  0.5711 -0.1717  0.4341
 5481TIP3    H140638   1.299   5.712   1.968  0.4311  0.6528  1.1094
 5481TIP3    H240639   1.309   5.855   1.916  2.0204  0.4968  0.9170
 5482TIP3   OH240640   2.942   4.035   1.037  0.0859  0.3343 -0.1018
 5482TIP3    H140641   3.004   4.051   0.966  0.0937  0.6596 -0.0239
 5482TIP3    H240642   2.879   3.973   1.001 -1.6984  2.7983 -1.4415
 5483TIP3   OH240643   3.509   4.148   2.611 -0.2541 -0.0683  0.1730
 5483TIP3    H140644   3.532   4.216   2.674 -2.1490  0.7233  0.0675
 5483TIP3    H240645   3.434   4.184   2.562 -0.3396 -1.6148 -0.9152
 5484TIP3   OH240646   5.519   0.500   2.618  0.4112 -0.4963  0.0946
 5484TIP3    H140647   5.516   0.528   2.710  0.6305 -1.8184  0.5271
 5484TIP3    H240648   5.448   0.437   2.610 -1.0662  1.2649 -1.2596
 5485TIP3   OH240649   3.771   0.308   1.508 -0.1472 -0.0466 -0.0940
 5485TIP3    H140650   3.823   0.237   1.545  1.0268  0.8715  0.0689
 5485TIP3    H240651   3.757   0.282   1.417  1.3674  0.0884 -0.3923
 5486TIP3   OH240652   1.807   4.190   1.968  0.0540  0.0484 -0.4459
 5486TIP3    H140653   1.746   4.248   2.013 -0.2341  0.1132 -0.9124
 5486TIP3    H240654   1.892   4.233   1.976  0.1821 -0.4060  0.8443
 5487TIP3   OH240655   6.282   0.231   3.403 -0.4864  0.0619 -0.3404
 5487TIP3    H140656   6.251   0.320   3.418  1.6389  0.8478 -0.3142
 5487TIP3    H240657   6.321   0.204   3.486 -0.4356 -0.5929 -0.5676
 5488TIP3   OH240658   5.302   4.675   2.382 -0.0885  0.0620  0.2197
 5488TIP3    H140659   5.235   4.710   2.441  0.0285 -0.3149  0.5820
 5488TIP3    H240660   5.385   4.691   2.428  0.1138  0.8161 -0.3653
 5489TIP3   OH240661   1.623   0.389   0.928 -0.3813 -0.2407 -0.7027
 5489TIP3    H140662   1.706   0.354   0.895  0.1579  0.5695 -0.2287
 5489TIP3    H240663   1.597   0.328   0.997 -0.2928 -0.6082 -0.9851
 5490TIP3   OH240664   1.280   2.349   1.398 -0.1664 -0.3482 -0.6035
 5490TIP3    H140665   1.231   2.395   1.330 -0.8804 -0.0123  0.1234
 5490TIP3    H240666   1.216   2.290   1.439 -0.2218  0.6901  0.9096
 5491TIP3   OH240667   1.558   4.377   2.936  0.0771 -0.2896  0.2152
 5491TIP3    H140668   1.501   4.420   3.001 -0.9596 -0.1304 -0.7771
 5491TIP3    H240669   1.596   4.450   2.887  0.1966 -0.4415  0.0837
 5492TIP3   OH240670   1.979   3.562   2.706  0.0357 -0.0875 -0.2427
 5492TIP3    H140671   1.936   3.483   2.740  1.9506 -1.2541 -0.3754
 5492TIP3    H240672   1.936   3.580   2.623 -1.8456  0.2961  0.7573
 5493TIP3   OH240673   6.425   4.938   0.549 -0.0768  0.1065 -0.1014
 5493TIP3    H140674   6.491   4.967   0.612 -3.1150  3.8668  1.7869
 5493TIP3    H240675   6.476   4.913   0.471  3.6025  0.1488  2.0731
 5494TIP3   OH240676   0.176   3.036   2.368  0.1181  0.1725 -0.1838
 5494TIP3    H140677   0.229   3.066   2.442 -1.5616  0.9638  0.7734
 5494TIP3    H240678   0.157   3.116   2.319  0.3651 -0.2005 -0.8897
 5495TIP3   OH240679   1.966   6.487   3.781 -0.1241 -0.2894  0.1689
 5495TIP3    H140680   2.035   6.428   3.753 -0.0756 -0.3479  0.4125
 5495TIP3    H240681   1.958   6.472   3.875 -1.0891 -0.9430 -0.0065
 5496TIP3   OH240682   2.647   3.075   1.498 -0.4118  0.5780  0.1007
 5496TIP3    H140683   2.689   2.998   1.535  1.7450  0.7247 -1.8036
 5496TIP3    H240684   2.563   3.044   1.466 -0.3472 -0.5542  1.0040
 5497TIP3   OH240685   6.391   6.747   3.860  0.1762  1.0620 -0.0027
 5497TIP3    H140686   6.370   6.699   3.780 -0.3070  1.9181 -0.4024
 5497TIP3    H240687   6.486   6.752   3.861  0.4205 -1.8186  1.1990
 5498TIP3   OH240688   2.206   6.374   3.304 -0.5656 -0.3650 -0.0513
 5498TIP3    H140689   2.192   6.358   3.211 -1.6181  0.9315 -0.1479
 5498TIP3    H240690   2.300   6.365   3.316 -0.1751  1.2364 -1.6115
 5499TIP3   OH240691   3.420   4.827   1.301 -0.1550  0.0215  0.1340
 5499TIP3    H140692   3.485   4.826   1.371  0.0571 -0.4516 -0.0704
 5499TIP3    H240693   3.470   4.813   1.221 -0.3921  0.6115 -0.1267
 5500TIP3   OH240694   0.271   5.123   1.279  0.3081  0.5629  0.2080
 5500TIP3    H140695   0.300   5.033   1.265 -0.0265  0.4049  0.4971
 5500TIP3    H240696   0.346   5.166   1.321  1.4210  1.1214 -2.2192
 5501TIP3   OH240697   6.720   3.488   2.695  0.4692 -0.1873  0.1277
 5501TIP3    H140698   6.793   3.429   2.677  0.2148 -0.3518 -0.3959
 5501TIP3    H240699   6.746   3.571   2.654  0.4291 -0.1983  0.0805
 5502TIP3   OH240700   4.826   4.947   2.511  0.5109 -0.5228  0.0718
 5502TIP3    H140701   4.865   4.918   2.429  3.8254  0.2537  1.2157
 5502TIP3    H240702   4.816   4.867   2.563 -0.0077 -0.7998 -0.4459
 5503TIP3   OH240703   5.280   3.763   1.736  0.4547  0.1354 -0.2460
 5503TIP3    H140704   5.366   3.791   1.765 -0.3741  1.9683  0.6219
 5503TIP3    H240705   5.259   3.688   1.792  0.9949  0.4078  0.3289
 5504TIP3   OH240706   0.905   4.136   2.765  0.0383  0.3652  0.2794
 5504TIP3    H140707   0.822   4.121   2.809 -0.4401  0.9056 -0.4179
 5504TIP3    H240708   0.904   4.229   2.742 -0.3202 -0.1416 -2.0206
 5505TIP3   OH240709   3.357   5.438   3.212  0.3652  0.3967 -0.5515
 5505TIP3    H140710   3.370   5.347   3.185  1.3734 -0.1508  1.5448
 5505TIP3    H240711   3.314   5.431   3.297  1.3245  1.8422  0.0940
 5506TIP3   OH240712   5.690   0.566   0.503  0.4873  0.3165 -0.4218
 5506TIP3    H140713   5.658   0.574   0.413  2.7502  0.5753 -1.2720
 5506TIP3    H240714   5.610   0.563   0.556 -0.9474 -0.5698 -2.4604
 5507TIP3   OH240715   0.362   2.975   3.204 -0.1718  0.7033  0.2479
 5507TIP3    H140716   0.272   2.978   3.171 -0.5591  1.0807  1.2876
 5507TIP3    H240717   0.411   2.928   3.136 -1.2923 -0.1287 -0.0178
 5508TIP3   OH240718   2.592   3.702   1.993  0.3279 -0.4455 -0.0085
 5508TIP3    H140719   2.499   3.727   1.996  0.2410 -0.8132  0.3761
 5508TIP3    H240720   2.639   3.785   1.988  0.0006 -0.2391  0.3117
 5509TIP3   OH240721   4.924   1.887   3.893  0.0941  0.2763  0.2707
 5509TIP3    H140722   4.944   1.974   3.859  1.2003 -0.4822 -1.1410
 5509TIP3    H240723   4.840   1.864   3.853  0.4205  0.1873 -0.3659
 5510TIP3   OH240724   6.083   0.590   2.625  0.6916  0.2350  0.4177
 5510TIP3    H140725   6.040   0.646   2.561  1.3116  1.3482  0.9472
 5510TIP3    H240726   6.014   0.534   2.658 -0.5497  2.3588  1.6659
 5511TIP3   OH240727   4.714   6.392   2.624  0.1154 -0.1690  0.2752
 5511TIP3    H140728   4.739   6.445   2.700 -0.6528 -1.0364  1.1543
 5511TIP3    H240729   4.641   6.339   2.654 -2.4976  1.8131 -2.0083
 5512TIP3   OH240730   3.896   1.906   3.235  0.1600 -0.0017  0.0866
 5512TIP3    H140731   3.942   1.863   3.308  0.0280  0.4193  0.4195
 5512TIP3    H240732   3.925   1.858   3.158  0.7700 -0.0656  0.3487
 5513TIP3   OH240733   5.465   4.325   3.202 -0.5439 -0.1581  0.4131
 5513TIP3    H140734   5.536   4.260   3.199  0.3477  0.7144  1.4885
 5513TIP3    H240735   5.493   4.388   3.269 -1.3005  1.4411 -0.7087
 5514TIP3   OH240736   3.763   2.052   1.732 -0.5117 -0.2796  0.3145
 5514TIP3    H140737   3.714   1.985   1.779 -2.1641  0.5498 -0.1290
 5514TIP3    H240738   3.815   2.095   1.800 -1.0878 -0.6108  0.9890
 5515TIP3   OH240739   4.241   3.146   2.974 -0.4850 -0.4042  0.3427
 5515TIP3    H140740   4.329   3.170   3.002 -0.7531  1.7380 -0.4994
 5515TIP3    H240741   4.209   3.221   2.924 -2.5644 -1.3699  0.0777
 5516TIP3   OH240742   0.611   5.860   3.108 -0.0138  0.2235 -0.4458
 5516TIP3    H140743   0.524   5.900   3.107 -0.5531 -0.6824  2.5916
 5516TIP3    H240744   0.659   5.909   3.175  0.6184 -1.5962  0.4832
 5517TIP3   OH240745   2.658   5.926  11.405  0.1369 -0.4252  0.5914
 5517TIP3    H140746   2.687   5.865  11.473 -0.1554  0.7404  1.8253
 5517TIP3    H240747   2.601   5.987  11.452  3.1263  2.9233  0.2570
 5518TIP3   OH240748   3.100   5.920   2.947 -0.3370  0.0726  0.3534
 5518TIP3    H140749   3.128   6.000   2.991  1.8590 -0.4222 -0.0315
 5518TIP3    H240750   3.088   5.857   3.018  1.1793 -0.1463  0.4482
 5519TIP3   OH240751   3.154   6.684   3.173  0.4512  0.3810  0.1131
 5519TIP3    H140752   3.092   6.620   3.207 -0.1918  0.4993 -0.8002
 5519TIP3    H240753   3.157   6.753   3.239 -1.0252  0.7725 -0.1976
 5520TIP3   OH240754   5.932   4.091   2.133  0.1013 -0.1504 -0.0150
 5520TIP3    H140755   5.964   4.013   2.087  1.4130  0.7369 -0.6784
 5520TIP3    H240756   5.999   4.107   2.200 -0.5659 -0.0452  0.6260
 5521TIP3   OH240757   0.900   2.752   2.268 -0.5459 -0.0168  0.4112
 5521TIP3    H140758   0.927   2.812   2.338 -0.1822 -0.7442  0.9076
 5521TIP3    H240759   0.920   2.665   2.302  1.8468 -0.3188 -1.5130
 5522TIP3   OH240760   2.165   2.896   2.722  0.7690 -0.0422  0.5027
 5522TIP3    H140761   2.237   2.914   2.783  2.0820  0.4809 -1.1422
 5522TIP3    H240762   2.157   2.800   2.722  0.0409 -0.0164  2.2400
 5523TIP3   OH240763   1.495   4.185   2.122  0.3842 -0.1533  0.7329
 5523TIP3    H140764   1.504   4.176   2.217  1.0823 -1.2100  0.5783
 5523TIP3    H240765   1.510   4.097   2.088  3.3411  0.7350 -0.5866
 5524TIP3   OH240766   3.760   3.427   2.521  0.0656 -0.0619  0.4538
 5524TIP3    H140767   3.776   3.513   2.559  0.3944 -0.4680  1.2486
 5524TIP3    H240768   3.708   3.381   2.587  0.1405 -0.5784  0.1585
 5525TIP3   OH240769   5.706   3.818   1.137  0.0280  0.2739  0.1231
 5525TIP3    H140770   5.639   3.808   1.070  1.4277 -0.6929 -1.1927
 5525TIP3    H240771   5.789   3.803   1.091  1.0734  0.1126  1.9563
 5526TIP3   OH240772   5.186   1.975   4.001 -0.6916 -0.4766  0.1388
 5526TIP3    H140773   5.275   1.987   3.969 -0.7258  0.1552  0.2691
 5526TIP3    H240774   5.166   2.055   4.049 -0.9315 -1.0668  1.0556
 5527TIP3   OH240775   5.654   5.438   2.352 -0.4452 -0.1301 -0.6271
 5527TIP3    H140776   5.655   5.534   2.356 -0.3161 -0.0447 -2.0268
 5527TIP3    H240777   5.563   5.414   2.371 -0.4276  0.2517 -0.0466
 5528TIP3   OH240778   3.180   1.977   1.448  0.0801  0.0153  0.0715
 5528TIP3    H140779   3.149   1.922   1.520 -1.8695  1.1853  0.1800
 5528TIP3    H240780   3.243   2.036   1.490  1.1948 -1.2171  0.2024
 5529TIP3   OH240781   2.658   0.983   8.727 -0.0276 -0.1526 -0.0979
 5529TIP3    H140782   2.646   1.029   8.810  1.5455 -0.4128  0.3062
 5529TIP3    H240783   2.570   0.973   8.691 -0.5627  1.4715  0.7220
 5530TIP3   OH240784   5.085   0.215   1.782 -0.4714 -0.2995 -0.7051
 5530TIP3    H140785   5.042   0.276   1.723  0.6020 -0.3032 -1.5178
 5530TIP3    H240786   5.118   0.270   1.854 -1.2013 -0.2073 -0.4318
 5531TIP3   OH240787   6.158   1.515   2.385  0.0091  0.5936 -0.2179
 5531TIP3    H140788   6.067   1.542   2.391  0.0966  1.0399 -0.8281
 5531TIP3    H240789   6.208   1.587   2.423  0.1210  0.4367 -0.0634
 5532TIP3   OH240790   2.036   5.174   2.227  0.0426 -0.4610 -0.2533
 5532TIP3    H140791   2.130   5.160   2.210 -0.0380 -1.9657  0.3347
 5532TIP3    H240792   2.020   5.126   2.308 -1.5899 -1.7016 -1.2605
 5533TIP3   OH240793   4.400   3.671   3.205 -0.0241  0.1467  0.2651
 5533TIP3    H140794   4.383   3.723   3.283  0.0736  1.1642 -0.3736
 5533TIP3    H240795   4.313   3.654   3.168 -0.0784 -0.4281  0.6375
 5534TIP3   OH240796   0.599   3.849   1.476 -0.9201 -0.3966 -0.0374
 5534TIP3    H140797   0.583   3.770   1.528 -1.3095  0.2160  0.8048
 5534TIP3    H240798   0.523   3.905   1.494 -1.2940 -0.3468 -1.6330
 5535TIP3   OH240799   4.955   4.184   2.212 -0.1107  0.2286  0.3776
 5535TIP3    H140800   4.984   4.138   2.133  0.0647  0.3418  0.3759
 5535TIP3    H240801   5.026   4.245   2.232 -0.9147  1.4659 -0.3807
 5536TIP3   OH240802   5.742   3.442   1.815  0.1565 -1.0390 -0.4890
 5536TIP3    H140803   5.678   3.488   1.869  0.3151 -0.0673 -1.1051
 5536TIP3    H240804   5.768   3.506   1.749  2.2721 -1.1430  0.1555
 5537TIP3   OH240805   2.564   0.609   0.453  0.5235 -1.0774  0.1185
 5537TIP3    H140806   2.615   0.534   0.484  1.0467 -1.1146 -0.7978
 5537TIP3    H240807   2.583   0.678   0.517 -0.5416 -1.9190  1.3805
 5538TIP3   OH240808   4.533   2.187   1.574 -0.9651  1.2844  0.1456
 5538TIP3    H140809   4.548   2.175   1.668  3.4292  0.3265 -0.4689
 5538TIP3    H240810   4.532   2.281   1.562  3.1509  1.5842  0.8066
 5539TIP3   OH240811   1.658   3.445   1.812 -0.2397  0.0824 -0.2879
 5539TIP3    H140812   1.681   3.520   1.867  0.6558 -1.2098  1.1703
 5539TIP3    H240813   1.733   3.387   1.819 -1.0364 -1.0914 -1.1683
 5540TIP3   OH240814   5.173   0.185   2.259 -0.3486  0.2866  0.1522
 5540TIP3    H140815   5.121   0.264   2.246 -0.9349  0.6233  3.5182
 5540TIP3    H240816   5.263   0.214   2.252 -0.5598  0.7000 -1.0706
 5541TIP3   OH240817   2.923   4.750   2.468  0.3749 -0.7385  0.1867
 5541TIP3    H140818   3.000   4.804   2.487  1.8584 -2.3776 -0.8823
 5541TIP3    H240819   2.927   4.678   2.531  0.0534 -1.1539 -0.2538
 5542TIP3   OH240820   5.418   4.495   2.987 -0.3156 -0.0061  0.2554
 5542TIP3    H140821   5.364   4.569   3.016 -1.1108 -0.7385  0.6854
 5542TIP3    H240822   5.422   4.437   3.063  1.0447 -0.0124  0.2159
 5543TIP3   OH240823   0.386   0.042   2.334 -0.0868 -0.0999 -0.2614
 5543TIP3    H140824   0.375   0.024   2.241 -1.0514  0.8311 -0.3388
 5543TIP3    H240825   0.427   0.128   2.338 -0.1104 -0.1046  0.1776
 5544TIP3   OH240826   1.054   3.863   0.621 -0.6236  0.5128  0.4907
 5544TIP3    H140827   0.995   3.793   0.593  0.1102  0.4493 -1.0460
 5544TIP3    H240828   1.105   3.824   0.692 -0.8355 -0.2082  0.2633
 5545TIP3   OH240829   4.299   0.725   1.277 -0.1240  0.0115 -0.2939
 5545TIP3    H140830   4.349   0.784   1.334  0.8846 -0.0005 -1.1153
 5545TIP3    H240831   4.347   0.642   1.281 -0.6889 -0.3157 -0.2839
 5546TIP3   OH240832   5.143   5.162   4.275 -0.1353  0.2754 -0.2218
 5546TIP3    H140833   5.084   5.163   4.350  1.3656 -0.1104  1.0227
 5546TIP3    H240834   5.121   5.241   4.226  1.8700  3.2385  3.1550
 5547TIP3   OH240835   5.395   2.203   2.119  0.5231  0.1050 -0.1712
 5547TIP3    H140836   5.470   2.248   2.158  1.2864 -0.8455 -0.4755
 5547TIP3    H240837   5.384   2.124   2.173 -1.3627  1.0561  0.9161
 5548TIP3   OH240838   3.213   1.278   0.730  0.7050 -1.0322 -0.0839
 5548TIP3    H140839   3.273   1.219   0.775 -0.6177 -1.4262  1.2213
 5548TIP3    H240840   3.231   1.364   0.768  3.4188 -0.2236 -2.7617
 5549TIP3   OH240841   2.177   3.629   3.325 -0.0785 -0.2844 -0.4663
 5549TIP3    H140842   2.271   3.646   3.324  0.0507 -1.0147 -1.1357
 5549TIP3    H240843   2.153   3.621   3.233 -1.1163  1.5497 -0.4014
 5550TIP3   OH240844   4.031   5.058   2.775 -0.5940  0.0318  0.4993
 5550TIP3    H140845   4.101   5.049   2.839  0.4693 -0.9100 -0.7404
 5550TIP3    H240846   3.984   5.137   2.802  2.2308  1.9882  0.1903
 5551TIP3   OH240847   6.531   1.596   0.869 -0.4895 -0.2898 -0.1021
 5551TIP3    H140848   6.610   1.604   0.816 -0.0570  1.7025  0.7461
 5551TIP3    H240849   6.522   1.502   0.885  1.2746 -0.6145 -0.8466
 5552TIP3   OH240850   3.756   0.418   2.476  0.1737  0.1556  0.0095
 5552TIP3    H140851   3.710   0.485   2.526  0.0321 -0.1505  0.2946
 5552TIP3    H240852   3.730   0.434   2.385 -0.0623  0.3262  0.1064
 5553TIP3   OH240853   4.442   1.195   3.147 -0.6186  0.0683 -0.3549
 5553TIP3    H140854   4.352   1.186   3.176 -0.4376  0.6038  0.3793
 5553TIP3    H240855   4.443   1.275   3.095 -0.0313  1.5871  1.8668
 5554TIP3   OH240856   6.058   0.463   3.222 -0.0669 -0.2697  0.1171
 5554TIP3    H140857   6.151   0.473   3.242 -0.2524  0.0362  0.8482
 5554TIP3    H240858   6.014   0.524   3.280 -0.7855 -0.9744  0.3333
 5555TIP3   OH240859   2.713   6.054   4.282  0.3527 -0.0855 -0.2139
 5555TIP3    H140860   2.657   6.069   4.358 -1.2433 -1.3978 -1.0780
 5555TIP3    H240861   2.662   6.088   4.208  1.2998 -0.0565 -0.8689
 5556TIP3   OH240862   3.000   6.572   3.921  0.0765  0.0996  0.5160
 5556TIP3    H140863   3.049   6.650   3.893 -1.7450  1.4238  0.7905
 5556TIP3    H240864   2.978   6.590   4.012 -1.7139  0.0224  0.1362
 5557TIP3   OH240865   2.026   0.105   2.589 -0.5509 -0.5587 -0.1138
 5557TIP3    H140866   2.062   0.187   2.556 -1.5677 -0.0278  0.0658
 5557TIP3    H240867   2.090   0.038   2.563 -0.3939  0.1034 -1.4898
 5558TIP3   OH240868   3.201   1.733   4.592  0.4758  0.9968  0.0341
 5558TIP3    H140869   3.126   1.791   4.576 -0.6187  0.1047  1.6526
 5558TIP3    H240870   3.180   1.653   4.546  0.3552  0.7024  0.5893
 5559TIP3   OH240871   5.025   5.601   1.943  0.4654  0.1926  0.5041
 5559TIP3    H140872   5.027   5.674   1.882 -0.8017  0.0776  0.3173
 5559TIP3    H240873   4.933   5.576   1.949  0.9193 -1.7693  0.1057
 5560TIP3   OH240874   4.500   0.059   3.731 -0.0878 -0.2423  0.7224
 5560TIP3    H140875   4.475  -0.033   3.721  1.7041 -0.7193  0.2003
 5560TIP3    H240876   4.593   0.056   3.753  0.3176  1.4766 -0.5812
 5561TIP3   OH240877   1.984   6.169   1.680 -0.0095 -1.0664 -0.0295
 5561TIP3    H140878   1.966   6.245   1.736 -2.8343 -1.3714 -0.4033
 5561TIP3    H240879   1.991   6.205   1.592 -0.0221 -1.0919 -0.0408
 5562TIP3   OH240880   4.647   5.034   2.251 -0.0372  0.0436  0.1906
 5562TIP3    H140881   4.648   4.984   2.169 -0.7448 -1.4016  1.0226
 5562TIP3    H240882   4.734   5.019   2.288 -0.0709 -0.1568  0.1920
 5563TIP3   OH240883   0.568   5.473   2.510 -0.2941 -0.5541  0.6396
 5563TIP3    H140884   0.608   5.387   2.521 -0.4997 -1.0337 -1.6831
 5563TIP3    H240885   0.474   5.454   2.502 -0.5022  0.0565  1.5767
 5564TIP3   OH240886   4.300   0.324   2.232  0.2972  0.1669 -0.1818
 5564TIP3    H140887   4.366   0.264   2.266  0.2086  0.4257  0.4479
 5564TIP3    H240888   4.233   0.327   2.299 -1.3375 -1.5924 -1.6104
 5565TIP3   OH240889   3.820   0.785   2.780  0.4988  0.0567  0.1949
 5565TIP3    H140890   3.738   0.807   2.736  0.4978  0.2328  0.2878
 5565TIP3    H240891   3.883   0.850   2.749  0.2504  0.8223  1.2439
 5566TIP3   OH240892   3.469   6.464   3.038 -0.3922 -0.5217 -0.3636
 5566TIP3    H140893   3.475   6.488   2.946 -2.0184 -1.1608 -0.6662
 5566TIP3    H240894   3.378   6.435   3.050 -0.5439  0.5939  1.6965
 5567TIP3   OH240895   4.973   5.851   1.359  0.1358 -0.2528 -0.6993
 5567TIP3    H140896   4.913   5.806   1.299 -0.5156 -1.3510  0.7251
 5567TIP3    H240897   4.920   5.919   1.400  0.7677  0.9703 -1.8421
 5568TIP3   OH240898   5.314   3.909   2.779  0.0134 -0.5440  0.2092
 5568TIP3    H140899   5.326   3.999   2.750  0.0190  0.3806  2.8247
 5568TIP3    H240900   5.235   3.912   2.833  0.8430 -1.7802  1.5540
 5569TIP3   OH240901   1.918   2.905   0.455  0.0192 -0.3951 -0.1641
 5569TIP3    H140902   1.937   2.949   0.372  0.7816 -0.8727 -0.2623
 5569TIP3    H240903   1.967   2.955   0.520  0.2364 -0.6070 -0.1600
 5570TIP3   OH240904   2.655   6.408   1.657 -0.1837 -0.3552 -0.2220
 5570TIP3    H140905   2.580   6.361   1.694 -1.8107  0.3672 -2.3564
 5570TIP3    H240906   2.616   6.469   1.594  2.0973  1.4166 -0.0474
 5571TIP3   OH240907   0.317   0.938   3.370  0.0649 -0.3825 -0.0501
 5571TIP3    H140908   0.318   0.951   3.465 -1.4502 -0.1348 -0.0482
 5571TIP3    H240909   0.268   1.013   3.336  1.1603 -0.1228 -1.1014
 5572TIP3   OH240910   3.778   3.693   2.597  0.4398 -0.2833  0.0055
 5572TIP3    H140911   3.720   3.744   2.654 -0.7619 -0.8319 -0.7020
 5572TIP3    H240912   3.792   3.750   2.521  0.8113 -0.1669  0.1583
 5573TIP3   OH240913   4.982   6.574   3.128  0.1335  0.1535 -0.3529
 5573TIP3    H140914   4.996   6.501   3.188 -2.1083  0.7432  1.0135
 5573TIP3    H240915   5.036   6.645   3.163 -1.6865  0.7157  1.5109
 5574TIP3   OH240916   2.031   0.675   1.940  0.2842 -0.2155 -0.0618
 5574TIP3    H140917   2.105   0.631   1.984 -0.0634 -0.8485 -0.1001
 5574TIP3    H240918   2.073   0.741   1.885  0.6938  1.3448  1.9953
 5575TIP3   OH240919   5.763   3.111   0.819  0.1243 -0.5669 -0.0586
 5575TIP3    H140920   5.669   3.128   0.814  0.0049 -1.1773  0.0624
 5575TIP3    H240921   5.786   3.074   0.734  0.5022  0.7190 -0.5442
 5576TIP3   OH240922   2.033   5.141   3.812 -0.0995  0.1867 -0.2546
 5576TIP3    H140923   2.087   5.185   3.746  2.2862  0.3175  1.6246
 5576TIP3    H240924   2.061   5.050   3.810 -1.4414 -0.2403 -0.7200
 5577TIP3   OH240925   1.429   4.311   1.607 -0.7809  0.1428  0.5932
 5577TIP3    H140926   1.488   4.236   1.597  0.5720  1.1198  0.9705
 5577TIP3    H240927   1.388   4.299   1.692  0.9110  0.7944  1.5430
 5578TIP3   OH240928   5.522   5.580   1.834  0.1341 -0.3481 -0.4195
 5578TIP3    H140929   5.606   5.609   1.798  0.8404 -1.7340  0.0668
 5578TIP3    H240930   5.458   5.636   1.790  1.4069  1.9916  0.5411
 5579TIP3   OH240931   1.362   0.415   1.688  0.1699 -0.2528 -0.2757
 5579TIP3    H140932   1.337   0.507   1.672 -1.5342 -0.4543  0.8977
 5579TIP3    H240933   1.307   0.365   1.627  1.4133 -0.5048 -1.2225
 5580TIP3   OH240934   0.506   3.657   0.433 -0.3617 -0.1616  0.4325
 5580TIP3    H140935   0.492   3.620   0.521  2.2316  1.5181  1.6694
 5580TIP3    H240936   0.422   3.698   0.411 -0.9393 -0.1852  2.3532
 5581TIP3   OH240937   3.198   0.683   0.779  0.6991  0.4343  0.2638
 5581TIP3    H140938   3.116   0.697   0.826  0.3404  0.4162 -0.3451
 5581TIP3    H240939   3.202   0.754   0.715  0.5353 -0.2651 -0.5492
 5582TIP3   OH240940   0.957   4.083   2.383  0.6132 -0.1974 -0.0551
 5582TIP3    H140941   0.907   4.035   2.317 -1.4827  2.6193 -0.7371
 5582TIP3    H240942   0.940   4.037   2.465  0.0183 -1.5101 -0.8850
 5583TIP3   OH240943   0.107   2.385   1.444 -0.2623  0.4306 -0.2513
 5583TIP3    H140944   0.145   2.445   1.508  0.6205  0.9134 -1.1799
 5583TIP3    H240945   0.058   2.441   1.384  1.6220  0.4737 -1.8817
 5584TIP3   OH240946   3.370   1.557   1.876 -0.0398  0.7381  0.3404
 5584TIP3    H140947   3.452   1.591   1.841 -0.3417 -0.2744 -1.4860
 5584TIP3    H240948   3.307   1.567   1.804 -1.4456  1.1656  1.5795
 5585TIP3   OH240949   4.213   0.083   2.947  0.9402 -0.0413 -0.7600
 5585TIP3    H140950   4.232   0.177   2.949  1.1258 -0.0933  0.5010
 5585TIP3    H240951   4.173   0.069   2.861 -2.7765  1.9497  0.3988
 5586TIP3   OH240952   3.721   0.612   0.822  0.2337 -1.0795 -0.0921
 5586TIP3    H140953   3.697   0.695   0.781 -1.3770 -0.8351  1.2524
 5586TIP3    H240954   3.645   0.555   0.807  0.3416 -1.5349  1.0226
 5587TIP3   OH240955   3.848   0.426   4.437 -0.1177  0.1572 -0.1300
 5587TIP3    H140956   3.940   0.450   4.453 -0.6893  0.8486  2.6266
 5587TIP3    H240957   3.849   0.330   4.431  0.7307  0.1217  0.3853
 5588TIP3   OH240958   1.277   3.619   1.882  0.0696  0.0805  0.3833
 5588TIP3    H140959   1.365   3.583   1.871  0.1470  0.5606 -0.6461
 5588TIP3    H240960   1.284   3.709   1.851 -0.9517 -0.1031 -0.4292
 5589TIP3   OH240961   1.393   2.238   2.390  0.0548 -0.3778 -0.2725
 5589TIP3    H140962   1.364   2.278   2.471  1.7891  1.9094 -0.6758
 5589TIP3    H240963   1.394   2.144   2.409 -2.2869 -0.1610  1.3651
 5590TIP3   OH240964   3.015   0.053   1.666 -0.2971 -0.3586  0.3801
 5590TIP3    H140965   2.954   0.127   1.671 -0.7686 -0.5962 -1.3278
 5590TIP3    H240966   3.060   0.054   1.750 -1.5475  0.7845  1.0825
 5591TIP3   OH240967   5.493   0.543   0.717 -0.0281 -0.0303 -0.0406
 5591TIP3    H140968   5.404   0.575   0.732  0.8901  1.9725  1.6748
 5591TIP3    H240969   5.488   0.450   0.736 -1.7696  0.0152 -0.0714
 5592TIP3   OH240970   4.235   2.870   2.854  0.1142 -0.0191 -0.3421
 5592TIP3    H140971   4.146   2.875   2.817  0.4206 -0.6979 -1.2312
 5592TIP3    H240972   4.267   2.960   2.853 -0.3184  0.1337 -0.6668
 5593TIP3   OH240973   2.704   2.474   1.985 -0.2296  0.0212 -0.1829
 5593TIP3    H140974   2.707   2.514   2.072 -0.2314 -0.0876 -0.1328
 5593TIP3    H240975   2.769   2.522   1.934  1.0367 -1.0638  0.3622
 5594TIP3   OH240976   3.714   5.478   3.246  0.2950  0.1729  0.1260
 5594TIP3    H140977   3.800   5.503   3.214  0.7929  0.3025  1.5028
 5594TIP3    H240978   3.714   5.503   3.339 -1.3434  0.4972  0.0760
 5595TIP3   OH240979   3.744   4.528   0.957  0.0683 -0.5755 -0.6508
 5595TIP3    H140980   3.788   4.515   0.873  2.7713  0.0948  0.5288
 5595TIP3    H240981   3.688   4.605   0.942  1.7484  0.5720 -1.4739
 5596TIP3   OH240982   5.850   4.710   2.446 -0.0695  0.6866 -0.4299
 5596TIP3    H140983   5.925   4.663   2.409 -0.0680  1.6676 -1.7240
 5596TIP3    H240984   5.785   4.711   2.376 -1.0309  0.4709  0.4343
 5597TIP3   OH240985   1.659   5.760   3.650 -0.7044  0.5606 -0.0591
 5597TIP3    H140986   1.605   5.684   3.672 -0.4259  0.3108 -0.2198
 5597TIP3    H240987   1.713   5.775   3.728 -0.5835  0.4339 -0.1160
 5598TIP3   OH240988   0.802   0.112   1.957  0.5466 -0.0926  0.1995
 5598TIP3    H140989   0.725   0.106   1.901  0.3550  0.3676  0.4099
 5598TIP3    H240990   0.869   0.152   1.902  0.4056  0.2144  0.2520
 5599TIP3   OH240991   3.263   1.105   0.951 -0.0515  0.0402 -0.1071
 5599TIP3    H140992   3.180   1.149   0.930 -0.5532 -1.1003 -0.5994
 5599TIP3    H240993   3.290   1.143   1.034 -1.5951 -0.2705  0.5748
 5600TIP3   OH240994   6.342   5.090   3.590 -0.5698  0.4375  0.3480
 5600TIP3    H140995   6.409   5.064   3.654  2.2773  0.5631 -2.3625
 5600TIP3    H240996   6.305   5.007   3.560  1.1433  0.0314 -0.8148
 5601TIP3   OH240997   4.081   5.617   4.798  0.4773  0.2004 -0.6860
 5601TIP3    H140998   4.108   5.678   4.729 -0.5514 -0.7905 -2.0324
 5601TIP3    H240999   3.999   5.580   4.766  2.1124 -3.5823 -1.0854
 5602TIP3   OH241000   2.033   5.949   0.624 -0.0765 -0.1364  0.2363
 5602TIP3    H141001   2.084   6.020   0.663 -0.9020 -0.9161  2.9511
 5602TIP3    H241002   2.000   5.986   0.542 -0.9812  2.9154  1.7919
 5603TIP3   OH241003   3.729   0.585   3.834 -0.5535 -0.2284 -0.3001
 5603TIP3    H141004   3.688   0.671   3.824 -0.4275 -0.0528  0.5456
 5603TIP3    H241005   3.789   0.597   3.908 -0.8804 -1.1716  0.1266
 5604TIP3   OH241006   5.172   1.860   2.915  0.1759  0.0810  0.0693
 5604TIP3    H141007   5.148   1.776   2.875 -1.1690  0.6762 -0.4658
 5604TIP3    H241008   5.267   1.861   2.914  0.3580 -2.4721  2.3082
 5605TIP3   OH241009   4.265   4.267   0.613 -0.2699 -0.1149  0.0644
 5605TIP3    H141010   4.190   4.302   0.660  0.2611  0.2195  0.6745
 5605TIP3    H241011   4.279   4.328   0.541 -0.6312 -0.2263 -0.1047
 5606TIP3   OH241012   5.969   0.217   2.070  0.8353 -0.2704  0.1003
 5606TIP3    H141013   5.898   0.280   2.066  2.1895  1.6306  2.7415
 5606TIP3    H241014   5.947   0.160   2.143  0.7607 -1.4471 -0.8037
 5607TIP3   OH241015   1.752   1.696   3.129 -0.4170 -0.1871 -0.2991
 5607TIP3    H141016   1.738   1.780   3.172  1.6742  1.0294 -1.8740
 5607TIP3    H241017   1.846   1.684   3.129 -0.5257 -1.3904 -2.2183
 5608TIP3   OH241018   3.108   2.174   2.600  0.1136 -0.0734  0.1825
 5608TIP3    H141019   3.194   2.141   2.576  0.7873  0.8594  1.2409
 5608TIP3    H241020   3.067   2.196   2.516 -0.2878 -3.2307 -0.5836
 5609TIP3   OH241021   3.074   0.934   3.460 -0.6908  0.4531 -0.2472
 5609TIP3    H141022   3.160   0.918   3.420 -0.7286  0.6947 -0.4253
 5609TIP3    H241023   3.014   0.938   3.386 -1.1642 -1.5707 -0.0321
 5610TIP3   OH241024   0.905   2.310   1.884  0.4451  0.5958 -0.6592
 5610TIP3    H141025   0.816   2.277   1.900  1.8905 -2.4749  2.4836
 5610TIP3    H241026   0.908   2.395   1.927 -0.8008  0.3930 -0.1327
 5611TIP3   OH241027   5.843   2.427   1.123 -0.1842  0.2749 -0.3329
 5611TIP3    H141028   5.905   2.494   1.093 -0.7407  1.1866  0.4777
 5611TIP3    H241029   5.865   2.415   1.215 -0.8446  0.1945 -0.1863
 5612TIP3   OH241030   5.357   0.829   3.555 -0.2628  0.4844  0.3240
 5612TIP3    H141031   5.412   0.757   3.585 -1.2715  0.2042  1.5684
 5612TIP3    H241032   5.319   0.797   3.473  1.6407  0.8146 -0.7386
 5613TIP3   OH241033   5.558   2.549   1.617 -0.3994 -0.0603 -0.6204
 5613TIP3    H141034   5.550   2.472   1.560 -0.6427 -1.0941  0.7399
 5613TIP3    H241035   5.469   2.584   1.622 -0.5498 -0.4708 -0.2476
 5614TIP3   OH241036   4.062   0.931   1.376 -0.1225  0.2203 -0.4907
 5614TIP3    H141037   4.117   0.894   1.445 -0.4596  1.5682  0.5258
 5614TIP3    H241038   3.972   0.920   1.407 -0.3622 -0.3947 -1.3537
 5615TIP3   OH241039   1.855   2.003   2.040  0.5182 -0.1928 -0.6968
 5615TIP3    H141040   1.824   2.067   1.975 -1.7866 -0.7090 -0.1767
 5615TIP3    H241041   1.816   2.031   2.122  0.1050 -1.7878 -0.3064
 5616TIP3   OH241042   0.619   6.397   0.673  0.5850  0.8414 -0.6874
 5616TIP3    H141043   0.597   6.399   0.766 -1.4728  0.6447 -1.1303
 5616TIP3    H241044   0.535   6.387   0.628  1.6196 -0.1108 -2.5382
 5617TIP3   OH241045   2.850   2.780   2.772 -0.6130  0.7859 -0.5503
 5617TIP3    H141046   2.896   2.697   2.776  0.2729  1.3249  1.1609
 5617TIP3    H241047   2.759   2.756   2.753 -0.0820 -0.4265 -1.7602
 5618TIP3   OH241048   1.263   1.941   0.877  0.0022  0.5121 -0.2374
 5618TIP3    H141049   1.181   1.981   0.904 -0.7248 -1.3237  0.4633
 5618TIP3    H241050   1.240   1.890   0.799  0.3472 -0.4261  0.2625
 5619TIP3   OH241051   3.208   6.493   0.630 -0.4561  0.4363 -0.2124
 5619TIP3    H141052   3.297   6.467   0.604  0.2549  1.8619  0.6205
 5619TIP3    H241053   3.187   6.436   0.704 -0.2917 -0.0149 -0.5105
 5620TIP3   OH241054   3.425   2.971   2.931  0.9842  0.3787 -0.1897
 5620TIP3    H141055   3.440   2.879   2.953  1.0289  0.8315  1.8119
 5620TIP3    H241056   3.465   2.980   2.844 -0.9382 -1.9695 -1.4558
 5621TIP3   OH241057   6.661   6.462   3.675  0.2774 -0.2672 -0.0978
 5621TIP3    H141058   6.610   6.381   3.670  1.3792 -1.0468  0.7642
 5621TIP3    H241059   6.750   6.436   3.652  0.6338  0.7094  0.1196
 5622TIP3   OH241060   1.660   1.915   0.803 -0.2682 -0.4333  0.0745
 5622TIP3    H141061   1.586   1.855   0.801  0.6394 -1.6135  0.5602
 5622TIP3    H241062   1.635   1.982   0.866 -1.0814 -0.5777 -0.0828
 5623TIP3   OH241063   2.261   1.551   1.998 -0.7074  0.2376 -0.1081
 5623TIP3    H141064   2.188   1.505   2.039 -1.0564 -0.9059 -1.8902
 5623TIP3    H241065   2.284   1.497   1.922  1.6129  0.8791  0.0596
 5624TIP3   OH241066   6.346   6.224   2.009  0.0037  0.1247 -0.4571
 5624TIP3    H141067   6.372   6.205   1.919 -1.9860  1.6043 -1.4113
 5624TIP3    H241068   6.345   6.319   2.015 -2.1095  0.1098  0.4020
 5625TIP3   OH241069   5.654   4.110   2.695 -0.3178  0.8015 -0.3379
 5625TIP3    H141070   5.739   4.145   2.670  0.9435 -1.4508  0.5080
 5625TIP3    H241071   5.647   4.027   2.648 -2.1172  1.0004 -0.4889
 5626TIP3   OH241072   4.978   0.430   1.650 -0.2250 -0.1335 -0.4016
 5626TIP3    H141073   5.029   0.507   1.623 -1.8231  0.5682 -1.5502
 5626TIP3    H241074   4.910   0.421   1.583 -2.0544 -0.6037  1.4205
 5627TIP3   OH241075   3.587   0.274   3.304 -0.0762  0.2413 -0.1596
 5627TIP3    H141076   3.639   0.309   3.231  0.3952 -0.8544 -0.3564
 5627TIP3    H241077   3.503   0.251   3.264 -0.9937  2.5305  0.2604
 5628TIP3   OH241078   5.797   5.954   0.689  0.7850  0.0141  0.1757
 5628TIP3    H141079   5.889   5.934   0.706  0.5766 -0.4470  0.8052
 5628TIP3    H241080   5.770   5.889   0.624  0.2301 -1.5544  1.8892
 5629TIP3   OH241081   6.544   0.412   3.757 -0.1720 -0.2642  0.6046
 5629TIP3    H141082   6.536   0.507   3.761  2.1553 -0.0024  0.9246
 5629TIP3    H241083   6.560   0.393   3.664 -0.5831 -0.3465  0.5487
 5630TIP3   OH241084   5.139   6.580   1.899 -0.3619 -0.3970  0.1640
 5630TIP3    H141085   5.158   6.630   1.979 -0.0543  0.7740 -0.6121
 5630TIP3    H241086   5.081   6.637   1.848  0.6325 -0.4484 -1.0990
 5631TIP3   OH241087   2.346   4.743   1.395  0.0280 -0.0642  1.0540
 5631TIP3    H141088   2.261   4.779   1.371  0.0976 -1.6660 -2.1711
 5631TIP3    H241089   2.407   4.785   1.334  0.7924 -2.0991  0.3171
 5632TIP3   OH241090   3.357   2.242   3.642 -0.1594  0.4934  0.3890
 5632TIP3    H141091   3.304   2.165   3.621 -0.5258  0.9203 -0.2443
 5632TIP3    H241092   3.365   2.290   3.560  3.2457 -0.7818 -0.2088
 5633TIP3   OH241093   5.286   5.428   2.217  0.6075  0.1810 -0.4277
 5633TIP3    H141094   5.315   5.515   2.244 -0.5827  0.9373 -1.4653
 5633TIP3    H241095   5.207   5.413   2.270  1.1929 -0.5931  0.2560
 5634TIP3   OH241096   4.537   0.153   2.733 -0.1368  0.2261 -0.3388
 5634TIP3    H141097   4.538   0.142   2.828  0.1382 -1.1132 -0.4713
 5634TIP3    H241098   4.599   0.088   2.701  0.4029  1.2388 -1.3942
 5635TIP3   OH241099   6.218   1.510   0.968  0.4515  0.2888 -0.2933
 5635TIP3    H141100   6.207   1.549   0.881  0.4611  0.8143 -0.0604
 5635TIP3    H241101   6.230   1.584   1.027 -0.4520 -0.0208  0.3029
 5636TIP3   OH241102   5.763   5.730   1.731 -0.0368 -0.4212  0.0409
 5636TIP3    H141103   5.849   5.696   1.755 -0.1371  0.1489  1.3305
 5636TIP3    H241104   5.780   5.791   1.660  0.3337 -1.9405 -1.2173
 5637TIP3   OH241105   0.973   4.297   3.260  0.4084 -0.2258 -0.4829
 5637TIP3    H141106   0.900   4.279   3.200  1.7987  0.0074 -2.3282
 5637TIP3    H241107   0.945   4.259   3.344 -1.0532 -1.7849 -1.6006
 5638TIP3   OH241108   2.605   5.643   3.338 -0.0446  0.1601 -0.3308
 5638TIP3    H141109   2.639   5.557   3.362 -1.8247 -0.5859 -0.2994
 5638TIP3    H241110   2.672   5.681   3.282  0.1626 -1.8479 -1.5176
 5639TIP3   OH241111   0.069   5.978   2.834 -0.2023 -0.2062  0.1228
 5639TIP3    H141112   0.037   5.906   2.888 -1.0879 -0.5473 -0.8268
 5639TIP3    H241113   0.158   5.951   2.808 -1.4144 -2.2704 -2.3600
 5640TIP3   OH241114   6.476   4.271   0.708 -0.5424 -0.1210  0.2341
 5640TIP3    H141115   6.411   4.338   0.690  1.3001  1.9075  0.6915
 5640TIP3    H241116   6.449   4.232   0.791 -2.2238 -0.7652 -0.5666
 5641TIP3   OH241117   1.002   4.651   3.797 -0.0285  0.1891  0.5353
 5641TIP3    H141118   0.997   4.628   3.704 -1.4093 -0.1732  0.6812
 5641TIP3    H241119   1.091   4.626   3.822  1.0557  2.0509 -1.1039
 5642TIP3   OH241120   1.467   1.687   0.789 -0.7687  0.1830  0.1069
 5642TIP3    H141121   1.384   1.695   0.741 -1.0762 -1.6816  0.2629
 5642TIP3    H241122   1.442   1.653   0.875  0.2492 -1.9201 -0.3669
 5643TIP3   OH241123   0.740   2.027   1.089  0.3472  0.4765  0.0975
 5643TIP3    H141124   0.750   2.122   1.094  0.5672  0.4083  1.2971
 5643TIP3    H241125   0.822   1.992   1.123 -0.1725 -0.1181  0.7936
 5644TIP3   OH241126   2.798   5.658   0.882 -0.5597 -0.7108  0.1550
 5644TIP3    H141127   2.762   5.658   0.970  0.0663  1.2352  0.4601
 5644TIP3    H241128   2.891   5.639   0.894 -0.5071 -0.6186 -0.0914
 5645TIP3   OH241129   4.359   6.665   3.229  0.0733  0.6204 -0.0832
 5645TIP3    H141130   4.307   6.629   3.157 -0.1192  0.7105  0.0091
 5645TIP3    H241131   4.296   6.676   3.300  0.3710 -0.0166  0.2924
 5646TIP3   OH241132   4.863   0.798   3.403 -0.3441  0.2303 -0.4241
 5646TIP3    H141133   4.807   0.859   3.355 -0.1953 -0.8052 -1.9986
 5646TIP3    H241134   4.902   0.852   3.472 -2.4610  1.2021  0.1028
 5647TIP3   OH241135   0.404   1.463   2.822  0.0945  0.2042 -0.0499
 5647TIP3    H141136   0.402   1.521   2.898 -0.6198  1.3930 -0.9471
 5647TIP3    H241137   0.428   1.378   2.858  1.0790  1.0151  1.3177
 5648TIP3   OH241138   5.925   5.647   3.091 -0.2954  0.0391 -0.1361
 5648TIP3    H141139   5.947   5.644   2.998 -0.5513 -0.1250 -0.1921
 5648TIP3    H241140   5.893   5.559   3.111 -2.2577  0.6421 -0.3972
 5649TIP3   OH241141   1.977   6.071   2.380  0.0293 -0.2369  0.4855
 5649TIP3    H141142   1.948   6.035   2.464  1.0484 -0.5424  0.7179
 5649TIP3    H241143   1.930   6.154   2.372  2.0350  1.2799  2.7660
 5650TIP3   OH241144   3.990   2.205   1.063 -0.1566 -0.7439  0.0906
 5650TIP3    H141145   4.051   2.226   0.992  1.2281 -0.6753  1.2411
 5650TIP3    H241146   3.999   2.278   1.124 -0.6327 -1.2443  0.7739
 5651TIP3   OH241147   3.206   1.838   3.383  0.5048 -0.5165 -0.6472
 5651TIP3    H141148   3.190   1.833   3.289  0.1363  0.3547 -0.6414
 5651TIP3    H241149   3.296   1.808   3.395  1.2877  1.3650 -1.5215
 5652TIP3   OH241150   3.601   6.493   1.227  0.3897  0.3423  0.2791
 5652TIP3    H141151   3.616   6.422   1.164  2.6551  0.2635  0.8200
 5652TIP3    H241152   3.643   6.462   1.307 -0.8543  1.2305  1.3175
 5653TIP3   OH241153   5.243   4.772   2.127  0.2038 -0.3446  0.4565
 5653TIP3    H141154   5.307   4.777   2.056 -1.3501 -2.0383 -1.1905
 5653TIP3    H241155   5.284   4.716   2.193  1.1400  0.1178  0.2787
 5654TIP3   OH241156   0.552   6.450   2.520  0.0762 -0.2391 -0.3612
 5654TIP3    H141157   0.490   6.522   2.505  1.5609  0.7544 -2.0358
 5654TIP3    H241158   0.567   6.412   2.434  1.3996 -0.7686  0.0758
 5655TIP3   OH241159   0.304   5.598   2.898  0.4359 -0.1581  0.2150
 5655TIP3    H141160   0.211   5.578   2.891  0.6660 -0.9277 -0.9807
 5655TIP3    H241161   0.312   5.649   2.979 -0.9438 -0.4819  0.5782
 5656TIP3   OH241162   3.712   6.544   4.254  0.2961  0.4456 -0.9225
 5656TIP3    H141163   3.617   6.553   4.256  0.1895  0.6275 -3.3424
 5656TIP3    H241164   3.740   6.551   4.346 -1.9876  0.5398 -0.1907
 5657TIP3   OH241165   2.548   1.943   3.797  0.1204  0.2710  0.0482
 5657TIP3    H141166   2.580   2.005   3.862 -0.7068 -0.3585  1.0875
 5657TIP3    H241167   2.618   1.879   3.787  1.2144  1.5958 -1.4334
 5658TIP3   OH241168   0.381   0.965   2.488 -0.3641 -0.1088 -0.3312
 5658TIP3    H141169   0.476   0.949   2.482  0.1895  1.6188  2.1732
 5658TIP3    H241170   0.341   0.892   2.441  2.2196  0.0338 -3.0192
 5659TIP3   OH241171   5.036   1.552   2.914  0.4543  0.1017  0.2540
 5659TIP3    H141172   5.009   1.466   2.881  1.6159 -0.4725  0.7355
 5659TIP3    H241173   5.120   1.536   2.957  0.6563  1.4736  0.4215
 5660TIP3   OH241174   2.589   1.126   0.881  0.3946 -0.6488  0.3883
 5660TIP3    H141175   2.554   1.128   0.970  0.5593 -1.8070  0.5037
 5660TIP3    H241176   2.648   1.201   0.876 -0.9572  0.4617  0.6641
 5661TIP3   OH241177   2.651   3.570   1.021 -0.1851 -0.4318  0.4356
 5661TIP3    H141178   2.691   3.492   0.981  1.6269  1.0989 -0.9586
 5661TIP3    H241179   2.566   3.578   0.978  0.6739 -0.2587 -1.3257
 5662TIP3   OH241180   5.344   5.525   2.840  0.2003  0.3051  0.1110
 5662TIP3    H141181   5.339   5.505   2.746  0.6020  2.2907 -0.4031
 5662TIP3    H241182   5.415   5.469   2.873 -0.2942 -0.8022 -0.6452
 5663TIP3   OH241183   2.396   6.506   3.560 -0.0978  0.0162  0.6558
 5663TIP3    H141184   2.426   6.597   3.562  2.4075 -0.6933 -0.4523
 5663TIP3    H241185   2.418   6.472   3.647 -1.9761  0.6630  1.4423
 5664TIP3   OH241186   1.049   5.013   1.502 -0.3725  0.6128  0.1151
 5664TIP3    H141187   1.133   4.979   1.473 -0.0423  0.4104  1.2632
 5664TIP3    H241188   0.985   4.949   1.470 -0.0690  0.6174 -0.5147
 5665TIP3   OH241189   3.513   5.414   4.489  0.8617 -0.0522  0.6355
 5665TIP3    H141190   3.580   5.346   4.501  0.5410 -0.4116  0.4208
 5665TIP3    H241191   3.463   5.412   4.571  0.0827 -0.9411  0.1630
 5666TIP3   OH241192   6.655   0.732   2.197 -0.6770  0.1981 -0.0727
 5666TIP3    H141193   6.643   0.638   2.210  0.0667  0.1146  0.0123
 5666TIP3    H241194   6.638   0.770   2.283  0.7632 -0.0296  0.3300
 5667TIP3   OH241195   0.532   4.450   1.101  0.0750 -0.5246  0.6396
 5667TIP3    H141196   0.606   4.475   1.156  0.5007  0.0332 -0.1740
 5667TIP3    H241197   0.456   4.485   1.146  0.5981  1.8887 -0.2068
 5668TIP3   OH241198   4.620   0.486   2.050 -0.7545  0.2786 -0.1695
 5668TIP3    H141199   4.705   0.484   2.006 -0.6648 -1.2483  0.0164
 5668TIP3    H241200   4.573   0.410   2.014 -1.2662 -0.0870  1.2081
 5669TIP3   OH241201   5.539   5.343   1.956 -0.0719  0.3132  0.2330
 5669TIP3    H141202   5.592   5.360   2.034 -0.4360  1.7987  0.1840
 5669TIP3    H241203   5.532   5.428   1.912 -0.2507 -0.4067 -1.1906
 5670TIP3   OH241204   3.504   5.660   1.196 -0.4189  0.1128 -0.4382
 5670TIP3    H141205   3.507   5.605   1.118 -0.1170 -0.0692 -0.2986
 5670TIP3    H241206   3.463   5.606   1.263  0.6205 -0.2404 -0.0689
 5671TIP3   OH241207   2.407   5.629   3.605  0.4678 -0.0330  0.0739
 5671TIP3    H141208   2.444   5.697   3.548  0.0130 -1.2160 -1.7132
 5671TIP3    H241209   2.432   5.547   3.563  0.0711 -0.9611  1.5957
 5672TIP3   OH241210   3.487   5.683   1.989  0.4418  0.0916 -0.8358
 5672TIP3    H141211   3.439   5.607   2.022 -0.7417  1.4751  0.8305
 5672TIP3    H241212   3.569   5.682   2.039  0.1634  0.2367 -0.3708
 5673TIP3   OH241213   3.500   0.809   1.130  0.0699 -0.6636  0.0426
 5673TIP3    H141214   3.562   0.738   1.109 -0.9375 -2.0551  1.5395
 5673TIP3    H241215   3.523   0.836   1.219 -1.3702 -1.1446  0.5903
 5674TIP3   OH241216   6.159   5.895   1.153 -0.0167 -0.3690  0.3779
 5674TIP3    H141217   6.198   5.923   1.236  0.2079  0.7658 -0.0882
 5674TIP3    H241218   6.064   5.905   1.166  0.0330  0.0861  0.4088
 5675TIP3   OH241219   4.338   5.614   3.556  0.4943 -0.2155  0.1202
 5675TIP3    H141220   4.372   5.682   3.497  1.4950  0.1005  1.0387
 5675TIP3    H241221   4.409   5.552   3.565  0.0563 -0.6920  0.3522
 5676TIP3   OH241222   2.731   6.359   2.143 -0.1347  0.9574  0.2969
 5676TIP3    H141223   2.673   6.286   2.120 -0.4586  1.5944 -0.9762
 5676TIP3    H241224   2.811   6.343   2.093  0.0117  1.1706  0.4606
 5677TIP3   OH241225   1.991   4.617   1.374  0.3141  0.3647  0.2364
 5677TIP3    H141226   1.977   4.546   1.311 -2.4986 -0.3694  1.5059
 5677TIP3    H241227   1.934   4.688   1.342  0.7159  0.8771  0.6467
 5678TIP3   OH241228   6.372   0.731   1.501  0.0229  0.5777 -0.3327
 5678TIP3    H141229   6.335   0.795   1.560  0.1384  0.8935 -0.6019
 5678TIP3    H241230   6.449   0.774   1.464  0.2606  0.1854 -0.3042
 5679TIP3   OH241231   2.837   0.485   0.608  0.0518  0.1166  0.3573
 5679TIP3    H141232   2.902   0.506   0.541 -0.6235  1.5020  0.1069
 5679TIP3    H241233   2.881   0.422   0.666  1.0228 -0.2558 -0.7455
 5680TIP3   OH241234   0.552   2.939   2.104  0.1262  0.1066  0.5758
 5680TIP3    H141235   0.531   2.952   2.011  0.2644 -0.0943  0.5152
 5680TIP3    H241236   0.628   2.996   2.119  0.8702 -0.7658  0.2546
 5681TIP3   OH241237   1.004   3.547   1.894 -0.3091  0.4363 -0.5673
 5681TIP3    H141238   1.080   3.587   1.852 -0.7778  0.6035 -1.2742
 5681TIP3    H241239   1.036   3.517   1.979  0.0561  2.3427  0.0164
 5682TIP3   OH241240   2.677   6.546   1.933 -0.1100  0.2990  0.5097
 5682TIP3    H141241   2.649   6.490   2.005 -0.1812  0.3107  0.4909
 5682TIP3    H241242   2.673   6.490   1.856 -0.8589  0.5264  0.3801
 5683TIP3   OH241243   2.705   2.987   1.176 -0.0440  0.0207  0.4850
 5683TIP3    H141244   2.757   2.950   1.104 -2.3595 -1.1187 -0.7312
 5683TIP3    H241245   2.769   3.016   1.240  2.0704 -1.4474 -0.8416
 5684TIP3   OH241246   1.354   5.981   2.226 -0.3101  0.1932  0.6266
 5684TIP3    H141247   1.374   5.919   2.296  0.6124 -0.5039 -0.2439
 5684TIP3    H241248   1.427   6.043   2.227 -0.9048  0.9131  1.0638
 5685TIP3   OH241249   4.961   6.730   2.864 -0.0766 -0.7373  0.3385
 5685TIP3    H141250   4.998   6.787   2.930 -0.4170  0.9209 -0.8531
 5685TIP3    H241251   5.031   6.667   2.845  0.7463  0.0169  0.8100
 5686TIP3   OH241252   4.268   3.127   0.554  0.4420 -0.0355 -0.1284
 5686TIP3    H141253   4.349   3.170   0.582  0.7755 -0.3702 -0.5573
 5686TIP3    H241254   4.200   3.164   0.611  1.1430 -0.9578  1.3856
 5687TIP3   OH241255   3.908   1.277   1.230 -0.4837  0.3223  0.0987
 5687TIP3    H141256   4.002   1.262   1.223 -0.2932  1.3134  0.3582
 5687TIP3    H241257   3.900   1.359   1.279 -1.4788  0.3577 -0.0955
 5688TIP3   OH241258   6.785   2.603   2.873 -0.3730 -0.3680 -0.4578
 5688TIP3    H141259   6.725   2.597   2.798 -1.7345 -0.9228  0.6135
 5688TIP3    H241260   6.837   2.523   2.868 -1.2896 -1.0036 -0.1743
 5689TIP3   OH241261   4.130   4.564   1.717  0.3246  0.6681  0.2624
 5689TIP3    H141262   4.156   4.594   1.630 -0.0892  0.1742 -0.0433
 5689TIP3    H241263   4.099   4.642   1.762  0.7323  0.9627  0.0357
 5690TIP3   OH241264   5.597   0.136   2.704  0.1946  0.1695 -0.5853
 5690TIP3    H141265   5.532   0.203   2.725  0.9626  1.2521 -1.5715
 5690TIP3    H241266   5.674   0.160   2.755  1.0806  1.1304 -2.3078
 5691TIP3   OH241267   1.716   6.513   3.321 -0.0173 -0.9086  0.4405
 5691TIP3    H141268   1.749   6.583   3.265  0.7965 -0.0869  1.8568
 5691TIP3    H241269   1.788   6.450   3.326 -1.6449 -3.3423 -2.9559
 5692TIP3   OH241270   0.829   3.414   2.507  0.5203 -0.2368 -0.1190
 5692TIP3    H141271   0.830   3.488   2.446  2.3280  0.0479  0.2123
 5692TIP3    H241272   0.886   3.349   2.467 -1.4573 -1.7410 -0.6741
 5693TIP3   OH241273   3.198   6.200   3.585  0.1326 -0.1780 -0.5462
 5693TIP3    H141274   3.247   6.272   3.625 -0.4903  0.6019 -1.1511
 5693TIP3    H241275   3.146   6.164   3.657 -0.3406  0.6593 -0.4574
 5694TIP3   OH241276   3.453   4.972   2.581 -0.9763  0.3023 -0.3723
 5694TIP3    H141277   3.408   5.054   2.561 -3.5043 -1.0870 -0.8519
 5694TIP3    H241278   3.425   4.951   2.670 -0.2463 -0.0038 -0.2069
 5695TIP3   OH241279   1.417   4.638   0.937  0.1171 -0.0679 -0.4323
 5695TIP3    H141280   1.466   4.718   0.920 -0.9510  0.5095 -0.8092
 5695TIP3    H241281   1.337   4.646   0.886 -0.9760 -0.4233  1.1364
 5696TIP3   OH241282   6.416   3.665   2.467 -0.1912  0.1299  0.0061
 5696TIP3    H141283   6.428   3.570   2.459 -2.8753 -0.2913  0.0080
 5696TIP3    H241284   6.368   3.676   2.549 -0.2648  1.4675 -0.2004
 5697TIP3   OH241285   3.057   1.776   3.763  0.2043 -0.0556 -0.3184
 5697TIP3    H141286   3.059   1.687   3.798  0.7239 -0.1247 -0.5140
 5697TIP3    H241287   3.062   1.833   3.839  1.9799 -0.2017 -0.2918
 5698TIP3   OH241288   4.534   3.131   1.684  0.2073  0.0676 -0.3427
 5698TIP3    H141289   4.591   3.162   1.754 -0.3336  2.1635 -0.7625
 5698TIP3    H241290   4.445   3.139   1.720  0.0233 -0.6795 -0.6112
 5699TIP3   OH241291   0.710   0.267   1.410 -0.4851  0.9395 -0.8725
 5699TIP3    H141292   0.729   0.188   1.359 -0.6025 -0.7198  1.4691
 5699TIP3    H241293   0.652   0.319   1.354  0.6320  0.0219 -3.0073
 5700TIP3   OH241294   3.969   6.058   1.118  0.8648 -0.5858 -0.4881
 5700TIP3    H141295   3.992   6.147   1.145  1.7649 -0.9409 -0.0478
 5700TIP3    H241296   3.987   6.005   1.195  0.0277 -1.1169 -0.6449
 5701TIP3   OH241297   6.309   5.852   0.924 -0.4612  0.0745 -0.3359
 5701TIP3    H141298   6.339   5.761   0.918  0.9724  0.5856 -2.0439
 5701TIP3    H241299   6.256   5.855   1.003 -2.3081 -2.7358 -1.2941
 5702TIP3   OH241300   4.763   2.494   2.698 -0.0431  0.3614  0.1530
 5702TIP3    H141301   4.817   2.573   2.697  1.8101 -0.8432 -0.2616
 5702TIP3    H241302   4.674   2.526   2.685  0.6546  2.3748 -0.0786
 5703TIP3   OH241303   3.385   3.615   3.135 -0.3437 -0.3132  0.3323
 5703TIP3    H141304   3.465   3.573   3.102 -0.0333 -0.2603  1.0065
 5703TIP3    H241305   3.393   3.610   3.230 -0.6879  0.5526  0.4105
 5704TIP3   OH241306   4.356   4.642   2.764 -0.1218 -0.4746 -0.4437
 5704TIP3    H141307   4.281   4.639   2.705 -0.4365  0.5674 -0.1230
 5704TIP3    H241308   4.360   4.734   2.793  1.6457 -0.3715 -0.9266
 5705TIP3   OH241309   3.151   0.483   0.590 -0.0404  0.1375  0.4788
 5705TIP3    H141310   3.165   0.562   0.643  1.3693  0.7781 -0.7651
 5705TIP3    H241311   3.131   0.516   0.503 -1.7304 -0.9015  0.4301
 5706TIP3   OH241312   1.579   3.775   3.584 -1.0070 -0.0188 -0.3051
 5706TIP3    H141313   1.567   3.867   3.607 -1.2372  0.0862 -0.8210
 5706TIP3    H241314   1.655   3.747   3.635 -1.2956  0.2923  0.3080
 5707TIP3   OH241315   1.434   4.615   3.486 -0.6516  0.4666  0.5413
 5707TIP3    H141316   1.366   4.563   3.528  0.3960 -0.3263  1.3208
 5707TIP3    H241317   1.515   4.587   3.529  0.0043  2.4250  0.6699
 5708TIP3   OH241318   6.666   5.584   2.745  0.1041 -0.2186 -0.1493
 5708TIP3    H141319   6.678   5.551   2.656 -0.4940 -2.4872  0.5535
 5708TIP3    H241320   6.754   5.592   2.780  0.2827 -0.9867 -0.3962
 5709TIP3   OH241321   3.096   4.513   0.709 -0.4302  1.0458  0.4009
 5709TIP3    H141322   3.012   4.559   0.716 -0.7465  0.5623 -0.1472
 5709TIP3    H241323   3.162   4.581   0.723 -0.9103  1.4506  0.7220
 5710TIP3   OH241324   0.300   6.211   1.454 -0.4499 -0.0908  0.1801
 5710TIP3    H141325   0.215   6.252   1.472 -1.5780 -2.5441  0.8707
 5710TIP3    H241326   0.292   6.178   1.364  0.7275  1.7426 -0.6514
 5711TIP3   OH241327   0.301   5.403   2.475  0.1360 -0.2015  0.0287
 5711TIP3    H141328   0.289   5.413   2.380  2.5554  0.9800 -0.2373
 5711TIP3    H241329   0.311   5.309   2.488  0.6162 -0.3154 -1.0331
 5712TIP3   OH241330   0.422   2.372   2.497  0.4908 -0.2444 -0.7547
 5712TIP3    H141331   0.379   2.450   2.464  0.5209  0.2347  0.2994
 5712TIP3    H241332   0.499   2.361   2.442  0.6023  0.5956 -0.7729
 5713TIP3   OH241333   3.261   5.222   4.089 -0.1260 -0.1347 -0.5293
 5713TIP3    H141334   3.206   5.163   4.141  0.1945 -0.2224 -0.2831
 5713TIP3    H241335   3.294   5.286   4.153 -0.3424  0.2192 -0.7658
 5714TIP3   OH241336   1.453   6.193   0.774  0.2262 -0.0312 -0.4593
 5714TIP3    H141337   1.448   6.270   0.716  0.5644  0.7208  0.4883
 5714TIP3    H241338   1.362   6.176   0.799  0.3829  2.8308  2.8095
 5715TIP3   OH241339   2.813   5.791   1.624 -0.3076  0.4846 -0.5349
 5715TIP3    H141340   2.734   5.800   1.677  0.4396 -0.8149  0.8604
 5715TIP3    H241341   2.794   5.719   1.564 -0.2755  0.3399 -0.3712
 5716TIP3   OH241342   0.217   4.493   3.604 -0.1888  0.3369  0.0910
 5716TIP3    H141343   0.219   4.410   3.652  1.9419  0.1625 -0.1818
 5716TIP3    H241344   0.240   4.469   3.514  1.4035  1.2891  0.2064
 5717TIP3   OH241345   1.862   5.975   1.803  0.7829 -0.1685  0.2210
 5717TIP3    H141346   1.909   6.056   1.783  1.0296 -0.1546  0.8381
 5717TIP3    H241347   1.800   5.999   1.872  0.3346 -0.3398 -0.1149
 5718TIP3   OH241348   2.427   3.579   0.844 -0.1322 -0.0960 -0.7080
 5718TIP3    H141349   2.371   3.650   0.813 -1.7521 -1.0930 -0.1712
 5718TIP3    H241350   2.370   3.525   0.898  1.0464 -1.8349 -1.1266
 5719TIP3   OH241351   5.646   2.217   1.928 -0.7113 -0.0821 -0.1492
 5719TIP3    H141352   5.673   2.128   1.903 -0.8900 -0.4704  0.9767
 5719TIP3    H241353   5.556   2.207   1.957 -0.6494  0.4222  0.2200
 5720TIP3   OH241354   3.181   1.772   2.670 -0.1050  0.7536 -0.1274
 5720TIP3    H141355   3.150   1.803   2.756  0.7139  2.3304 -0.3727
 5720TIP3    H241356   3.100   1.755   2.621 -0.6145 -1.1169  1.2300
 5721TIP3   OH241357   0.434   2.389   2.790  0.3963  0.2554  0.3707
 5721TIP3    H141358   0.495   2.441   2.843  1.3761  1.1348 -1.5101
 5721TIP3    H241359   0.428   2.436   2.707 -0.8785 -1.1865 -0.4127
 5722TIP3   OH241360   0.171   2.272   2.582  0.0674  0.2161  0.4815
 5722TIP3    H141361   0.256   2.306   2.555  0.0547 -0.9423 -1.1878
 5722TIP3    H241362   0.160   2.192   2.531 -2.1659  0.4949  0.4093
 5723TIP3   OH241363   4.436   0.809   1.786  0.2477 -0.2458 -0.0579
 5723TIP3    H141364   4.472   0.739   1.732  0.4176 -0.4276  0.2908
 5723TIP3    H241365   4.512   0.851   1.825  0.1469  0.1601 -0.2988
 5724TIP3   OH241366   6.276   5.474   2.688  0.1071 -0.0939  0.4403
 5724TIP3    H141367   6.211   5.473   2.758 -0.1232  0.6092  0.2468
 5724TIP3    H241368   6.356   5.441   2.729  0.2520  1.2349  1.3240
 5725TIP3   OH241369   5.562   5.984   1.228 -0.5697  0.2111 -0.0540
 5725TIP3    H141370   5.593   6.071   1.203 -2.0353  0.6099 -0.5857
 5725TIP3    H241371   5.547   5.991   1.322 -1.7408  0.8992 -0.2719
 5726TIP3   OH241372   5.180   1.782   4.229 -0.1976 -0.3475  0.1396
 5726TIP3    H141373   5.240   1.708   4.231  0.9812  0.5484 -0.8054
 5726TIP3    H241374   5.229   1.855   4.266 -1.0740  0.1561  0.3559
 5727TIP3   OH241375   5.657   3.137   2.132  0.2950  0.0363  0.4586
 5727TIP3    H141376   5.673   3.166   2.042 -0.2357  0.9354  0.6422
 5727TIP3    H241377   5.562   3.139   2.141  0.3096 -0.6779  0.8455
 5728TIP3   OH241378   2.134   2.436   0.487 -0.3204  0.1457 -0.5015
 5728TIP3    H141379   2.064   2.396   0.538 -0.6705  1.4658  0.0933
 5728TIP3    H241380   2.101   2.439   0.398 -0.4975 -0.3932 -0.4568
 5729TIP3   OH241381   3.894   1.329   1.626  0.1227  0.0535 -0.3155
 5729TIP3    H141382   3.942   1.404   1.591 -0.9624  0.2313 -1.5017
 5729TIP3    H241383   3.831   1.307   1.557 -0.4300 -1.1505  0.5451
 5730TIP3   OH241384   3.432   2.506   1.359 -0.2161 -0.0105  0.0089
 5730TIP3    H141385   3.450   2.418   1.390  1.0442  1.3435  3.5919
 5730TIP3    H241386   3.339   2.505   1.336 -0.2994 -2.1529  0.2660
 5731TIP3   OH241387   4.729   2.051   1.158 -0.1141 -0.2794  0.3354
 5731TIP3    H141388   4.668   1.998   1.209 -0.6394 -1.0231 -1.0077
 5731TIP3    H241389   4.673   2.107   1.104  0.3578 -0.9258 -0.8665
 5732TIP3   OH241390   6.754   5.156   1.036 -0.0585  0.1132  0.1059
 5732TIP3    H141391   6.775   5.078   0.985  2.9576 -1.0228  2.6967
 5732TIP3    H241392   6.840   5.196   1.054 -1.3829  3.2452  0.1541
 5733TIP3   OH241393   0.172   4.211   2.626  0.0956  0.0357  0.2687
 5733TIP3    H141394   0.202   4.130   2.668 -0.5416 -1.0525 -1.2759
 5733TIP3    H241395   0.083   4.223   2.659  0.9740  1.4777  2.3344
 5734TIP3   OH241396   6.646   6.074   2.225  0.2137  0.2794 -0.2894
 5734TIP3    H141397   6.719   6.012   2.217 -0.5032 -0.7397  0.7480
 5734TIP3    H241398   6.688   6.160   2.231  1.4055 -0.3526  1.1770
 5735TIP3   OH241399   6.598   3.791   2.689  0.4010  0.0036  0.1327
 5735TIP3    H141400   6.662   3.758   2.626  0.1282 -1.0567  0.4052
 5735TIP3    H241401   6.634   3.768   2.775  1.0875  1.9909  0.4477
 5736TIP3   OH241402   2.525   5.474   2.123 -0.3861 -0.4856  0.5820
 5736TIP3    H141403   2.462   5.402   2.118  1.0285 -1.8336  1.4408
 5736TIP3    H241404   2.497   5.525   2.198 -2.0882  0.5939 -0.7178
 5737TIP3   OH241405   3.228   4.161   2.073 -0.6504  0.1685 -1.1952
 5737TIP3    H141406   3.278   4.095   2.120 -1.4159  1.0496  1.0069
 5737TIP3    H241407   3.232   4.238   2.129 -1.1476  1.5055 -2.8928
 5738TIP3   OH241408   5.836   6.650   0.908  0.4419 -0.2598 -1.0435
 5738TIP3    H141409   5.756   6.614   0.871 -0.2776 -0.8244  0.9132
 5738TIP3    H241410   5.808   6.732   0.949  0.8487 -0.4539 -0.3585
 5739TIP3   OH241411   5.623   1.209   2.275  0.6232 -0.2643 -0.1847
 5739TIP3    H141412   5.609   1.257   2.357  0.6039  0.8085 -0.7915
 5739TIP3    H241413   5.568   1.255   2.211 -1.0386 -2.3705 -0.3849
 5740TIP3   OH241414   5.609   6.489   0.870  0.6071 -0.5060 -0.5498
 5740TIP3    H141415   5.518   6.470   0.893  0.9413 -0.1922  1.0958
 5740TIP3    H241416   5.647   6.403   0.851  0.1036 -0.6868 -0.7636
 5741TIP3   OH241417   0.807   1.852   3.315  0.2788  0.5828 -0.6629
 5741TIP3    H141418   0.730   1.820   3.268  0.6498 -1.2195 -0.1460
 5741TIP3    H241419   0.867   1.882   3.246 -1.0011  2.4152 -1.0464
 5742TIP3   OH241420   4.335   2.763   3.664  0.0587  0.6956 -0.1021
 5742TIP3    H141421   4.367   2.842   3.621 -0.8344  1.2512  0.2067
 5742TIP3    H241422   4.313   2.792   3.753  1.0615 -0.2316  0.4645
 5743TIP3   OH241423   3.354   6.540   9.582 -0.2656  0.6330 -0.8241
 5743TIP3    H141424   3.420   6.602   9.613 -1.3722  0.6561  1.7567
 5743TIP3    H241425   3.380   6.520   9.492  2.0590  2.1895 -0.5865
 5744TIP3   OH241426   2.489   4.636   3.611  0.5465  0.4582 -0.3593
 5744TIP3    H141427   2.509   4.550   3.574 -1.6391 -0.4400  0.3675
 5744TIP3    H241428   2.482   4.693   3.534 -0.1129 -0.5096 -1.0546
 5745TIP3   OH241429   0.630   5.977   0.725 -0.0247 -0.1316  0.4455
 5745TIP3    H141430   0.714   6.016   0.748  0.5218 -0.1148 -1.4086
 5745TIP3    H241431   0.565   6.029   0.773  0.8807  1.2544  0.2187
 5746TIP3   OH241432   2.970   1.157   0.906 -0.1986  0.0929 -0.6344
 5746TIP3    H141433   2.955   1.066   0.931  0.0132  0.0396 -0.7026
 5746TIP3    H241434   2.903   1.206   0.955 -1.1740 -0.2245 -1.6118
 5747TIP3   OH241435   6.083   1.939   2.607  0.1942  0.5185 -0.2294
 5747TIP3    H141436   6.042   1.904   2.528 -0.6306  0.5885  0.1600
 5747TIP3    H241437   6.166   1.892   2.614  0.3418  0.6080 -1.2114
 5748TIP3   OH241438   1.940   5.706   0.953 -0.5554 -0.1951  0.4077
 5748TIP3    H141439   1.890   5.720   0.872  0.6414  0.4142 -0.2488
 5748TIP3    H241440   1.896   5.761   1.018 -1.5279 -0.6940  0.1913
 5749TIP3   OH241441   4.615   1.226   3.378 -0.0132 -0.0460 -0.1046
 5749TIP3    H141442   4.545   1.211   3.314 -0.9120 -1.3957  1.1082
 5749TIP3    H241443   4.695   1.201   3.333 -0.6951 -1.5545 -0.5432
 5750TIP3   OH241444   3.351   0.587   2.379 -0.4191 -0.0299  0.4374
 5750TIP3    H141445   3.282   0.583   2.313 -0.3747 -0.0033  0.3887
 5750TIP3    H241446   3.305   0.583   2.463 -0.4602 -0.3028  0.4031
 5751TIP3   OH241447   6.538   2.997   2.368 -0.5791  0.5634  0.1230
 5751TIP3    H141448   6.541   2.930   2.299  0.6539  1.1186 -0.3913
 5751TIP3    H241449   6.599   2.964   2.435 -0.4244  0.8847  0.1393
 5752TIP3   OH241450   5.459   1.912   0.882 -0.4716  0.4202 -0.0555
 5752TIP3    H141451   5.402   1.870   0.947  0.7232 -0.5430  0.4051
 5752TIP3    H241452   5.421   1.999   0.870  0.4346  1.5207  3.5829
 5753TIP3   OH241453   3.248   5.451   1.822  0.4638 -0.1564  0.3524
 5753TIP3    H141454   3.267   5.461   1.916  0.6508 -1.3124  0.4522
 5753TIP3    H241455   3.185   5.380   1.818 -0.1029  0.3699 -0.3659
 5754TIP3   OH241456   2.012   3.256   1.729  0.1510 -0.1728 -0.7167
 5754TIP3    H141457   1.997   3.247   1.634  0.3950 -2.5177 -0.5836
 5754TIP3    H241458   2.101   3.224   1.742  0.2038  0.3670  0.3029
 5755TIP3   OH241459   3.591   3.106   2.432 -0.7628  0.2303  0.1281
 5755TIP3    H141460   3.501   3.132   2.450 -0.6267  0.2970  0.7211
 5755TIP3    H241461   3.613   3.045   2.502 -0.3763  0.1424 -0.0659
 5756TIP3   OH241462   5.471   1.199   1.526 -0.0590  0.8450  1.0435
 5756TIP3    H141463   5.440   1.120   1.483  0.6454  0.0382  1.9792
 5756TIP3    H241464   5.563   1.182   1.545  0.1161  1.9012  1.2485
 5757TIP3   OH241465   3.854   3.509   3.191  0.6146 -0.5063  0.2075
 5757TIP3    H141466   3.847   3.577   3.124  2.7805 -0.6634 -0.2408
 5757TIP3    H241467   3.886   3.432   3.145  0.6665 -1.0876  1.1708
 5758TIP3   OH241468   6.374   6.115   1.067  0.6663 -0.0085  0.9102
 5758TIP3    H141469   6.287   6.141   1.099  1.0663 -0.1055  2.1041
 5758TIP3    H241470   6.364   6.023   1.044 -0.1577  0.5324 -1.2369
 5759TIP3   OH241471   6.237   2.457   2.599 -0.7052 -0.4921  0.9441
 5759TIP3    H141472   6.317   2.442   2.548 -2.4769 -1.2067 -1.8868
 5759TIP3    H241473   6.205   2.369   2.618 -2.3371 -0.3130 -0.6865
 5760TIP3   OH241474   3.657   4.520   2.981 -0.2515 -0.6583 -0.0723
 5760TIP3    H141475   3.591   4.464   3.022 -1.8415  1.4145  0.3815
 5760TIP3    H241476   3.724   4.532   3.048 -0.5820 -0.8930  0.3032
 5761TIP3   OH241477   2.814   1.318   2.818 -0.0759 -0.3983 -0.2604
 5761TIP3    H141478   2.758   1.258   2.768  0.5172  0.1148 -1.5680
 5761TIP3    H241479   2.863   1.366   2.752  1.0010  0.0534  0.8361
 5762TIP3   OH241480   3.429   2.780   1.471  0.2487  0.2126 -0.2541
 5762TIP3    H141481   3.430   2.689   1.439  0.9531 -0.2267  0.9311
 5762TIP3    H241482   3.522   2.804   1.475  0.1648  0.3910  1.0129
 5763TIP3   OH241483   6.649   6.692   2.535 -0.4896  0.3565 -0.9768
 5763TIP3    H141484   6.737   6.708   2.500  0.2629 -1.9117 -0.3704
 5763TIP3    H241485   6.590   6.736   2.475  1.0334  1.6229 -1.6221
 5764TIP3   OH241486   0.006   1.966   2.657 -0.3621 -1.0484  0.1507
 5764TIP3    H141487   0.049   2.011   2.730 -0.8894  0.9816 -0.7341
 5764TIP3    H241488   0.066   1.977   2.584 -2.0271  1.3349 -0.9596
 5765TIP3   OH241489   5.205   5.712   2.121 -0.2690  0.7445 -0.0819
 5765TIP3    H141490   5.165   5.719   2.208 -0.8518  1.6242 -0.4136
 5765TIP3    H241491   5.132   5.690   2.063  0.1067  0.2402 -0.3667
 5766TIP3   OH241492   1.819   3.506   0.725  0.5597 -0.2965  0.0776
 5766TIP3    H141493   1.730   3.486   0.698  1.4640 -2.9219 -1.3546
 5766TIP3    H241494   1.870   3.504   0.644  2.2657 -1.2739  1.1013
 5767TIP3   OH241495   2.828   5.981   1.280  0.5204 -0.2741 -0.0540
 5767TIP3    H141496   2.766   5.955   1.212  1.8381  0.2272 -1.5051
 5767TIP3    H241497   2.900   6.022   1.232  2.3007 -1.4201  1.4928
 5768TIP3   OH241498   0.093   3.753   2.059  0.5587  0.0776  0.4080
 5768TIP3    H141499   0.020   3.814   2.049 -0.2219 -0.9021 -0.0736
 5768TIP3    H241500   0.169   3.801   2.028 -0.3411  0.1919 -1.8403
 5769TIP3   OH241501   1.913   0.098   1.661 -0.7892 -0.3532  0.3120
 5769TIP3    H141502   1.858   0.089   1.583 -0.6440 -1.7160  0.3388
 5769TIP3    H241503   1.990   0.145   1.630 -0.4612 -1.3939 -0.5453
 5770TIP3   OH241504   3.529   3.988   4.096  0.2373  0.4033  0.7951
 5770TIP3    H141505   3.613   3.950   4.123 -0.0146  0.1678  1.2486
 5770TIP3    H241506   3.553   4.069   4.051  0.6853  0.5687  1.3225
 5771TIP3   OH241507   2.670   2.581   1.337 -0.3912  0.5785  0.1954
 5771TIP3    H141508   2.587   2.535   1.325 -1.0906  1.8212  0.1347
 5771TIP3    H241509   2.678   2.592   1.432  1.1489 -2.0344  0.4924
 5772TIP3   OH241510   2.075   2.243   1.109  0.3186 -0.1334 -0.1770
 5772TIP3    H141511   2.150   2.206   1.154 -1.7246  0.2479  4.0492
 5772TIP3    H241512   2.030   2.167   1.071 -0.6596 -1.4268  3.2185
 5773TIP3   OH241513   1.839   5.596   3.021  0.2681 -0.4446  0.3559
 5773TIP3    H141514   1.828   5.510   3.063 -2.1880  0.6248  2.1580
 5773TIP3    H241515   1.931   5.599   2.997  0.2752 -3.9283 -0.6440
 5774TIP3   OH241516   1.409   0.574   3.587 -0.3988 -0.2653  0.5050
 5774TIP3    H141517   1.326   0.531   3.566 -0.9439  0.5022  1.0757
 5774TIP3    H241518   1.404   0.593   3.680 -0.0249  0.7331  0.3345
 5775TIP3   OH241519   5.475   0.399   1.567 -0.5413 -0.0284  0.3195
 5775TIP3    H141520   5.400   0.343   1.586  0.4448 -1.4130  0.2434
 5775TIP3    H241521   5.531   0.346   1.511  0.0900  1.3108 -0.3421
 5776TIP3   OH241522   2.794   3.896   1.239 -0.6320 -0.0882 -0.1071
 5776TIP3    H141523   2.757   3.947   1.310 -0.8763 -1.2857  0.6585
 5776TIP3    H241524   2.725   3.893   1.173 -0.4510  0.9164 -0.3560
 5777TIP3   OH241525   1.951   0.105   3.511  0.3110  0.4358 -0.0532
 5777TIP3    H141526   1.952   0.129   3.419  3.1507  1.3251  0.1270
 5777TIP3    H241527   1.979   0.184   3.557  1.2697 -0.6601  1.3312
 5778TIP3   OH241528   3.142   2.544   3.571  0.2859 -0.3812  0.1347
 5778TIP3    H141529   3.215   2.528   3.511  0.5515  0.9645  0.0838
 5778TIP3    H241530   3.092   2.462   3.569  0.3816 -0.4338 -1.7849
 5779TIP3   OH241531   4.516   0.479   2.796  1.1065  0.3873 -0.0503
 5779TIP3    H141532   4.502   0.398   2.846  3.9646 -1.1863 -1.5611
 5779TIP3    H241533   4.583   0.526   2.846 -0.4978  1.9480  0.7939
 5780TIP3   OH241534   1.043   1.001   0.557 -0.0289  0.4806  0.2361
 5780TIP3    H141535   1.087   0.919   0.532 -1.5941 -0.1482 -0.5985
 5780TIP3    H241536   0.951   0.985   0.537 -0.9107  1.2268  3.1948
 5781TIP3   OH241537   1.771   2.566   1.338 -0.1492  0.0490  0.0853
 5781TIP3    H141538   1.679   2.543   1.351  0.5137 -3.1884 -0.2945
 5781TIP3    H241539   1.772   2.617   1.257 -1.4897 -0.7780 -0.4743
 5782TIP3   OH241540   2.091   4.694   2.603  0.0393 -0.0765  0.4445
 5782TIP3    H141541   2.179   4.726   2.622  0.2020 -0.7832  0.9274
 5782TIP3    H241542   2.050   4.764   2.553  0.8006  0.3535  0.4112
 5783TIP3   OH241543   1.843   4.721   1.713 -0.8669 -0.4052  0.1667
 5783TIP3    H141544   1.839   4.712   1.808 -0.2387  1.0757  0.3550
 5783TIP3    H241545   1.814   4.811   1.696  1.5775  0.2949 -0.7871
 5784TIP3   OH241546   0.143   2.404   3.481  0.0128  0.5016  0.3364
 5784TIP3    H141547   0.200   2.415   3.557 -1.5135  0.6208  1.5218
 5784TIP3    H241548   0.084   2.479   3.484 -1.0395 -0.2828 -0.0905
 5785TIP3   OH241549   3.128   0.061   1.909  0.4080  0.3307  0.5227
 5785TIP3    H141550   3.195   0.009   1.953  2.1895  0.9757 -1.2568
 5785TIP3    H241551   3.045   0.029   1.945  1.6129 -0.8488  2.4525
 5786TIP3   OH241552   1.973   3.270   0.859 -0.0943  0.1806 -0.2936
 5786TIP3    H141553   1.931   3.314   0.786 -1.5246 -0.0674  0.3343
 5786TIP3    H241554   1.942   3.317   0.937 -0.1270 -0.7164  0.2602
 5787TIP3   OH241555   1.258   6.479   2.425  0.0418  0.1279  0.1627
 5787TIP3    H141556   1.294   6.439   2.346 -1.6358 -0.4887 -0.3298
 5787TIP3    H241557   1.178   6.430   2.443 -0.6987  1.5839  1.0610
 5788TIP3   OH241558   1.707   3.976   2.424 -0.1860 -0.2941 -0.3095
 5788TIP3    H141559   1.752   3.939   2.500 -1.4967 -1.0441  0.1534
 5788TIP3    H241560   1.619   3.997   2.457 -0.6386 -0.2401 -1.5105
 5789TIP3   OH241561   2.675   5.852   1.927  0.1096 -0.4502  0.1487
 5789TIP3    H141562   2.640   5.813   2.007 -0.2268  1.8936  1.2408
 5789TIP3    H241563   2.603   5.849   1.865  0.4916 -2.6448 -0.2788
 5790TIP3   OH241564   4.707   6.517   1.570 -0.0793  0.2558  0.1477
 5790TIP3    H141565   4.653   6.585   1.610  1.7886  1.8508  0.0620
 5790TIP3    H241566   4.760   6.563   1.506 -0.3771 -1.6813 -1.5859
 5791TIP3   OH241567   2.582   3.285   3.950 -0.1008 -0.5336  0.1190
 5791TIP3    H141568   2.586   3.270   4.044 -1.1198 -0.5891  0.1638
 5791TIP3    H241569   2.672   3.275   3.920  0.7928  2.3790  1.5032
 5792TIP3   OH241570   0.650   2.539   2.385 -0.1247 -0.0860  0.1396
 5792TIP3    H141571   0.655   2.617   2.439  0.2188  0.4151 -0.6059
 5792TIP3    H241572   0.560   2.539   2.351  0.1095  0.4423 -0.5119
 5793TIP3   OH241573   6.613   6.605   3.001  0.2630 -0.5183 -0.1412
 5793TIP3    H141574   6.604   6.544   2.928  0.1980 -1.0941  0.3448
 5793TIP3    H241575   6.620   6.691   2.959  1.4238 -0.9411 -0.8860
 5794TIP3   OH241576   3.304   6.644   2.658 -0.4498  0.0539  0.2433
 5794TIP3    H141577   3.311   6.658   2.563 -1.0079 -3.4760 -0.4399
 5794TIP3    H241578   3.230   6.698   2.685  0.9396  2.7132 -0.8467
 5795TIP3   OH241579   2.511   6.614   2.671 -0.2217  0.3014  0.0949
 5795TIP3    H141580   2.484   6.553   2.603  0.5724  0.7258 -0.6288
 5795TIP3    H241581   2.472   6.698   2.644  0.1818  0.4931  0.0997
 5796TIP3   OH241582   4.876   2.183   1.375 -0.2280 -0.3970 -0.5213
 5796TIP3    H141583   4.847   2.138   1.296 -1.9417 -3.1150  1.5023
 5796TIP3    H241584   4.821   2.261   1.380 -2.0966 -1.6702 -0.5767
 5797TIP3   OH241585   3.701   1.081   1.546 -0.1248  0.1676 -0.7065
 5797TIP3    H141586   3.686   1.167   1.587  0.0543  0.5111 -1.3462
 5797TIP3    H241587   3.613   1.044   1.536 -0.1178 -0.2828  0.7333
 5798TIP3   OH241588   0.658   0.128   1.047  0.5133 -0.4724 -0.4885
 5798TIP3    H141589   0.573   0.112   1.087  1.5240  0.5603  2.2578
 5798TIP3    H241590   0.648   0.210   0.999 -0.4859 -1.3009 -1.7704
 5799TIP3   OH241591   4.793   3.059   3.586  0.0791  0.6343 -0.6276
 5799TIP3    H141592   4.870   3.103   3.621 -0.0279  0.6722 -0.4339
 5799TIP3    H241593   4.778   2.986   3.646 -2.1890  2.7020  1.5891
 5800TIP3   OH241594   3.849   0.843   1.842  0.0711  0.2510  0.0283
 5800TIP3    H141595   3.792   0.845   1.919  0.7087  0.8359  0.4970
 5800TIP3    H241596   3.897   0.761   1.850  1.1556  0.9635  1.0211
 5801TIP3   OH241597   3.725   5.754   3.829  0.3836 -0.6298 -0.4744
 5801TIP3    H141598   3.715   5.832   3.885  0.6640  0.1949 -1.5472
 5801TIP3    H241599   3.778   5.694   3.882 -0.2894 -0.3224  0.5868
 5802TIP3   OH241600   3.029   1.975   0.965  0.3663  0.0269  0.5653
 5802TIP3    H141601   2.975   1.950   0.890  0.7693 -0.1206  0.3212
 5802TIP3    H241602   2.987   1.935   1.040  1.0619 -1.5094  0.1700
 5803TIP3   OH241603   3.521   5.242   0.947 -0.3513 -0.3483  0.2992
 5803TIP3    H141604   3.487   5.332   0.946  0.3132 -0.0724 -1.1426
 5803TIP3    H241605   3.575   5.237   1.026  1.0414  1.1185 -0.4963
 5804TIP3   OH241606   4.735   5.371   1.035 -0.2335  0.1981  0.1560
 5804TIP3    H141607   4.761   5.318   1.110 -2.9873 -1.2731  0.2088
 5804TIP3    H241608   4.813   5.375   0.979  1.1617 -0.6789  1.9554
 5805TIP3   OH241609   4.577   0.668   0.971 -0.3297 -0.2346 -0.3423
 5805TIP3    H141610   4.576   0.627   0.884  1.1958 -0.6475 -0.1887
 5805TIP3    H241611   4.574   0.762   0.953 -0.2999 -0.3216 -0.8214
 5806TIP3   OH241612   2.745   3.019   3.530 -0.0377 -0.2620 -0.2068
 5806TIP3    H141613   2.703   2.990   3.449 -0.2230  1.2911 -0.6931
 5806TIP3    H241614   2.839   3.002   3.515 -0.0195  0.4581 -0.9428
 5807TIP3   OH241615   4.753   5.570   1.957 -0.2203 -0.8878  0.0338
 5807TIP3    H141616   4.691   5.643   1.952 -0.0489 -0.7531 -0.1221
 5807TIP3    H241617   4.727   5.522   2.036 -1.8932 -2.0845 -1.1525
 5808TIP3   OH241618   3.694   4.826   3.619  0.1452  0.3810 -0.2438
 5808TIP3    H141619   3.762   4.761   3.639  0.8889  1.7105  1.9511
 5808TIP3    H241620   3.703   4.841   3.525  1.2012 -1.2985 -0.4757
 5809TIP3   OH241621   5.273   5.837   2.630 -0.3735 -0.2214  0.6262
 5809TIP3    H141622   5.312   5.878   2.553  0.8578  0.6867  1.6777
 5809TIP3    H241623   5.346   5.792   2.672 -1.2202 -1.4757  0.7885
 5810TIP3   OH241624   5.209   5.423   0.849 -0.4185 -0.0357 -0.2673
 5810TIP3    H141625   5.204   5.463   0.762  0.3275  1.0535  0.1674
 5810TIP3    H241626   5.248   5.491   0.904 -0.3552 -0.9147  0.7973
 5811TIP3   OH241627   6.659   5.471   1.523 -0.4315  0.4197 -0.3531
 5811TIP3    H141628   6.565   5.472   1.507 -0.7795  2.2664  1.4013
 5811TIP3    H241629   6.678   5.558   1.560  1.7772 -0.2575  0.2463
 5812TIP3   OH241630   5.683   3.031   2.413  0.1431 -0.0939 -0.3887
 5812TIP3    H141631   5.778   3.037   2.413  0.0896  0.9715 -0.0708
 5812TIP3    H241632   5.660   3.008   2.503  0.0498  0.7816 -0.1824
 5813TIP3   OH241633   3.567   5.263   4.131 -0.4030 -0.8345 -0.0943
 5813TIP3    H141634   3.622   5.192   4.164  0.1267 -0.3612  0.0573
 5813TIP3    H241635   3.500   5.275   4.198 -0.6580 -1.3690 -0.2481
 5814TIP3   OH241636   2.481   6.568   1.276 -0.6367  0.0932  0.1634
 5814TIP3    H141637   2.571   6.574   1.246 -1.2083 -0.5133 -1.8284
 5814TIP3    H241638   2.431   6.622   1.214 -1.6493  0.4948  1.2814
 5815TIP3   OH241639   4.210   1.294   3.020  0.6407 -0.6534  0.1513
 5815TIP3    H141640   4.128   1.304   3.068  1.9677 -0.7877  2.5765
 5815TIP3    H241641   4.210   1.202   2.993  0.1029 -0.7104  0.3256
 5816TIP3   OH241642   2.471   6.095   4.124  0.1730  0.2509  0.0363
 5816TIP3    H141643   2.443   6.141   4.045 -0.0901  0.0901  0.0348
 5816TIP3    H241644   2.470   6.162   4.193  2.2010  0.8571 -0.4492
 5817TIP3   OH241645   6.241   0.937   1.230  0.0720 -0.5687  1.0677
 5817TIP3    H141646   6.146   0.946   1.238  0.1487  1.6944  0.1585
 5817TIP3    H241647   6.257   0.940   1.136  1.1388  0.4373  1.2624
 5818TIP3   OH241648   0.625   1.332   1.464  0.2899 -0.0195 -0.1664
 5818TIP3    H141649   0.588   1.247   1.486  0.4508  0.0760  0.4665
 5818TIP3    H241650   0.691   1.349   1.531  0.8286  0.2436 -0.7460
 5819TIP3   OH241651   0.136   3.210   2.789 -0.1544 -0.6407 -0.5998
 5819TIP3    H141652   0.063   3.189   2.848  0.3617 -3.0466 -0.7355
 5819TIP3    H241653   0.100   3.195   2.702 -0.9645  3.0530 -1.0702
 5820TIP3   OH241654   6.039   4.939   2.241  0.0892 -0.1188 -0.3161
 5820TIP3    H141655   6.124   4.913   2.204 -0.2343 -2.7423  0.6230
 5820TIP3    H241656   5.978   4.930   2.168  0.4192  0.9706 -0.7660
 5821TIP3   OH241657   0.367   6.737   0.633  0.2200 -0.1252 -0.1413
 5821TIP3    H141658   0.378   6.777   0.719 -0.1218  0.8057 -0.5188
 5821TIP3    H241659   0.290   6.779   0.596  0.2208 -0.6894 -0.8117
 5822TIP3   OH241660   2.008   5.249   3.280  0.3482 -0.3055  0.4612
 5822TIP3    H141661   1.950   5.269   3.207 -0.2786 -2.8135  0.1582
 5822TIP3    H241662   2.074   5.190   3.242  0.6929 -0.7185  1.6582
 5823TIP3   OH241663   5.098   3.515   0.860 -0.4868  0.2227 -0.1437
 5823TIP3    H141664   5.009   3.489   0.838 -0.3840  1.1683 -1.7789
 5823TIP3    H241665   5.119   3.462   0.937 -1.8428 -1.2612 -0.7299
 5824TIP3   OH241666   3.906   5.677   3.184  0.0331 -0.4933 -0.3007
 5824TIP3    H141667   3.905   5.769   3.210 -2.6761 -0.4125 -0.4470
 5824TIP3    H241668   3.941   5.677   3.095  2.0819  0.0927  0.4485
 5825TIP3   OH241669   3.499   2.234   3.287 -0.4468  0.7710 -0.3033
 5825TIP3    H141670   3.552   2.171   3.238 -0.7854  1.7764 -2.0271
 5825TIP3    H241671   3.416   2.189   3.301 -0.9058  1.0309 -2.0637
 5826TIP3   OH241672   6.086   4.068   2.853  0.4247  0.0302  0.6924
 5826TIP3    H141673   6.116   3.983   2.885  1.3173 -0.1941 -0.6680
 5826TIP3    H241674   6.153   4.129   2.882 -0.7490  0.5025  2.6073
 5827TIP3   OH241675   6.429   3.524   1.607  0.0658  0.2079  0.1990
 5827TIP3    H141676   6.519   3.546   1.628  0.7760 -2.4066  0.2051
 5827TIP3    H241677   6.381   3.534   1.689  1.1435 -1.9119  1.1575
 5828TIP3   OH241678   1.263   4.782   3.344 -0.2393 -0.6715  0.2613
 5828TIP3    H141679   1.331   4.723   3.376  1.0150  1.0876  1.0017
 5828TIP3    H241680   1.306   4.834   3.276 -0.8467  0.4204  0.6824
 5829TIP3   OH241681   4.128   1.532   2.905 -0.1496 -0.0879 -0.1170
 5829TIP3    H141682   4.192   1.602   2.918 -0.2876  0.4633 -2.0111
 5829TIP3    H241683   4.169   1.454   2.942  0.7618  0.6510  0.4612
 5830TIP3   OH241684   2.081   0.470   0.451  0.2090 -0.8904 -0.4449
 5830TIP3    H141685   2.141   0.442   0.520  2.1311  1.1717 -1.1647
 5830TIP3    H241686   2.042   0.388   0.419  0.7915 -2.0807  1.6500
 5831TIP3   OH241687   1.656   4.665   3.814  0.3408  0.1204 -0.4874
 5831TIP3    H141688   1.615   4.588   3.774 -0.9331 -0.6966  2.1784
 5831TIP3    H241689   1.585   4.709   3.861  1.3372  2.1778 -0.7949
 5832TIP3   OH241690   5.447   2.160   0.585  0.0355 -0.6224 -0.2196
 5832TIP3    H141691   5.498   2.181   0.507 -0.3449  1.3432  0.0152
 5832TIP3    H241692   5.506   2.107   0.639  2.0977  1.9745  0.2762
 5833TIP3   OH241693   2.720   3.660   1.626  0.2180  0.2991  0.8728
 5833TIP3    H141694   2.720   3.570   1.659  1.3056  0.6608  1.9115
 5833TIP3    H241695   2.812   3.683   1.619 -0.0530  1.3082  0.5181
 5834TIP3   OH241696   1.049   2.275   1.654  0.0717 -0.2108 -0.3006
 5834TIP3    H141697   0.988   2.278   1.728 -0.8136  0.7315 -1.0485
 5834TIP3    H241698   0.993   2.264   1.577  0.9024 -0.0326 -0.9418
 5835TIP3   OH241699   2.626   4.908   0.913 -0.7173 -0.3066  0.0055
 5835TIP3    H141700   2.597   4.936   0.827 -1.5709  1.3116  0.7764
 5835TIP3    H241701   2.680   4.830   0.896 -2.2156 -1.0249 -1.8147
 5836TIP3   OH241702   4.067   4.748   0.605  0.0566 -0.7268  0.2360
 5836TIP3    H141703   4.096   4.709   0.687  0.6789 -0.6131  0.0735
 5836TIP3    H241704   4.133   4.723   0.541  1.2842  1.7288  0.4035
 5837TIP3   OH241705   2.947   5.758   4.658 -0.6930  0.2236  0.2245
 5837TIP3    H141706   3.027   5.732   4.611 -0.2839 -2.3812  2.1361
 5837TIP3    H241707   2.876   5.739   4.596  0.0510  2.1055 -1.3144
 5838TIP3   OH241708   2.747   0.034   2.571 -0.2777 -0.5199 -0.1889
 5838TIP3    H141709   2.669   0.038   2.515 -0.3145  1.8562 -0.0646
 5838TIP3    H241710   2.712   0.031   2.660 -0.3343  2.5688 -0.0236
 5839TIP3   OH241711   5.445   5.697   2.376 -0.0722  0.3133 -0.4612
 5839TIP3    H141712   5.465   5.692   2.283  4.2810  0.6587  0.2390
 5839TIP3    H241713   5.436   5.791   2.394  1.4053  0.4442 -0.2497
 5840TIP3   OH241714   0.956   3.263   1.733 -0.6508  0.1837  0.2421
 5840TIP3    H141715   0.896   3.313   1.788  0.5355  0.9328  0.8978
 5840TIP3    H241716   1.034   3.318   1.726 -0.0282 -0.7705 -0.5720
 5841TIP3   OH241717   3.385   3.037   1.209  0.1373 -0.0316  0.8142
 5841TIP3    H141718   3.378   3.102   1.279 -2.1512  1.5774 -0.7820
 5841TIP3    H241719   3.428   3.084   1.137 -0.6146 -0.5895 -0.0127
 5842TIP3   OH241720   1.258   5.555   2.875 -0.2487 -0.0636  0.3152
 5842TIP3    H141721   1.223   5.642   2.892  0.2122 -0.1661  2.0238
 5842TIP3    H241722   1.290   5.525   2.961  2.8237 -0.4784 -0.8302
 5843TIP3   OH241723   2.672   1.835   2.630 -0.4110 -0.5315 -0.3449
 5843TIP3    H141724   2.585   1.831   2.670 -0.5549  0.2298 -0.5722
 5843TIP3    H241725   2.656   1.860   2.539 -0.1278 -2.8249 -1.0897
 5844TIP3   OH241726   3.040   6.717   2.659  0.1464 -0.3380  0.3752
 5844TIP3    H141727   3.037   6.706   2.754  1.6813 -1.5171  0.3289
 5844TIP3    H241728   2.962   6.673   2.627  0.3290 -1.1401  1.0119
 5845TIP3   OH241729   6.087   3.743   3.409  0.0979  0.6594 -0.7242
 5845TIP3    H141730   6.062   3.671   3.468  0.0915 -1.1470 -2.7767
 5845TIP3    H241731   6.182   3.745   3.412  0.1493 -0.1387 -1.3809
 5846TIP3   OH241732   0.842   5.481   0.704 -0.1509 -0.0684 -0.1069
 5846TIP3    H141733   0.856   5.418   0.774  0.5968  0.0801 -0.1223
 5846TIP3    H241734   0.907   5.550   0.719 -1.3456  1.0223  0.2774
 5847TIP3   OH241735   3.801   2.214   2.460  0.4431  0.5619 -0.0067
 5847TIP3    H141736   3.815   2.282   2.525 -0.1463  0.9733 -0.2982
 5847TIP3    H241737   3.705   2.208   2.452  0.5051  0.2884 -0.5896
 5848TIP3   OH241738   0.297   5.980   3.274  0.1346 -0.2484  0.5128
 5848TIP3    H141739   0.219   5.965   3.328  0.0680 -0.4268  0.3683
 5848TIP3    H241740   0.315   6.073   3.283  0.0659 -0.2595  0.7670
 5849TIP3   OH241741   1.047   2.320   0.747  0.1907 -0.1627  0.4484
 5849TIP3    H141742   0.952   2.323   0.736 -0.2906  3.4985  3.6080
 5849TIP3    H241743   1.063   2.240   0.798 -1.0763 -0.9635 -0.3461
 5850TIP3   OH241744   5.139   3.417   2.423 -0.2971  0.3181 -0.7802
 5850TIP3    H141745   5.202   3.489   2.428  0.7574 -0.4200 -2.3418
 5850TIP3    H241746   5.054   3.458   2.437  0.3949  1.6221 -0.2015
 5851TIP3   OH241747   6.567   2.670   1.482 -0.2398  0.1119 -0.0832
 5851TIP3    H141748   6.487   2.626   1.455  0.8186 -0.3176 -2.7485
 5851TIP3    H241749   6.557   2.760   1.451  0.2552  0.0908 -0.3097
 5852TIP3   OH241750   3.338   3.238   3.217 -0.6456 -0.2664  0.5100
 5852TIP3    H141751   3.383   3.292   3.153 -0.4907  1.3384  1.8817
 5852TIP3    H241752   3.264   3.292   3.246  1.0840  0.5822  3.9715
 5853TIP3   OH241753   1.385   0.369   0.734 -0.0366 -0.1602 -0.5475
 5853TIP3    H141754   1.369   0.276   0.716 -0.4576  0.0645 -1.3972
 5853TIP3    H241755   1.471   0.371   0.775 -0.7153 -1.0782  1.0040
 5854TIP3   OH241756   0.864   1.288   0.779 -0.2440 -0.1268 -0.0436
 5854TIP3    H141757   0.774   1.259   0.765 -0.5648  0.7913  0.0948
 5854TIP3    H241758   0.912   1.256   0.702 -0.3900 -1.7537  0.4853
 5855TIP3   OH241759   5.870   4.878   1.614  0.6887  0.0340 -0.0757
 5855TIP3    H141760   5.804   4.836   1.558  0.3638 -0.3052  0.5603
 5855TIP3    H241761   5.829   4.960   1.642  0.1836 -0.5894  1.0367
 5856TIP3   OH241762   3.630   4.268   0.948  0.1403  0.3808 -0.2184
 5856TIP3    H141763   3.683   4.341   0.914  1.9606 -0.7054  0.1234
 5856TIP3    H241764   3.584   4.235   0.871 -0.0751  1.3784 -0.5319
 5857TIP3   OH241765   3.120   0.964   2.772 -0.1944 -0.1958  0.4719
 5857TIP3    H141766   3.064   0.911   2.829 -1.0662 -0.1161 -0.2893
 5857TIP3    H241767   3.070   1.045   2.759  0.2023 -0.0256 -0.0239
 5858TIP3   OH241768   3.321   6.578   3.562 -0.1926  0.4110  0.4739
 5858TIP3    H141769   3.231   6.568   3.533  0.8593  0.4058 -3.4222
 5858TIP3    H241770   3.341   6.496   3.607 -1.2254 -1.1335 -1.7036
 5859TIP3   OH241771   1.370   5.755   2.396 -0.3532  0.3340  0.2547
 5859TIP3    H141772   1.408   5.695   2.332  1.2165  0.0479  1.3963
 5859TIP3    H241773   1.288   5.713   2.422  0.3141 -0.9013  0.4175
 5860TIP3   OH241774   0.470   3.963   0.544 -0.4270  0.2826  0.0685
 5860TIP3    H141775   0.446   3.917   0.464  0.2790 -0.8895  0.4935
 5860TIP3    H241776   0.561   3.936   0.561  0.3020  2.4511 -0.0508
 5861TIP3   OH241777   4.466   5.098   1.694  0.1701 -0.6166  0.2034
 5861TIP3    H141778   4.536   5.101   1.628 -1.0424 -1.0398 -1.1686
 5861TIP3    H241779   4.488   5.169   1.755  0.6626  0.6567 -1.3732
 5862TIP3   OH241780   4.965   5.138   3.389 -0.4487  0.1602 -0.4929
 5862TIP3    H141781   5.008   5.198   3.450  0.9540 -2.2917  1.1165
 5862TIP3    H241782   4.872   5.153   3.402 -0.2602 -0.7384  2.9214
 5863TIP3   OH241783   5.873   6.211   3.929 -0.1931  0.1589 -0.2217
 5863TIP3    H141784   5.853   6.304   3.943 -0.6098  0.0488 -0.0827
 5863TIP3    H241785   5.935   6.211   3.856  0.4589  0.6064  0.3224
 5864TIP3   OH241786   2.490   1.177   1.189  0.1906 -0.3527  0.0327
 5864TIP3    H141787   2.505   1.269   1.209  0.8058 -0.3909 -0.2234
 5864TIP3    H241788   2.509   1.131   1.271  1.4872 -0.3939 -0.2645
 5865TIP3   OH241789   2.688   1.922   1.534  1.1495 -0.0059  0.1037
 5865TIP3    H141790   2.715   1.966   1.615 -0.8831  0.7822  0.4272
 5865TIP3    H241791   2.656   1.993   1.479 -0.6609 -0.8776 -0.0264
 5866TIP3   OH241792   4.222   0.352   2.868 -0.1952  0.5088  0.2729
 5866TIP3    H141793   4.181   0.393   2.944  2.3197  0.8529  1.5539
 5866TIP3    H241794   4.309   0.324   2.899  0.6186 -0.0817 -2.2535
 5867TIP3   OH241795   3.707   0.568   1.091  0.0842  0.3189 -0.2125
 5867TIP3    H141796   3.782   0.509   1.085 -0.7545 -0.6690 -1.7655
 5867TIP3    H241797   3.703   0.611   1.006 -0.1278  1.6552  0.4371
 5868TIP3   OH241798   6.697   3.990   1.444 -0.1837  0.7534  0.4068
 5868TIP3    H141799   6.665   4.070   1.484 -0.6793  0.6911  0.1493
 5868TIP3    H241800   6.634   3.923   1.469 -0.7555  0.7987 -0.8096
 5869TIP3   OH241801   2.459   5.809   0.881  0.1039  0.0536 -0.4600
 5869TIP3    H141802   2.529   5.786   0.820 -0.1690 -1.0464 -0.3887
 5869TIP3    H241803   2.381   5.767   0.844 -0.2888  0.3266  0.0481
 5870TIP3   OH241804   4.004   5.682   1.091  0.1571  0.2133  0.1437
 5870TIP3    H141805   4.067   5.754   1.083  0.4094 -0.1177 -1.0176
 5870TIP3    H241806   3.950   5.707   1.166  1.5362  0.5964  1.0650
 5871TIP3   OH241807   4.214   2.860   3.884  0.0280 -0.9179 -0.4438
 5871TIP3    H141808   4.260   2.784   3.919  1.9450  0.8143  1.0303
 5871TIP3    H241809   4.175   2.903   3.960  1.3345  1.0473 -0.8083
 5872TIP3   OH241810   4.765   0.347   2.656 -0.4514 -0.0265  0.0814
 5872TIP3    H141811   4.798   0.331   2.745  2.0172 -0.6918 -0.8853
 5872TIP3    H241812   4.837   0.321   2.599 -1.7517  0.9861 -2.1182
 5873TIP3   OH241813   0.028   1.356   2.213 -0.1201  0.2123  0.6012
 5873TIP3    H141814  -0.020   1.277   2.236  1.2296 -0.8985 -0.2622
 5873TIP3    H241815   0.118   1.327   2.198 -0.0578  1.4485 -2.1639
 5874TIP3   OH241816   2.787   2.463   2.586 -0.1098 -0.2816  0.7544
 5874TIP3    H141817   2.821   2.465   2.675  0.9562 -1.6074  0.4154
 5874TIP3    H241818   2.696   2.434   2.596 -0.2594  0.3717  1.4445
 5875TIP3   OH241819   2.539   3.656   0.626 -0.3276  0.8384 -0.0104
 5875TIP3    H141820   2.570   3.747   0.626  0.6637  0.5132  0.5904
 5875TIP3    H241821   2.526   3.636   0.719 -1.4768  0.6598 -0.1928
 5876TIP3   OH241822   3.325   4.402   2.211 -0.0946  0.1085 -0.8069
 5876TIP3    H141823   3.264   4.456   2.261 -0.2367 -1.2500  0.5972
 5876TIP3    H241824   3.411   4.434   2.236 -0.1892  0.2585 -0.6705
 5877TIP3   OH241825   1.629   4.464   3.637  0.0450  0.5295 -0.4862
 5877TIP3    H141826   1.723   4.454   3.622  0.0647  0.2596 -0.2059
 5877TIP3    H241827   1.606   4.390   3.694  0.2376  2.2085  1.9452
 5878TIP3   OH241828   4.019   5.126   2.390  0.9084 -0.3761 -0.0799
 5878TIP3    H141829   4.058   5.062   2.331  0.3206 -3.0963  2.2804
 5878TIP3    H241830   4.088   5.144   2.455 -0.3718 -2.3539  1.9676
 5879TIP3   OH241831   5.834   3.668   1.660  0.0855  0.0318  0.0640
 5879TIP3    H141832   5.802   3.743   1.609 -1.9043 -0.7039  0.1637
 5879TIP3    H241833   5.918   3.698   1.696 -0.9847  2.4818  0.7038
 5880TIP3   OH241834   1.100   0.436   0.823 -0.3615 -0.0467  0.2490
 5880TIP3    H141835   1.062   0.368   0.768 -1.3990  1.0648 -0.4527
 5880TIP3    H241836   1.193   0.438   0.799 -0.3736 -1.0334  0.1116
 5881TIP3   OH241837   4.068   3.337   1.678  0.7414 -0.1669 -0.2020
 5881TIP3    H141838   4.059   3.308   1.769  0.8630 -0.4720 -0.2866
 5881TIP3    H241839   4.088   3.431   1.685  0.9387 -0.2298  0.0922
 5882TIP3   OH241840   2.748   5.403   1.519  0.3418 -0.4729 -0.1295
 5882TIP3    H141841   2.703   5.398   1.435 -0.1088  0.7601  0.0286
 5882TIP3    H241842   2.688   5.360   1.580 -1.6260  2.7554  0.4492
 5883TIP3   OH241843   1.752   1.745   1.009 -0.0134 -0.0516 -0.3440
 5883TIP3    H141844   1.755   1.649   1.003  3.3110 -0.0210 -0.8682
 5883TIP3    H241845   1.779   1.775   0.922  2.0838  1.2459  0.6847
 5884TIP3   OH241846   2.862   5.967   0.826 -0.2563 -0.6835 -0.3247
 5884TIP3    H141847   2.822   5.896   0.777 -1.5971  0.8270 -1.5114
 5884TIP3    H241848   2.829   5.956   0.915 -0.8454 -1.2391 -0.6013
 5885TIP3   OH241849   3.214   4.615   4.424  0.0414 -0.6485 -0.0527
 5885TIP3    H141850   3.306   4.598   4.408  1.0491  4.0346 -0.8811
 5885TIP3    H241851   3.210   4.643   4.516 -0.3741 -0.1557 -0.2113
 5886TIP3   OH241852   4.534   0.931   1.305  0.6909 -0.1903 -0.2848
 5886TIP3    H141853   4.443   0.953   1.284  0.5317  0.1336  0.7327
 5886TIP3    H241854   4.574   1.014   1.328  0.6697 -0.6236  1.4061
 5887TIP3   OH241855   6.767   2.986   1.685 -0.1631  0.6249 -0.0345
 5887TIP3    H141856   6.701   2.949   1.744 -1.3976 -1.0470 -2.3002
 5887TIP3    H241857   6.829   2.915   1.671  1.6453  1.8736  1.2853
 5888TIP3   OH241858   4.012   1.787   3.006  0.3748 -0.1183  0.3811
 5888TIP3    H141859   4.076   1.840   2.958 -0.1813  0.6840  0.5049
 5888TIP3    H241860   3.953   1.754   2.939 -0.2631  0.8076  0.4803
 5889TIP3   OH241861   4.977   3.053   0.972  0.5226  0.2172 -0.6000
 5889TIP3    H141862   4.943   2.986   0.914  1.2863 -0.3604 -0.3949
 5889TIP3    H241863   4.901   3.082   1.023  0.2377 -0.6820 -0.5029
 5890TIP3   OH241864   4.695   1.710   1.464  0.0845 -0.1255 -0.4854
 5890TIP3    H141865   4.712   1.761   1.385  0.4977  0.7512  0.1653
 5890TIP3    H241866   4.770   1.650   1.470  0.8594  0.8586  0.0629
 5891TIP3   OH241867   0.023   2.816   2.359 -0.1049 -0.4790  0.1171
 5891TIP3    H141868  -0.014   2.803   2.272 -0.3003 -1.2390  0.3060
 5891TIP3    H241869   0.087   2.886   2.348  0.2100 -0.8960 -0.7428
 5892TIP3   OH241870   3.704   1.495   2.755 -0.5551 -0.0753 -0.0720
 5892TIP3    H141871   3.740   1.456   2.834 -0.1418 -0.3524 -0.3926
 5892TIP3    H241872   3.769   1.476   2.687 -0.4632  0.9404 -0.2892
 5893TIP3   OH241873   4.828   2.049   1.699  0.5778  0.0270 -0.1206
 5893TIP3    H141874   4.887   1.981   1.667  1.0738  0.9235 -1.1460
 5893TIP3    H241875   4.831   2.118   1.633 -0.6106  0.6689  0.4526
 5894TIP3   OH241876   2.204   5.407   1.609 -0.4656  0.2572  0.3988
 5894TIP3    H141877   2.175   5.498   1.622  0.2709  0.7427 -1.1825
 5894TIP3    H241878   2.158   5.378   1.530  1.4210  0.2162 -0.7245
 5895TIP3   OH241879   1.695   4.183   1.544  0.1490 -0.2513  0.2425
 5895TIP3    H141880   1.756   4.237   1.593 -0.5211  0.9404 -0.1801
 5895TIP3    H241881   1.654   4.243   1.483  0.4394 -1.5465 -1.2982
 5896TIP3   OH241882   5.492   1.027   0.707  0.1971  0.7496  0.3363
 5896TIP3    H141883   5.411   0.977   0.720 -0.3244  0.8821 -1.9462
 5896TIP3    H241884   5.561   0.966   0.733 -0.5277 -0.4110 -0.3060
 5897TIP3   OH241885   0.931   0.920   2.657 -0.1007  0.0705 -0.1940
 5897TIP3    H141886   1.001   0.858   2.676 -0.7588 -0.6701 -0.1589
 5897TIP3    H241887   0.945   0.944   2.565 -0.3540 -0.7947 -0.4628
 5898TIP3   OH241888   4.633   5.439   2.168 -0.4052 -0.4173 -0.6833
 5898TIP3    H141889   4.669   5.369   2.113  0.5098 -0.2016 -0.3773
 5898TIP3    H241890   4.538   5.431   2.158 -0.2763 -0.9623 -1.5617
 5899TIP3   OH241891   2.511   2.722   0.589 -0.0540 -0.2213 -0.1359
 5899TIP3    H141892   2.571   2.788   0.555  0.0833  0.6017  1.5849
 5899TIP3    H241893   2.457   2.769   0.653 -0.0546 -1.7221  1.0480
 5900TIP3   OH241894   3.275   4.134   1.457  0.0773 -0.0360 -0.0146
 5900TIP3    H141895   3.293   4.227   1.442  0.3593 -0.0862  0.0080
 5900TIP3    H241896   3.203   4.114   1.397 -3.4582  1.3852  3.3369
 5901TIP3   OH241897   4.807   0.929   2.391 -0.3565  0.6052  0.3614
 5901TIP3    H141898   4.770   1.009   2.428 -3.1363 -0.7257  0.7608
 5901TIP3    H241899   4.730   0.876   2.368  1.3476 -2.2140  0.7015
 5902TIP3   OH241900   0.479   6.455   2.252  0.4998 -0.3309 -0.2819
 5902TIP3    H141901   0.554   6.513   2.244 -0.0244  0.6660  1.4568
 5902TIP3    H241902   0.427   6.471   2.173 -0.2656  2.5969  0.7131
 5903TIP3   OH241903   2.753   5.421   3.414  0.1733  0.3914 -0.5162
 5903TIP3    H141904   2.736   5.335   3.450 -0.8493  1.0250  0.5845
 5903TIP3    H241905   2.816   5.460   3.475 -1.7657  1.5693  0.8492
 5904TIP3   OH241906   5.016   1.541   3.957 -0.5466 -0.1823 -0.2336
 5904TIP3    H141907   5.081   1.610   3.941  0.5187 -0.6528  1.7101
 5904TIP3    H241908   5.066   1.460   3.956 -1.1836 -0.6076  0.7504
 5905TIP3   OH241909   6.037   4.598   1.973 -0.2126 -0.4012  0.5211
 5905TIP3    H141910   5.981   4.594   1.895 -0.2171 -0.3402  0.5211
 5905TIP3    H241911   6.067   4.689   1.976 -0.3560 -0.3575  0.6893
 5906TIP3   OH241912   0.712   2.372   3.572 -0.4131  0.2421 -0.3976
 5906TIP3    H141913   0.643   2.438   3.577 -1.4561 -0.8888  1.2118
 5906TIP3    H241914   0.665   2.288   3.579  1.0448 -0.5918 -0.2279
 5907TIP3   OH241915   1.628   6.288   2.055  0.3603 -0.6105  0.2811
 5907TIP3    H141916   1.720   6.313   2.053 -0.2032  1.6805 -1.9835
 5907TIP3    H241917   1.598   6.300   1.965 -2.5265  0.3835  1.2679
 5908TIP3   OH241918   2.665   5.988   1.050 -0.3724 -0.0478 -0.0338
 5908TIP3    H141919   2.578   6.020   1.025 -0.7548 -1.3627 -0.5014
 5908TIP3    H241920   2.655   5.893   1.055  1.1056 -0.2508 -0.3590
 5909TIP3   OH241921   0.980   1.903   1.152  0.5593 -0.3527 -0.8492
 5909TIP3    H141922   1.069   1.871   1.167  0.3174  0.0344  2.0842
 5909TIP3    H241923   0.926   1.823   1.146  0.8500 -0.5776 -0.5252
 5910TIP3   OH241924   0.554   0.059   1.855  0.0720  0.1205 -0.4143
 5910TIP3    H141925   0.511   0.109   1.786  1.2937 -0.5473 -1.6933
 5910TIP3    H241926   0.534  -0.032   1.835  0.3370 -0.0732  0.1847
 5911TIP3   OH241927   4.018   5.312   2.136  0.3027  0.2369  0.1587
 5911TIP3    H141928   3.989   5.252   2.067 -2.0013  2.4884 -1.0066
 5911TIP3    H241929   4.113   5.299   2.141  0.5074 -0.4475 -3.0564
 5912TIP3   OH241930   6.498   3.375   2.530 -0.7861 -0.4890 -0.6462
 5912TIP3    H141931   6.540   3.301   2.486  0.3481  0.3971 -1.0855
 5912TIP3    H241932   6.567   3.415   2.582 -1.0227  1.0561 -1.4471
 5913TIP3   OH241933   1.654   3.388   2.615 -0.3577 -0.7013 -0.3083
 5913TIP3    H141934   1.688   3.477   2.625 -3.4643  0.4663  1.5215
 5913TIP3    H241935   1.722   3.341   2.567  2.1368  2.1962  0.0780
 5914TIP3   OH241936   4.450   3.322   1.126 -0.3946 -0.4446  0.1410
 5914TIP3    H141937   4.536   3.311   1.167 -0.1917 -2.3007 -0.7110
 5914TIP3    H241938   4.455   3.408   1.085  1.5487 -1.0308 -0.9801
 5915TIP3   OH241939   4.420   2.743   1.245 -0.4980  0.2737  0.3859
 5915TIP3    H141940   4.405   2.802   1.171  1.4386  0.6374  0.2348
 5915TIP3    H241941   4.486   2.787   1.298  1.7403 -2.1052 -0.2241
 5916TIP3   OH241942   4.084   3.313   2.762  0.0889  0.0622  0.5459
 5916TIP3    H141943   4.083   3.288   2.670  0.5718  0.4866  0.4175
 5916TIP3    H241944   4.064   3.407   2.761 -1.6548 -0.2585  1.0088
 5917TIP3   OH241945   6.763   4.789   4.342  0.2409  0.3192  0.6278
 5917TIP3    H141946   6.781   4.769   4.251  0.5671  0.9570  0.5440
 5917TIP3    H241947   6.793   4.879   4.353 -1.4046  0.8550  0.9227
 5918TIP3   OH241948   1.965   3.924   2.778 -0.4538 -0.6307  0.6550
 5918TIP3    H141949   1.906   4.000   2.779 -1.3004 -1.2650  0.2784
 5918TIP3    H241950   2.052   3.962   2.768 -0.8044  0.3223  1.0184
 5919TIP3   OH241951   1.250   1.240   1.985  0.4934  0.0507  0.3284
 5919TIP3    H141952   1.232   1.179   1.914  2.0175  0.0203 -0.0612
 5919TIP3    H241953   1.240   1.327   1.946 -0.1896  0.0550  0.4952
 5920TIP3   OH241954   2.191   0.339   2.574 -0.1169  0.2243 -0.4307
 5920TIP3    H141955   2.255   0.281   2.615 -0.6458 -0.8721 -1.1033
 5920TIP3    H241956   2.220   0.427   2.598  2.4720 -0.1311 -1.8328
 5921TIP3   OH241957   6.594   1.286   2.998 -0.2230  0.1422  0.6394
 5921TIP3    H141958   6.672   1.317   3.043  0.4725 -0.3338 -0.2172
 5921TIP3    H241959   6.568   1.207   3.045  1.4439 -1.2872 -0.7094
 5922TIP3   OH241960   3.148   5.949   2.033  0.6678  0.2049 -0.0727
 5922TIP3    H141961   3.137   5.967   1.940 -0.4903 -0.6299 -0.1216
 5922TIP3    H241962   3.241   5.928   2.043  0.4510 -1.7697 -1.4489
 5923TIP3   OH241963   1.179   6.174   0.882  0.0873 -0.5670  0.7981
 5923TIP3    H141964   1.202   6.235   0.952 -0.0643 -1.1008  1.3228
 5923TIP3    H241965   1.167   6.090   0.926 -0.2735 -0.8577  0.1688
 5924TIP3   OH241966   5.567   4.868   0.768 -0.3673 -0.4141  0.3045
 5924TIP3    H141967   5.584   4.933   0.837  1.7209 -0.2624 -0.2966
 5924TIP3    H241968   5.600   4.786   0.803  0.5543 -0.3696 -0.4074
 5925TIP3   OH241969   5.750   1.747   2.183  0.4214 -0.2308 -0.0816
 5925TIP3    H141970   5.726   1.840   2.179  0.3076 -0.2881 -2.5476
 5925TIP3    H241971   5.675   1.701   2.146  1.7929 -0.9362 -2.2177
 5926TIP3   OH241972   6.125   3.558   3.172  0.1436 -0.0013 -0.0845
 5926TIP3    H141973   6.131   3.620   3.099 -0.1670  0.0115 -0.0984
 5926TIP3    H241974   6.216   3.547   3.202  0.0310  1.7550  1.0090
 5927TIP3   OH241975   0.753   2.537   1.681  0.3740 -0.1737  0.5474
 5927TIP3    H141976   0.788   2.549   1.593 -0.0340 -1.3637  0.2111
 5927TIP3    H241977   0.818   2.483   1.726 -0.0354 -0.6747  0.5542
 5928TIP3   OH241978   1.105   6.484   3.909  0.7762 -0.2840 -0.1512
 5928TIP3    H141979   1.144   6.535   3.979  0.7648 -0.2650 -0.1589
 5928TIP3    H241980   1.156   6.403   3.907 -1.2422 -1.7633  2.1063
 5929TIP3   OH241981   3.863   5.262   2.891  0.5932 -0.7286 -0.7695
 5929TIP3    H141982   3.910   5.234   2.969 -0.2323 -0.9163 -0.3204
 5929TIP3    H241983   3.776   5.287   2.924  1.0202  1.5892 -1.2689
 5930TIP3   OH241984   4.557   2.837   2.091 -0.3379 -0.5194 -0.1957
 5930TIP3    H141985   4.548   2.814   1.998  0.9228 -1.0495 -0.2131
 5930TIP3    H241986   4.651   2.836   2.106 -0.3977  1.6158  0.6093
 5931TIP3   OH241987   2.939   0.988   1.624 -0.4643  0.2544  0.5423
 5931TIP3    H141988   2.970   0.903   1.656  1.9022 -0.3254 -2.7803
 5931TIP3    H241989   2.992   1.052   1.671 -0.7187 -0.1850  1.4622
 5932TIP3   OH241990   2.985   5.237   0.964  0.1117  0.1204 -0.5906
 5932TIP3    H141991   2.992   5.150   0.925 -0.4728  0.4813 -1.5220
 5932TIP3    H241992   3.000   5.297   0.892 -0.2050  0.8003 -0.0986
 5933TIP3   OH241993   3.485   5.923   0.905  0.3019 -0.1831 -0.3510
 5933TIP3    H141994   3.540   5.969   0.842 -1.5693  2.3591 -0.2980
 5933TIP3    H241995   3.546   5.889   0.971  2.0294 -0.3509 -1.9641
 5934TIP3   OH241996   1.917   0.461   2.321 -0.8620 -0.0316  0.5920
 5934TIP3    H141997   2.006   0.482   2.351 -1.0735  0.5383  0.8448
 5934TIP3    H241998   1.867   0.540   2.340 -1.4625 -0.4092  0.6003
 5935TIP3   OH241999   3.263   0.269   1.191 -0.1786  0.0029  0.1461
 5935TIP3    H142000   3.336   0.322   1.223  0.3619 -0.2743 -0.5886
 5935TIP3    H242001   3.283   0.254   1.098 -0.4067 -1.3284  0.2856
 5936TIP3   OH242002   4.581   4.209   1.310 -0.1943  0.1692  0.7059
 5936TIP3    H142003   4.532   4.155   1.247  0.0282  0.0589  0.6236
 5936TIP3    H242004   4.659   4.157   1.330  0.0265  0.4627  0.6209
 5937TIP3   OH242005   3.835   2.338   3.108 -0.5947  0.3174  0.6628
 5937TIP3    H142006   3.914   2.389   3.091 -0.5950  0.0947 -0.0332
 5937TIP3    H242007   3.864   2.247   3.106 -1.0677  0.1853 -0.7457
 5938TIP3   OH242008   5.355   0.251   1.191  0.1811  0.6057 -0.0137
 5938TIP3    H142009   5.336   0.345   1.201  0.6056  0.7253 -0.3278
 5938TIP3    H242010   5.445   0.248   1.158 -0.0816  0.1096 -0.6955
 5939TIP3   OH242011   0.704   2.721   2.103 -0.2995 -0.6620  0.3405
 5939TIP3    H142012   0.644   2.794   2.114 -0.6561 -0.7068 -1.0785
 5939TIP3    H242013   0.769   2.731   2.173 -0.3639  0.9829  0.1952
 5940TIP3   OH242014   3.838   5.170   3.656 -0.1790 -0.1706  0.1619
 5940TIP3    H142015   3.787   5.250   3.649 -0.8574 -0.5797  0.3617
 5940TIP3    H242016   3.825   5.125   3.573  1.9042  0.8880 -0.8294
 5941TIP3   OH242017   2.555   5.456   1.191 -0.2728  0.3711  0.1359
 5941TIP3    H142018   2.634   5.406   1.170  0.4581  1.6959 -0.3627
 5941TIP3    H242019   2.507   5.400   1.252 -0.5345 -1.8901 -1.9838
 5942TIP3   OH242020   6.392   0.135   3.654 -0.0370  0.0903  0.4138
 5942TIP3    H142021   6.424   0.050   3.684  1.2983  0.1098 -0.8335
 5942TIP3    H242022   6.457   0.197   3.686 -0.3215  0.4839  0.2325
 5943TIP3   OH242023   6.491   0.309   0.537  0.1203  0.1351 -0.4593
 5943TIP3    H142024   6.472   0.243   0.604 -0.0964  1.6017  0.9605
 5943TIP3    H242025   6.587   0.312   0.533  0.1325 -0.1770 -0.4493
 5944TIP3   OH242026   3.614   4.876   1.532 -0.1218  0.0524 -0.4886
 5944TIP3    H142027   3.707   4.898   1.527 -0.0335 -0.5360 -1.9295
 5944TIP3    H242028   3.612   4.780   1.534 -0.7388 -0.0147 -2.5118
 5945TIP3   OH242029   5.793   1.971   1.849 -0.3499  0.3989 -0.1698
 5945TIP3    H142030   5.846   1.966   1.769 -0.0943 -1.0621  0.0588
 5945TIP3    H242031   5.841   2.032   1.906 -0.4871  1.3818 -1.0749
 5946TIP3   OH242032   3.363   5.524   3.909  0.1618 -0.3405  0.4914
 5946TIP3    H142033   3.350   5.587   3.981 -1.0322  0.3853 -0.3282
 5946TIP3    H242034   3.402   5.576   3.839 -0.3630 -0.6163 -0.0131
 5947TIP3   OH242035   5.317   4.155   2.077 -0.1347  0.1954 -0.1408
 5947TIP3    H142036   5.284   4.071   2.110  0.4070 -0.1319 -0.4250
 5947TIP3    H242037   5.353   4.198   2.155 -0.9452  0.4295  0.1179
 5948TIP3   OH242038   5.574   0.013   3.942 -0.3614  0.4519  0.3083
 5948TIP3    H142039   5.621  -0.035   4.009 -0.0714  0.5093  0.1464
 5948TIP3    H242040   5.494  -0.038   3.927  0.7235 -0.9200 -1.0889
 5949TIP3   OH242041   5.672   1.174   3.198 -0.3625  0.3521  0.0669
 5949TIP3    H142042   5.722   1.114   3.142 -2.0046 -0.4063 -0.6529
 5949TIP3    H242043   5.736   1.205   3.262  0.4582 -2.7010  0.9131
 5950TIP3   OH242044   4.613   0.744   3.155  0.0498 -0.1870  0.0423
 5950TIP3    H142045   4.584   0.822   3.107  0.2712  0.1986  0.5299
 5950TIP3    H242046   4.708   0.752   3.159 -0.0432  0.4927  1.7119
 5951TIP3   OH242047   2.571   0.920   2.906  0.1610 -0.7460 -0.2189
 5951TIP3    H142048   2.482   0.921   2.943  0.7008 -2.5752  1.3039
 5951TIP3    H242049   2.624   0.964   2.972  0.5799 -0.7397 -0.5573
 5952TIP3   OH242050   2.661   3.248   1.272 -0.4547  0.0183 -0.6636
 5952TIP3    H142051   2.665   3.180   1.339  0.1795  1.9560  1.3692
 5952TIP3    H242052   2.676   3.201   1.190 -1.8736 -2.5400  0.4286
 5953TIP3   OH242053   2.464   2.822   2.477 -0.7121 -0.2540 -0.4480
 5953TIP3    H142054   2.406   2.891   2.446  0.3807  0.8191 -0.2020
 5953TIP3    H242055   2.551   2.848   2.446 -0.2331 -1.3846 -0.1203
 5954TIP3   OH242056   0.503   2.271   0.969 -0.1777 -0.5051  0.6791
 5954TIP3    H142057   0.496   2.209   0.896 -0.2774  0.7641 -0.4330
 5954TIP3    H242058   0.463   2.225   1.043 -1.4050 -1.2907 -0.4195
 5955TIP3   OH242059   1.121   4.410   4.087  0.2410  0.4100  0.0508
 5955TIP3    H142060   1.096   4.444   4.173 -1.8729  0.8775 -0.6831
 5955TIP3    H242061   1.163   4.484   4.043  0.2213  0.5460  0.2586
 5956TIP3   OH242062   2.277   3.652   9.740 -0.6721  0.0769  0.4323
 5956TIP3    H142063   2.228   3.643   9.821 -1.5821 -0.2277 -0.1312
 5956TIP3    H242064   2.266   3.744   9.715 -0.4599  0.1507  0.6082
 5957TIP3   OH242065   2.917   6.381   3.735 -0.5445  0.4298 -0.4900
 5957TIP3    H142066   2.942   6.447   3.800  0.8239  0.7866 -1.3400
 5957TIP3    H242067   2.907   6.300   3.785 -0.4422  0.8910  0.2927
 5958TIP3   OH242068   0.081   3.513   1.177 -0.3117 -0.1406  0.2065
 5958TIP3    H142069   0.090   3.418   1.183 -1.9009 -0.3249  0.0019
 5958TIP3    H242070   0.077   3.542   1.269 -1.1002 -0.4106  0.2594
 5959TIP3   OH242071   2.227   0.768   3.240 -0.1203 -0.0644  0.2406
 5959TIP3    H142072   2.248   0.771   3.333  0.5324  1.9133  0.0781
 5959TIP3    H242073   2.304   0.728   3.199  0.0635  0.1061  0.4232
 5960TIP3   OH242074   2.462   6.599   1.539 -0.2589 -0.3121  0.3638
 5960TIP3    H142075   2.475   6.594   1.444  0.1280  1.1292  0.3187
 5960TIP3    H242076   2.372   6.627   1.549 -0.3778 -0.7073  0.4452
 5961TIP3   OH242077   0.002   2.078   1.612  0.7297  0.0206  0.3885
 5961TIP3    H142078  -0.046   2.134   1.551 -0.5824 -0.4571  0.9553
 5961TIP3    H242079   0.010   2.130   1.692 -0.6493 -0.6295  0.9770
 5962TIP3   OH242080   1.946   5.455   3.713 -0.3663  0.3427  0.4368
 5962TIP3    H142081   2.039   5.471   3.726 -0.5399  2.4490 -0.4820
 5962TIP3    H242082   1.933   5.463   3.618 -1.5605  0.6880  0.6022
 5963TIP3   OH242083   3.046   1.147   3.166  0.2440  0.3290 -0.2912
 5963TIP3    H142084   2.974   1.089   3.140  1.9774 -1.6494 -0.9049
 5963TIP3    H242085   3.026   1.229   3.122 -2.0867  0.1609  0.2843
 5964TIP3   OH242086   5.837   2.922   2.046 -0.0967  0.6435 -0.2292
 5964TIP3    H142087   5.877   3.006   2.071 -0.5075  0.8956 -0.4030
 5964TIP3    H242088   5.745   2.930   2.073 -0.0539  0.1043  0.0909
 5965TIP3   OH242089   2.897   4.014   3.407 -0.1181  0.3274  0.3139
 5965TIP3    H142090   2.872   4.106   3.420 -2.1400 -0.1791  0.3736
 5965TIP3    H242091   2.848   3.967   3.474  1.0883 -0.7907  0.4383
 5966TIP3   OH242092   3.043   5.420   0.783 -0.4531  0.1311  0.5945
 5966TIP3    H142093   3.121   5.422   0.728 -0.1457 -0.1379  1.0088
 5966TIP3    H242094   3.052   5.495   0.842 -2.0089  1.9499 -1.3219
 5967TIP3   OH242095   3.838   4.116   2.818 -0.4789 -0.5923 -0.1780
 5967TIP3    H142096   3.855   4.091   2.909  1.2299 -0.1567 -0.3354
 5967TIP3    H242097   3.763   4.063   2.792 -1.3245 -0.3437  1.6361
 5968TIP3   OH242098   0.026   6.182   1.007  0.4055 -0.0692 -0.2217
 5968TIP3    H142099  -0.053   6.189   0.953  0.4598  0.4740 -0.2349
 5968TIP3    H242100   0.014   6.246   1.076  0.9792  0.2437 -0.4069
 5969TIP3   OH242101   3.391   2.417   0.722  0.5373 -0.4243  0.3178
 5969TIP3    H142102   3.391   2.324   0.746 -2.4701 -0.5496  0.3010
 5969TIP3    H242103   3.322   2.455   0.776  1.7077  1.8341  0.3164
 5970TIP3   OH242104   4.549   6.321   3.476 -0.0747 -0.0140 -0.0298
 5970TIP3    H142105   4.557   6.351   3.567  2.3277  0.4368 -0.3330
 5970TIP3    H242106   4.557   6.400   3.424  1.0047 -0.5397 -0.6894
 5971TIP3   OH242107   5.581   6.384   3.494  0.0318  0.2708 -0.3587
 5971TIP3    H142108   5.620   6.335   3.422 -0.1320 -1.0270  0.4057
 5971TIP3    H242109   5.655   6.424   3.539  0.2195  0.2789 -0.6732
 5972TIP3   OH242110   6.179   3.797   1.804 -0.1402 -0.1688  0.1620
 5972TIP3    H142111   6.196   3.852   1.727  3.2261 -1.7998 -0.4325
 5972TIP3    H242112   6.239   3.830   1.871 -0.7995 -0.7659  1.0774
 5973TIP3   OH242113   5.106   0.103   2.549 -0.1339 -0.5301  0.3207
 5973TIP3    H142114   5.059   0.157   2.486 -2.0172 -0.7769  1.3971
 5973TIP3    H242115   5.045   0.030   2.567 -0.5441  0.4513  3.6756
 5974TIP3   OH242116   6.601   5.345   0.555 -0.1507 -0.2738 -0.2678
 5974TIP3    H142117   6.678   5.306   0.515  0.3110 -0.8497  1.1195
 5974TIP3    H242118   6.574   5.282   0.622 -1.3389  0.2949 -0.1903
 5975TIP3   OH242119   4.026   6.095   2.049  0.0504 -0.3615  0.5520
 5975TIP3    H142120   3.937   6.081   2.081 -0.0470  1.0294  0.9462
 5975TIP3    H242121   4.082   6.065   2.121 -0.1547  1.4488  1.5215
 5976TIP3   OH242122   3.002   4.971   3.700  0.2252  0.4736 -0.0684
 5976TIP3    H142123   2.915   5.004   3.721  0.2775  1.2416 -0.9569
 5976TIP3    H242124   3.039   4.943   3.784 -0.7970  0.3210  0.3408
 5977TIP3   OH242125   1.145   5.932   1.021 -0.1029  0.2396  0.0362
 5977TIP3    H142126   1.055   5.918   0.993 -0.9437  1.4863  1.9472
 5977TIP3    H242127   1.146   5.906   1.113  1.0148  1.8563  0.5309
 5978TIP3   OH242128   3.272   4.091   1.034  0.1202  0.8114  0.1408
 5978TIP3    H142129   3.210   4.037   0.984  1.3082  0.4525 -1.0168
 5978TIP3    H242130   3.300   4.158   0.972  0.5999  1.1992  0.7654
 5979TIP3   OH242131   0.397   0.317   2.468  0.2990 -0.4948 -0.5192
 5979TIP3    H142132   0.391   0.399   2.517 -1.2401 -0.1046 -1.2941
 5979TIP3    H242133   0.457   0.263   2.519 -0.6958  0.1326  1.4233
 5980TIP3   OH242134   5.715   0.007   0.569  0.2536  0.3718  0.2964
 5980TIP3    H142135   5.669  -0.014   0.487 -0.0288  1.3100  0.2083
 5980TIP3    H242136   5.714   0.102   0.574  3.4997  0.5659 -0.4642
 5981TIP3   OH242137   4.030   3.192   0.712 -0.3097 -0.0550  0.4470
 5981TIP3    H142138   3.982   3.112   0.733  0.3082 -0.1166  1.7070
 5981TIP3    H242139   3.973   3.239   0.651  0.0479 -2.2111 -1.6928
 5982TIP3   OH242140   6.705   0.116   3.588  0.7034 -0.5479 -0.0476
 5982TIP3    H142141   6.796   0.124   3.559  1.2349  0.5503  1.7538
 5982TIP3    H242142   6.678   0.207   3.606  0.0235 -1.0444  1.6031
 5983TIP3   OH242143   3.619   4.513   1.290  0.0930  0.1894  0.4491
 5983TIP3    H142144   3.648   4.535   1.201  0.4487 -0.5109  0.3823
 5983TIP3    H242145   3.541   4.459   1.276 -0.1735  0.5365  0.5813
 5984TIP3   OH242146   4.880   0.795   3.035  0.0290  0.1736  0.4811
 5984TIP3    H142147   4.956   0.840   2.999 -1.1266  1.3953 -0.5436
 5984TIP3    H242148   4.868   0.719   2.977  0.0004  0.4193  0.1637
 5985TIP3   OH242149   1.080   4.824   1.765  0.5297  0.2695  0.5954
 5985TIP3    H142150   1.069   4.895   1.702 -0.2609 -0.1945  0.2050
 5985TIP3    H242151   1.093   4.869   1.849  2.3285  0.9054  0.0212
 5986TIP3   OH242152   3.040   6.542   3.541  0.0666  0.0636 -0.0672
 5986TIP3    H142153   3.007   6.487   3.612  3.6259 -1.4576  0.6149
 5986TIP3    H242154   3.045   6.630   3.579  2.0957 -0.7511  1.7872
 5987TIP3   OH242155   4.101   6.408   1.857  0.0361 -0.0885  0.1438
 5987TIP3    H142156   4.033   6.470   1.833 -0.3904 -0.5176  0.2280
 5987TIP3    H242157   4.139   6.443   1.938 -0.5873 -0.2276  0.5055
 5988TIP3   OH242158   3.754   2.523   3.301  0.5897 -0.8375  0.3829
 5988TIP3    H142159   3.756   2.457   3.231  2.7114 -1.3217  0.8169
 5988TIP3    H242160   3.829   2.580   3.282  0.3505 -0.1358  1.4674
 5989TIP3   OH242161   1.218   6.109   1.456 -0.2135 -0.3775 -0.2678
 5989TIP3    H142162   1.194   6.152   1.374 -0.7170 -0.4639 -0.1672
 5989TIP3    H242163   1.146   6.129   1.515  1.1296  1.5236  0.8497
 5990TIP3   OH242164   0.399   2.287   1.403  0.5353 -0.1675  0.3527
 5990TIP3    H142165   0.389   2.255   1.492 -0.6046 -2.0684 -0.4026
 5990TIP3    H242166   0.326   2.348   1.392  0.9753  0.4686  0.8492
 5991TIP3   OH242167   6.576   0.028   2.819  0.1665 -0.5103 -0.1635
 5991TIP3    H142168   6.493  -0.017   2.806 -0.3780  0.4891 -0.2778
 5991TIP3    H242169   6.594   0.071   2.735  1.0725 -1.1416 -0.3055
 5992TIP3   OH242170   1.085   0.286   0.555 -0.3734 -0.4678 -0.6841
 5992TIP3    H142171   1.066   0.205   0.602 -2.0811 -1.1673 -2.4584
 5992TIP3    H242172   1.172   0.272   0.518  0.3889 -0.4623  1.0303
 5993TIP3   OH242173   6.777   5.553   1.871  0.3483 -0.2505 -0.2147
 5993TIP3    H142174   6.866   5.516   1.874 -0.2695 -1.7439  2.4206
 5993TIP3    H242175   6.764   5.591   1.958 -1.7994 -0.5682 -0.3457
 5994TIP3   OH242176   2.437   3.679   3.328  0.1409 -0.0932 -0.1222
 5994TIP3    H142177   2.490   3.601   3.343  0.8780  0.2233 -0.9687
 5994TIP3    H242178   2.494   3.737   3.278 -1.6886 -0.6526 -3.1649
 5995TIP3   OH242179   2.199   4.970   1.586 -0.2271 -0.2603  0.1038
 5995TIP3    H142180   2.155   4.885   1.598  0.2962 -0.6648 -0.7532
 5995TIP3    H242181   2.184   5.016   1.668 -1.9441 -0.5304 -0.0122
 5996TIP3   OH242182   1.492   4.492   2.119 -0.0201 -0.1056 -0.3621
 5996TIP3    H142183   1.566   4.477   2.061  0.2427 -0.3960  0.0416
 5996TIP3    H242184   1.483   4.411   2.169  0.4976  0.5285  0.8165
 5997TIP3   OH242185   2.939   4.938   3.433 -0.4658  0.4588  0.1228
 5997TIP3    H142186   2.985   4.855   3.425 -1.8372 -0.2022 -1.4947
 5997TIP3    H242187   2.960   4.969   3.521  1.8610 -0.4932 -0.0303
 5998TIP3   OH242188   2.736   3.985   2.872 -0.1973  0.2082 -0.2537
 5998TIP3    H142189   2.689   3.921   2.819  0.3210 -0.3040 -0.1074
 5998TIP3    H242190   2.711   4.069   2.835 -0.6121 -0.0932 -0.6802
 5999TIP3   OH242191   3.857   3.048   1.447  0.0961  0.6572  0.1529
 5999TIP3    H142192   3.803   3.110   1.496  0.9053  0.4909  1.2997
 5999TIP3    H242193   3.941   3.092   1.436  0.8114 -0.3415  1.3138
 6000TIP3   OH242194   1.218   3.451   2.603  0.0334  0.0275 -0.3347
 6000TIP3    H142195   1.160   3.524   2.623 -2.4697 -2.1848  0.9967
 6000TIP3    H242196   1.289   3.459   2.667 -1.3752  0.0982  1.2848
 6001TIP3   OH242197   1.445   5.525   3.415  0.2444 -0.0561 -0.2462
 6001TIP3    H142198   1.439   5.604   3.469 -1.9220  0.0634 -0.5874
 6001TIP3    H242199   1.406   5.456   3.468  0.3319 -0.4674 -0.7072
 6002TIP3   OH242200   3.535   4.040   1.087  0.5751 -0.6013 -0.2117
 6002TIP3    H142201   3.465   4.045   1.022 -1.4088  0.2145  1.8590
 6002TIP3    H242202   3.597   4.108   1.060  0.7335 -1.4458 -2.1757
 6003TIP3   OH242203   5.812   5.030   0.658 -0.2087  0.6592 -0.3341
 6003TIP3    H142204   5.837   5.085   0.731 -1.1552  0.0375  0.4898
 6003TIP3    H242205   5.721   5.007   0.675 -0.4658  0.5342 -1.7336
 6004TIP3   OH242206   2.458   5.089   1.479 -0.3452 -0.0853 -0.0373
 6004TIP3    H142207   2.390   5.043   1.528 -0.8430  0.5386 -0.1281
 6004TIP3    H242208   2.540   5.054   1.513 -0.7045 -0.5065  0.4095
 6005TIP3   OH242209   3.697   0.033   2.328  0.3562  0.1514  0.1740
 6005TIP3    H142210   3.638   0.074   2.391  0.5401 -0.9027  1.0787
 6005TIP3    H242211   3.721   0.103   2.267 -1.3741  0.7263  0.1124
 6006TIP3   OH242212   5.087   0.110   3.048  0.2197 -0.1768  0.1238
 6006TIP3    H142213   5.179   0.129   3.029  0.4704 -1.2340  0.2471
 6006TIP3    H242214   5.077   0.129   3.142  0.2073  0.3177  0.0249
 6007TIP3   OH242215   4.021   3.436   0.398  0.0906 -0.1907  0.0020
 6007TIP3    H142216   3.960   3.492   0.444 -0.0618  0.0736 -0.5148
 6007TIP3    H242217   3.973   3.354   0.383  0.9719 -1.2760  2.5628
 6008TIP3   OH242218   0.522   0.802   0.561 -0.1934 -0.1839 -0.4853
 6008TIP3    H142219   0.564   0.722   0.591  0.3990 -0.2224 -1.3740
 6008TIP3    H242220   0.449   0.772   0.508 -1.3195 -0.1162  0.9673
 6009TIP3   OH242221   2.412   5.038   2.985  0.0263  0.1300 -0.5989
 6009TIP3    H142222   2.395   5.038   2.890 -1.3712 -1.1921 -0.3974
 6009TIP3    H242223   2.432   4.946   3.005  0.7104  0.4710  0.3439
 6010TIP3   OH242224   6.633   2.013   0.800 -0.1743  0.2723 -0.3892
 6010TIP3    H142225   6.594   1.968   0.875  1.5748 -0.4471  0.1331
 6010TIP3    H242226   6.692   2.077   0.839  0.6152  0.0166 -1.1475
 6011TIP3   OH242227   1.681   5.271   3.559 -0.2548  0.4749  0.1465
 6011TIP3    H142228   1.718   5.227   3.636  0.2866  0.6889  0.0105
 6011TIP3    H242229   1.756   5.304   3.511 -0.5582 -0.1535 -0.7883
 6012TIP3   OH242230   2.271   2.123   3.816  0.0274 -0.1359  0.2720
 6012TIP3    H142231   2.300   2.112   3.726 -0.0708  1.0540  0.0688
 6012TIP3    H242232   2.351   2.142   3.865  0.1492 -1.2829  0.5445
 6013TIP3   OH242233   1.068   2.445   1.264  0.0484 -0.3317 -0.4965
 6013TIP3    H142234   1.008   2.481   1.330  1.1381 -0.5031  0.6350
 6013TIP3    H242235   1.012   2.424   1.189 -1.4016 -1.0407  0.7280
 6014TIP3   OH242236   0.983   4.636   1.153 -0.2083 -0.1887 -0.1157
 6014TIP3    H142237   0.984   4.542   1.135 -0.4892  0.2778 -2.9902
 6014TIP3    H242238   0.974   4.641   1.248  0.1889 -3.0441  0.1860
 6015TIP3   OH242239   5.996   0.443   2.289 -0.0535  0.0171 -0.0938
 6015TIP3    H142240   5.932   0.514   2.298  0.4249  0.4517 -0.0677
 6015TIP3    H242241   5.996   0.422   2.196  0.7071  0.9110 -0.3083
 6016TIP3   OH242242   2.609   0.131   0.888  0.3628 -0.2464 -0.2571
 6016TIP3    H142243   2.553   0.057   0.867 -0.6492  1.2843 -3.7456
 6016TIP3    H242244   2.695   0.107   0.853  0.8070 -0.7980  1.1201
 6017TIP3   OH242245   2.732   3.205   1.875 -0.3987 -0.0178  0.7777
 6017TIP3    H142246   2.715   3.279   1.816  0.9054 -0.2213  0.1182
 6017TIP3    H242247   2.804   3.235   1.930  0.3319 -0.8824  0.3186
 6018TIP3   OH242248   6.477   1.095   1.997  0.3661 -0.7975  0.3659
 6018TIP3    H142249   6.503   1.012   1.957  0.7786 -1.8912  2.7428
 6018TIP3    H242250   6.539   1.108   2.068 -0.5795  0.8327  0.9452
 6019TIP3   OH242251   3.419   3.454   3.967 -0.0732  0.5764  0.1206
 6019TIP3    H142252   3.490   3.471   3.905  0.0575  1.1315  0.4176
 6019TIP3    H242253   3.446   3.497   4.047  0.5241 -1.5068  1.0863
 6020TIP3   OH242254   3.553   4.535   2.335  0.5188 -0.2533 -0.2592
 6020TIP3    H142255   3.637   4.576   2.353 -0.0506  1.6542 -1.6995
 6020TIP3    H242256   3.501   4.551   2.414  0.3917  1.6535 -0.6926
 6021TIP3   OH242257   1.811   5.794   3.906 -0.5736  0.0557  0.0600
 6021TIP3    H142258   1.819   5.750   3.991  0.5990  0.2670  0.0737
 6021TIP3    H242259   1.776   5.880   3.927 -0.8886 -0.1150  0.2544
 6022TIP3   OH242260   5.621   6.655   2.263  0.5872 -0.0184  0.1946
 6022TIP3    H142261   5.605   6.642   2.170 -0.3705  1.8831  0.0295
 6022TIP3    H242262   5.534   6.671   2.300  1.1298  1.1119  1.0431
 6023TIP3   OH242263   4.913   0.681   2.492 -0.0580  0.7577 -0.0277
 6023TIP3    H142264   4.908   0.692   2.397 -0.3870 -0.1756 -0.1299
 6023TIP3    H242265   4.823   0.689   2.522  0.1580  2.0427  0.3407
 6024TIP3   OH242266   5.640   1.476   4.473 -0.1403  0.3972  0.1508
 6024TIP3    H142267   5.681   1.415   4.534 -0.3955  1.2678  1.2176
 6024TIP3    H242268   5.657   1.438   4.387 -0.7227 -1.4357  0.7975
 6025TIP3   OH242269   1.723   3.131   0.601 -0.1631 -0.3983  0.3285
 6025TIP3    H142270   1.813   3.135   0.633 -0.9251 -1.2424  2.8776
 6025TIP3    H242271   1.729   3.150   0.507  2.5209  0.5059  0.6092
 6026TIP3   OH242272   5.159   2.664   3.395 -1.0533 -0.6762 -0.3415
 6026TIP3    H142273   5.175   2.746   3.443 -2.3805 -0.6015  0.0105
 6026TIP3    H242274   5.172   2.687   3.303 -0.1319 -0.4062 -0.1583
 6027TIP3   OH242275   2.143   5.674   1.622 -0.1498 -0.4115  0.0589
 6027TIP3    H142276   2.086   5.666   1.699  1.8453 -0.2175  1.6232
 6027TIP3    H242277   2.122   5.759   1.585 -0.5546 -0.1407  0.8871
 6028TIP3   OH242278   6.224   6.552   1.253 -0.4425 -0.4098  0.0865
 6028TIP3    H142279   6.195   6.556   1.162 -0.4019 -1.7604 -0.0017
 6028TIP3    H242280   6.295   6.616   1.258 -0.4916 -0.2713 -0.8211
 6029TIP3   OH242281   6.311   2.776   0.593  0.0198 -0.2305  0.4337
 6029TIP3    H142282   6.383   2.714   0.579  0.0239 -0.1607  0.1466
 6029TIP3    H242283   6.353   2.853   0.633  0.0046 -0.4358  0.8470
 6030TIP3   OH242284   1.522   2.095   0.958 -0.3740 -0.1822  0.7192
 6030TIP3    H142285   1.431   2.069   0.950 -0.5940  0.3349  1.4400
 6030TIP3    H242286   1.519   2.187   0.985  0.3734  0.6097 -1.6479
 6031TIP3   OH242287   0.947   4.064   1.158 -0.3114  0.0825  0.1249
 6031TIP3    H142288   1.034   4.023   1.162  0.9214  2.2553 -1.9875
 6031TIP3    H242289   0.915   4.041   1.071 -0.6426  1.5229 -0.1521
 6032TIP3   OH242290   0.407   0.841   1.656  0.2084  0.2088  0.3673
 6032TIP3    H142291   0.336   0.903   1.670  0.3171  0.2116  0.9475
 6032TIP3    H242292   0.405   0.822   1.562  0.5259  1.5012  0.0896
 6033TIP3   OH242293   3.357   5.900   2.358  0.1251  0.1171  0.2937
 6033TIP3    H142294   3.412   5.881   2.434  0.3247 -0.3958  0.0240
 6033TIP3    H242295   3.368   5.995   2.345 -0.5451  0.3592  1.3784
 6034TIP3   OH242296   4.609   3.322   2.590  0.2007  0.3834  0.2584
 6034TIP3    H142297   4.647   3.410   2.585  0.5159  0.3129  1.1715
 6034TIP3    H242298   4.599   3.306   2.684 -0.0860 -0.4601  0.0927
 6035TIP3   OH242299   0.672   4.389   3.652  0.2130  0.2896 -0.1564
 6035TIP3    H142300   0.590   4.356   3.687 -0.3973  0.2942 -1.5230
 6035TIP3    H242301   0.728   4.312   3.643 -0.1202  0.0856 -0.4725
 6036TIP3   OH242302   5.745   5.899   1.525 -0.0866  0.4954 -0.0184
 6036TIP3    H142303   5.657   5.933   1.508  0.5761  1.8564 -0.9200
 6036TIP3    H242304   5.798   5.977   1.542  0.9926 -0.2898  0.3358
 6037TIP3   OH242305   6.256   0.193   1.009 -0.2538 -0.4583  0.4996
 6037TIP3    H142306   6.225   0.268   0.957  0.6545 -0.0780  0.4892
 6037TIP3    H242307   6.176   0.153   1.042 -0.8000 -0.0011 -0.2156
 6038TIP3   OH242308   6.501   0.242   2.632 -0.7421 -0.1421  0.3827
 6038TIP3    H142309   6.426   0.302   2.631 -0.4048  0.2947 -0.7950
 6038TIP3    H242310   6.531   0.241   2.541  0.4715 -0.5887  0.7757
 6039TIP3   OH242311   4.996   1.916   0.740  0.0373 -0.2948 -0.2494
 6039TIP3    H142312   5.036   1.836   0.774 -0.9991 -0.6988  0.0462
 6039TIP3    H242313   5.047   1.987   0.778  0.8719 -0.8077 -0.3914
 6040TIP3   OH242314   1.270   5.590   1.241  0.3140 -0.2737 -0.3518
 6040TIP3    H142315   1.242   5.678   1.264  1.6430 -0.2599  1.4161
 6040TIP3    H242316   1.193   5.535   1.256 -0.1888  0.4219 -0.3642
 6041TIP3   OH242317   1.588   3.353   0.691  0.3769 -0.3237  0.2960
 6041TIP3    H142318   1.636   3.276   0.663 -0.3986 -1.6147  2.2943
 6041TIP3    H242319   1.497   3.324   0.695  0.1213  0.5621  1.4394
 6042TIP3   OH242320   2.946   1.746   2.517  0.0714 -0.6167 -0.1806
 6042TIP3    H142321   2.864   1.714   2.480 -0.0020  0.3163 -0.8656
 6042TIP3    H242322   2.969   1.821   2.463  1.1582 -0.6024  0.2747
 6043TIP3   OH242323   4.392   6.347   2.974  0.1285 -0.2988 -0.2500
 6043TIP3    H142324   4.346   6.430   2.967 -0.6226 -0.6981 -0.1499
 6043TIP3    H242325   4.409   6.321   2.883  2.2395  0.9482 -0.2925
 6044TIP3   OH242326   6.218   2.530   2.856 -0.1245 -0.3061 -0.0601
 6044TIP3    H142327   6.266   2.539   2.774  1.8188  1.3262  1.1579
 6044TIP3    H242328   6.127   2.513   2.829  0.4714  0.0265 -2.5154
 6045TIP3   OH242329   0.041   1.268   0.692  0.0752  0.2796 -0.3262
 6045TIP3    H142330   0.020   1.359   0.670  1.6027  0.4689 -1.0613
 6045TIP3    H242331   0.004   1.256   0.780 -0.9403  1.3149 -0.5867
 6046TIP3   OH242332   5.216   2.891   3.536  0.2620 -0.0092  0.1108
 6046TIP3    H142333   5.233   2.942   3.616  1.5901  0.2178 -0.2897
 6046TIP3    H242334   5.158   2.947   3.484  1.7080  1.1590 -0.3254
 6047TIP3   OH242335   3.694   6.651   0.969 -0.7387  0.6182  0.2561
 6047TIP3    H142336   3.672   6.712   1.040 -0.0315  0.5196  0.5702
 6047TIP3    H242337   3.612   6.609   0.947 -0.8929  0.3308  1.3284
 6048TIP3   OH242338   0.888   5.490   1.032 -0.3556  0.3186 -0.5193
 6048TIP3    H142339   0.879   5.401   0.997  1.2750  0.6753 -2.0322
 6048TIP3    H242340   0.925   5.478   1.120 -1.1448 -0.5200 -0.2950
 6049TIP3   OH242341   4.166   0.938   0.772  0.2462 -0.1628 -0.2577
 6049TIP3    H142342   4.229   0.980   0.830  0.0787 -0.6410  0.2683
 6049TIP3    H242343   4.086   0.990   0.782 -0.1111 -0.8972  0.7738
 6050TIP3   OH242344   2.146   6.769   3.733  0.1106 -0.2537 -0.5604
 6050TIP3    H142345   2.229   6.778   3.685 -0.2151 -0.3070 -1.1428
 6050TIP3    H242346   2.125   6.858   3.761 -0.2516 -0.0334 -1.4774
 6051TIP3   OH242347   4.289   2.546   1.841  0.0455 -0.2432 -0.3024
 6051TIP3    H142348   4.230   2.540   1.766  0.6512 -0.5578 -0.7650
 6051TIP3    H242349   4.377   2.538   1.803  0.3589 -0.4998  0.4500
 6052TIP3   OH242350   5.098   2.032   1.880 -0.6730  0.0814 -0.0944
 6052TIP3    H142351   5.030   1.982   1.836 -1.5130  0.8045  0.3305
 6052TIP3    H242352   5.166   2.045   1.814 -1.6351  0.6390 -1.0019
 6053TIP3   OH242353   3.327   4.218   2.446 -0.0044 -0.4597  0.4497
 6053TIP3    H142354   3.251   4.233   2.503  0.5771 -1.2177  1.4639
 6053TIP3    H242355   3.314   4.277   2.372 -0.9738  0.2919  1.1929
 6054TIP3   OH242356   5.936   1.873   3.412 -0.1540 -0.2835  0.6892
 6054TIP3    H142357   5.841   1.877   3.398 -0.2052 -1.2689  0.6725
 6054TIP3    H242358   5.945   1.839   3.501  0.1886  0.1761  0.8327
 6055TIP3   OH242359   5.872   0.672   2.882 -0.4761 -0.0961 -0.2256
 6055TIP3    H142360   5.843   0.680   2.792 -1.1171 -0.4663 -0.0618
 6055TIP3    H242361   5.934   0.743   2.894  2.7322 -2.3305 -2.1190
 6056TIP3   OH242362   3.452   0.275   3.063  0.1668  0.3820 -0.3094
 6056TIP3    H142363   3.443   0.179   3.070  1.5738  0.0322 -2.4382
 6056TIP3    H242364   3.367   0.305   3.032 -1.1758  0.2389  2.7943
 6057TIP3   OH242365   0.888   6.317   0.595  0.8260  0.2430 -0.4482
 6057TIP3    H142366   0.878   6.261   0.518 -0.1057 -1.0853  0.5789
 6057TIP3    H242367   0.799   6.348   0.613  0.6414 -1.1370  1.2585
 6058TIP3   OH242368   4.318   1.538   1.063 -0.1089 -1.2044  0.2969
 6058TIP3    H142369   4.401   1.509   1.027  0.4458  1.5706 -0.9061
 6058TIP3    H242370   4.338   1.620   1.108 -2.3019  0.1536 -0.9914
 6059TIP3   OH242371   5.839   5.325   2.700  0.5150  0.1064  0.3487
 6059TIP3    H142372   5.888   5.242   2.702 -1.1100 -0.8907  0.0384
 6059TIP3    H242373   5.859   5.362   2.614 -2.0392 -2.1034 -1.3761
 6060TIP3   OH242374   1.125   5.408   4.009  0.1256 -0.4635  0.0286
 6060TIP3    H142375   1.103   5.407   3.916 -1.1578 -1.2162  0.3156
 6060TIP3    H242376   1.194   5.341   4.018  0.7490  0.1025 -0.4813
 6061TIP3   OH242377   5.951   3.678   1.370  0.1036  0.1076  0.5728
 6061TIP3    H142378   5.909   3.763   1.359  0.0744 -0.0553 -0.7249
 6061TIP3    H242379   6.044   3.694   1.356  0.1818  0.0339  0.9882
 6062TIP3   OH242380   4.169   1.090   1.693  0.2573 -0.0156 -0.1709
 6062TIP3    H142381   4.075   1.084   1.674  0.2574 -0.2559 -0.1100
 6062TIP3    H242382   4.208   1.019   1.642  0.1322 -1.3139  1.4311
 6063TIP3   OH242383   4.613   0.466   3.186 -0.1528  0.3197  0.6070
 6063TIP3    H142384   4.695   0.491   3.228  0.7919  0.9613 -1.4544
 6063TIP3    H242385   4.574   0.549   3.158 -0.7238 -0.0712  0.2142
 6064TIP3   OH242386   4.219   2.136   1.741 -0.5306 -0.3903 -0.1759
 6064TIP3    H142387   4.201   2.215   1.691  3.6415 -0.5664 -2.4169
 6064TIP3    H242388   4.308   2.147   1.774  0.1509 -3.9621 -0.3562
 6065TIP3   OH242389   5.285   2.047   3.162 -0.2269 -0.0892 -0.5037
 6065TIP3    H142390   5.243   2.062   3.078 -0.0176 -1.9759 -0.9927
 6065TIP3    H242391   5.353   2.114   3.168 -1.4882  1.2583 -0.9477
 6066TIP3   OH242392   4.398   2.242   1.312  0.0811 -0.3404 -0.1700
 6066TIP3    H142393   4.447   2.260   1.392 -0.7016  0.3409  0.1759
 6066TIP3    H242394   4.403   2.324   1.263 -0.7063 -0.2657 -0.1276
 6067TIP3   OH242395   6.258   6.115   0.791  0.7877  0.7137  0.1794
 6067TIP3    H142396   6.290   6.025   0.800  1.5849  0.3453 -4.1146
 6067TIP3    H242397   6.163   6.106   0.788  0.8807 -0.6686 -3.7113
 6068TIP3   OH242398   1.414   3.740   1.276  0.0639 -0.4306 -0.2124
 6068TIP3    H142399   1.480   3.786   1.224  1.9820 -0.9256  1.6494
 6068TIP3    H242400   1.378   3.674   1.217  1.7132 -0.5830 -1.1105
 6069TIP3   OH242401   0.029   4.311   3.060  1.0236 -0.1845  0.3843
 6069TIP3    H142402   0.074   4.273   3.136  0.3412 -0.8486  0.4719
 6069TIP3    H242403   0.096   4.314   2.992  1.5600  0.1201  0.9146
 6070TIP3   OH242404   0.868   5.974   2.728  0.1215 -0.2251 -0.5368
 6070TIP3    H142405   0.887   6.031   2.653  0.0123 -0.3927 -0.6935
 6070TIP3    H242406   0.776   5.951   2.718  0.2965 -0.8724 -0.7848
 6071TIP3   OH242407   0.513   5.051   0.657 -0.4316 -0.0964  0.1466
 6071TIP3    H142408   0.484   5.080   0.571  0.2509  1.3274  0.3562
 6071TIP3    H242409   0.517   5.132   0.709  1.2474 -0.5934  0.8737
 6072TIP3   OH242410   1.681   0.646   1.021 -0.4729 -0.1203  0.4991
 6072TIP3    H142411   1.732   0.686   0.951 -1.2524  1.4378  0.7734
 6072TIP3    H242412   1.672   0.554   0.995 -0.9566  0.4634 -1.5894
 6073TIP3   OH242413   6.290   2.098   1.431  0.7788 -0.1941  0.0464
 6073TIP3    H142414   6.330   2.011   1.424  1.5102  0.2134 -1.1622
 6073TIP3    H242415   6.351   2.149   1.483  0.9449 -0.0823 -0.2533
 6074TIP3   OH242416   4.356   4.047   2.051 -0.3380  0.4041 -0.0262
 6074TIP3    H142417   4.290   4.077   2.114  0.5384 -0.9210  1.6123
 6074TIP3    H242418   4.427   4.013   2.106  1.5936  1.4892 -1.7380
 6075TIP3   OH242419   6.722   1.030   1.587  0.2215  0.2759 -0.6257
 6075TIP3    H142420   6.736   1.098   1.653 -2.3464  0.9269 -0.6345
 6075TIP3    H242421   6.627   1.024   1.579  0.3847 -2.5913 -1.4218
 6076TIP3   OH242422   1.476   5.735   1.650 -0.0869  0.0654 -0.4938
 6076TIP3    H142423   1.483   5.821   1.609 -1.0110 -0.4508 -1.7846
 6076TIP3    H242424   1.453   5.753   1.741  0.6452  1.1949 -0.5141
 6077TIP3   OH242425   2.118   2.141   1.980 -0.2294  0.5186 -0.2763
 6077TIP3    H142426   2.044   2.081   1.979 -0.6690  1.0301  0.3128
 6077TIP3    H242427   2.152   2.135   2.069 -0.5888  1.4886 -0.0532
 6078TIP3   OH242428   0.137   2.987   3.083 -0.0495  0.3900  0.4781
 6078TIP3    H142429   0.066   3.039   3.046 -1.5076 -0.5589  1.7793
 6078TIP3    H242430   0.093   2.908   3.116  1.9876 -1.5124 -1.0607
 6079TIP3   OH242431   6.611   4.235   0.470  0.0435 -0.8164  0.3096
 6079TIP3    H142432   6.546   4.275   0.413  1.1389  1.7431  0.7449
 6079TIP3    H242433   6.578   4.251   0.559  0.8723 -0.1498  0.5089
 6080TIP3   OH242434   4.381   4.038   2.355 -0.0162  0.2938  0.6653
 6080TIP3    H142435   4.374   4.046   2.450  1.2553 -2.1916  1.0657
 6080TIP3    H242436   4.473   4.056   2.337  0.3961 -1.9457  0.3165
 6081TIP3   OH242437   4.195   1.810   1.915 -0.7580 -0.0595  0.0540
 6081TIP3    H142438   4.201   1.884   1.976 -0.8121  0.3123 -0.3910
 6081TIP3    H242439   4.102   1.791   1.909 -0.6289 -2.5100  2.9537
 6082TIP3   OH242440   1.686   5.650   2.403 -0.0853 -0.1009  0.4886
 6082TIP3    H142441   1.747   5.581   2.377 -0.3615 -0.4720  0.8110
 6082TIP3    H242442   1.610   5.637   2.346 -0.0803  0.0204  0.4555
 6083TIP3   OH242443   3.386   5.147   3.154  0.0245  0.1290 -0.2882
 6083TIP3    H142444   3.461   5.152   3.213 -0.1426 -0.3573 -0.0279
 6083TIP3    H242445   3.316   5.109   3.207 -0.4509  0.6919 -0.4905
 6084TIP3   OH242446   6.034   2.815   1.346 -0.0253  0.0137 -0.3218
 6084TIP3    H142447   6.092   2.778   1.413 -0.9729 -0.8917  0.0347
 6084TIP3    H242448   6.086   2.884   1.304 -0.0558  2.0543  2.7008
 6085TIP3   OH242449   6.642   1.137   2.229 -0.5960  0.0565  0.3170
 6085TIP3    H142450   6.581   1.108   2.297  1.2042  3.7723  3.9204
 6085TIP3    H242451   6.724   1.091   2.249  0.0971  1.5757  1.0776
 6086TIP3   OH242452   1.786   5.110   2.130 -0.0631  0.2527  0.0556
 6086TIP3    H142453   1.762   5.175   2.063 -0.3310  1.5647  1.3753
 6086TIP3    H242454   1.871   5.140   2.163  0.0126 -0.3203  0.3879
 6087TIP3   OH242455   6.014   1.925   3.111 -0.2539  0.8347  0.6523
 6087TIP3    H142456   6.004   1.944   3.204  0.3585 -0.8423  1.0935
 6087TIP3    H242457   6.106   1.944   3.091 -0.1912  0.4571  0.5752
 6088TIP3   OH242458   1.215   1.169   2.619 -0.3634  0.6580 -0.2068
 6088TIP3    H142459   1.138   1.207   2.577 -0.4093 -0.7654 -1.4862
 6088TIP3    H242460   1.192   1.164   2.711 -1.5283  0.9253 -0.4646
 6089TIP3   OH242461   6.098   1.554   2.980 -0.1089 -0.1304 -0.0021
 6089TIP3    H142462   6.157   1.480   2.998  0.5901  0.6792  1.2140
 6089TIP3    H242463   6.032   1.518   2.920  1.6846 -1.0307 -1.5363
 6090TIP3   OH242464   3.808   4.629   1.795  0.3658  0.2278 -0.4547
 6090TIP3    H142465   3.732   4.616   1.738  0.0424 -0.2054  0.0639
 6090TIP3    H242466   3.785   4.584   1.876  0.3472  1.7448  0.4258
 6091TIP3   OH242467   6.248   0.367   2.647 -0.0669  0.0401  0.1379
 6091TIP3    H142468   6.187   0.326   2.708 -0.7873 -0.0327 -0.6059
 6091TIP3    H242469   6.199   0.440   2.609 -0.1672 -0.8026 -1.4310
 6092TIP3   OH242470   0.387   4.846   1.381  0.2294  0.3744 -0.2630
 6092TIP3    H142471   0.357   4.802   1.301  1.3046  1.1590 -1.1213
 6092TIP3    H242472   0.426   4.776   1.433 -1.5051 -0.3547  0.1230
 6093TIP3   OH242473   3.376   2.591   1.763 -0.0984  0.0564 -0.0632
 6093TIP3    H142474   3.451   2.640   1.796 -0.9396  0.7323  0.8905
 6093TIP3    H242475   3.415   2.515   1.719  1.1412  0.3348  0.5034
 6094TIP3   OH242476   0.406   6.054   1.764  0.9134 -0.1727  0.0223
 6094TIP3    H142477   0.464   6.055   1.689  1.0430  1.0697  0.1156
 6094TIP3    H242478   0.452   6.104   1.831  0.9823 -1.6015  1.0837
 6095TIP3   OH242479   3.223   2.520   2.258 -0.2251 -0.5243 -0.3033
 6095TIP3    H142480   3.144   2.527   2.312 -0.7249  0.1686 -1.0882
 6095TIP3    H242481   3.269   2.603   2.272 -1.9032  1.0959 -3.1944
 6096TIP3   OH242482   6.339   4.840   2.600  0.4443 -0.1557  0.4288
 6096TIP3    H142483   6.244   4.847   2.606  0.4234  1.0685 -0.8191
 6096TIP3    H242484   6.359   4.755   2.639 -0.9151  0.5120  2.8215
 6097TIP3   OH242485   5.567   2.642   1.321 -0.4025  1.1132  0.2568
 6097TIP3    H142486   5.561   2.719   1.377  1.5829  1.6273 -0.1615
 6097TIP3    H242487   5.640   2.592   1.357  0.9406  1.4726 -1.8427
 6098TIP3   OH242488   2.877   0.617   2.176 -0.2762 -0.2831 -0.2920
 6098TIP3    H142489   2.910   0.629   2.087  1.9723 -2.7740  0.0861
 6098TIP3    H242490   2.820   0.540   2.170 -1.7152  0.7141  0.1151
 6099TIP3   OH242491   6.230   5.712   2.923  0.3507 -0.4060 -0.0986
 6099TIP3    H142492   6.297   5.721   2.854  1.6593 -1.8277  0.9149
 6099TIP3    H242493   6.148   5.699   2.875  0.8097  1.1316 -1.3811
 6100TIP3   OH242494   3.017   2.630   0.928  0.0288 -0.1599  0.1232
 6100TIP3    H142495   3.102   2.586   0.926 -0.2180 -0.6536  0.2520
 6100TIP3    H242496   2.956   2.562   0.956 -0.4217  0.1709 -0.0471
 6101TIP3   OH242497   6.402   2.758   2.886 -0.0846  0.5682 -0.0456
 6101TIP3    H142498   6.390   2.685   2.947 -0.3944  0.1896 -0.5543
 6101TIP3    H242499   6.330   2.750   2.824 -0.5072  1.7088  0.2779
 6102TIP3   OH242500   0.165   4.354   2.240 -0.0319  0.0044  0.2687
 6102TIP3    H142501   0.173   4.349   2.335 -0.1180 -0.3484  0.2587
 6102TIP3    H242502   0.110   4.431   2.225  0.0111  0.0816  0.5023
 6103TIP3   OH242503   6.395   2.443   0.390 -0.5101  0.0741  0.2946
 6103TIP3    H142504   6.328   2.474   0.329 -0.2644 -0.8322 -0.4558
 6103TIP3    H242505   6.397   2.348   0.379  0.0404 -0.0402  1.2054
 6104TIP3   OH242506   4.105   6.093   2.880 -0.8658  0.1101 -0.0485
 6104TIP3    H142507   4.043   6.031   2.839 -0.8318 -0.3088  0.5280
 6104TIP3    H242508   4.144   6.139   2.806  1.0324 -2.3501 -0.7143
 6105TIP3   OH242509   3.612   5.236   3.305 -0.2095  0.1775  0.3964
 6105TIP3    H142510   3.639   5.327   3.292 -0.2818 -0.2221 -4.0266
 6105TIP3    H242511   3.693   5.187   3.305 -0.3017  0.0170 -0.2858
 6106TIP3   OH242512   4.683   4.626   3.863  0.7105  0.0458  0.0408
 6106TIP3    H142513   4.770   4.624   3.823  1.4091  0.4144  1.4764
 6106TIP3    H242514   4.699   4.654   3.953 -1.0920  1.8142 -0.1218
 6107TIP3   OH242515   5.052   3.555   1.498 -0.5910  0.1239  0.3541
 6107TIP3    H142516   5.143   3.529   1.480  0.2267  0.8078  3.1142
 6107TIP3    H242517   5.050   3.649   1.480 -1.3291 -0.1927 -1.5069
 6108TIP3   OH242518   4.293   0.404   3.734  0.5498 -0.2841 -0.7909
 6108TIP3    H142519   4.328   0.474   3.679  2.4312 -0.0339  0.6303
 6108TIP3    H242520   4.318   0.429   3.823 -1.2290 -1.3504  0.0576
 6109TIP3   OH242521   1.439   5.365   1.429  0.1996  0.0564 -0.0627
 6109TIP3    H142522   1.511   5.402   1.479 -0.8108  1.2942  0.5316
 6109TIP3    H242523   1.361   5.386   1.480 -0.8084  0.8068 -1.8183
 6110TIP3   OH242524   4.392   1.570   3.903 -0.1550 -0.1955  0.0397
 6110TIP3    H142525   4.324   1.586   3.968  1.6208  2.1978  1.4905
 6110TIP3    H242526   4.393   1.648   3.849  0.2348 -0.9985 -1.1550
 6111TIP3   OH242527   4.158   4.252   2.543  0.1174 -0.4378  0.3848
 6111TIP3    H142528   4.194   4.330   2.502  0.1156 -0.2239  0.7884
 6111TIP3    H242529   4.163   4.269   2.637  0.4646 -1.0749  0.4917
 6112TIP3   OH242530   2.364   4.202   3.176 -0.3225 -0.7652 -0.4314
 6112TIP3    H142531   2.301   4.183   3.245 -0.2973 -0.0025 -0.1925
 6112TIP3    H242532   2.391   4.116   3.144 -0.1204 -1.1323  0.6944
 6113TIP3   OH242533   3.268   5.518   2.809 -0.4036 -0.1953 -0.5124
 6113TIP3    H142534   3.319   5.450   2.763  0.8592  0.1961  0.2700
 6113TIP3    H242535   3.209   5.468   2.865 -2.3266 -0.7047 -2.8235
 6114TIP3   OH242536   4.397   5.941   1.892 -0.1116  0.4143  0.1594
 6114TIP3    H142537   4.367   6.031   1.899 -0.5224  0.2669  0.3248
 6114TIP3    H242538   4.417   5.929   1.799  1.7052  1.2275  0.4086
 6115TIP3   OH242539   5.769   6.789   1.910 -0.1021  0.4010  0.0229
 6115TIP3    H142540   5.781   6.861   1.972  4.0706  0.0178 -0.0090
 6115TIP3    H242541   5.740   6.832   1.829  0.7436  1.8857  0.4644
 6116TIP3   OH242542   6.068   6.138   1.898 -0.0407  0.5738 -0.2525
 6116TIP3    H142543   6.136   6.171   1.957 -0.5048  0.7448  0.1873
 6116TIP3    H242544   6.027   6.066   1.945 -0.6670  0.9557 -0.2062
 6117TIP3   OH242545   5.998   0.183   1.104  0.3928  0.7634  0.3244
 6117TIP3    H142546   5.953   0.244   1.163 -0.4838  0.6810 -0.2525
 6117TIP3    H242547   5.974   0.213   1.016  0.9617  0.3316  0.0181
 6118TIP3   OH242548   4.564   1.426   2.526 -0.3963 -0.2297 -0.5065
 6118TIP3    H142549   4.501   1.370   2.570  0.9274 -0.6861  0.9010
 6118TIP3    H242550   4.615   1.466   2.597  0.3515  0.7618 -1.5599
 6119TIP3   OH242551   0.128   1.126   2.536 -0.9328  0.0043 -0.1225
 6119TIP3    H142552   0.149   1.215   2.565 -0.3388 -0.2046  0.1079
 6119TIP3    H242553   0.211   1.079   2.541 -0.9622 -0.2305 -1.5136
 6120TIP3   OH242554   1.674   5.028   3.324 -0.3428 -0.4890 -0.0877
 6120TIP3    H142555   1.650   5.120   3.311 -0.6092 -0.7014 -1.2330
 6120TIP3    H242556   1.747   5.030   3.385  1.9284  0.7723 -2.6377
 6121TIP3   OH242557   1.865   2.285   3.332 -0.3840  0.2209  0.4578
 6121TIP3    H142558   1.894   2.374   3.311  1.9136 -0.7693 -0.9941
 6121TIP3    H242559   1.807   2.260   3.260  1.8768 -0.6692 -1.1552
 6122TIP3   OH242560   2.860   3.659   1.286 -0.6209  0.5831 -0.0042
 6122TIP3    H142561   2.806   3.620   1.217 -2.1195  1.7173  0.4593
 6122TIP3    H242562   2.848   3.754   1.274 -0.8056  0.7948  1.7156
 6123TIP3   OH242563   4.935   1.122   2.734 -0.1279 -0.7386  0.4958
 6123TIP3    H142564   4.945   1.215   2.714  0.3749 -0.9257 -0.1470
 6123TIP3    H242565   4.854   1.096   2.689  0.9057 -1.1170 -1.2166
 6124TIP3   OH242566   5.054   6.040   1.803 -0.0006 -0.4541  0.0922
 6124TIP3    H142567   5.105   6.063   1.881 -1.5973 -0.1939  1.0992
 6124TIP3    H242568   5.051   6.120   1.751 -0.4430 -0.1024  0.6520
 6125TIP3   OH242569   6.177   4.410   2.489  0.1582 -0.0938 -0.0889
 6125TIP3    H142570   6.269   4.404   2.466  0.7081  0.3777  1.7689
 6125TIP3    H242571   6.171   4.367   2.575 -0.9292  1.5937  0.7478
 6126TIP3   OH242572   6.126   5.540   1.127 -0.1786 -0.3537  0.8804
 6126TIP3    H142573   6.182   5.610   1.161  1.5677 -0.8994 -0.6853
 6126TIP3    H242574   6.122   5.475   1.197 -1.6434  1.1533  2.2734
 6127TIP3   OH242575   3.262   2.700   3.759  0.5221 -0.5106  0.0557
 6127TIP3    H142576   3.191   2.657   3.711 -0.0981 -1.3936  1.6602
 6127TIP3    H242577   3.217   2.767   3.811  0.6848 -1.7014  1.8008
 6128TIP3   OH242578   4.692   0.079   0.899  0.2188  0.3369  0.1150
 6128TIP3    H142579   4.646   0.048   0.820  2.2242  0.1492 -1.0527
 6128TIP3    H242580   4.763   0.133   0.865  1.4989 -0.2364  1.7718
 6129TIP3   OH242581   2.253   1.235   0.797  0.0520  0.1290  0.2100
 6129TIP3    H142582   2.280   1.144   0.810 -0.2779  0.0481  0.3327
 6129TIP3    H242583   2.247   1.271   0.886 -2.0970 -0.3926  0.3191
 6130TIP3   OH242584   2.211   3.015   3.094  0.7347  0.3217 -0.5109
 6130TIP3    H142585   2.252   2.987   3.176  0.1648  3.3397  0.9424
 6130TIP3    H242586   2.265   3.087   3.064 -0.3782  0.7560 -1.5576
 6131TIP3   OH242587   6.708   6.466   1.990 -0.0974  0.0362  0.7709
 6131TIP3    H142588   6.742   6.449   1.902 -1.8949 -1.5910  0.3453
 6131TIP3    H242589   6.674   6.382   2.020 -0.5370  0.8134  2.5883
 6132TIP3   OH242590   2.531   0.394   1.483 -0.2270  0.5909 -0.6616
 6132TIP3    H142591   2.557   0.477   1.443 -1.4573  0.9233 -0.7944
 6132TIP3    H242592   2.436   0.396   1.484 -0.2600 -0.2167  0.6177
 6133TIP3   OH242593   4.621   5.891   2.617  0.2804 -0.0336 -0.3922
 6133TIP3    H142594   4.666   5.971   2.644 -3.4600  1.9569  0.6919
 6133TIP3    H242595   4.632   5.831   2.691  0.2926  0.7938  0.2961
 6134TIP3   OH242596   0.478   0.930   0.793 -0.1428  0.1387 -0.1460
 6134TIP3    H142597   0.497   0.890   0.708  0.7450  2.4263 -1.1130
 6134TIP3    H242598   0.394   0.974   0.780 -0.9901 -1.1182  0.8257
 6135TIP3   OH242599   5.528   3.601   1.555 -0.2358 -0.4108  0.0793
 6135TIP3    H142600   5.550   3.644   1.637 -1.0309 -0.4933  0.3385
 6135TIP3    H242601   5.580   3.520   1.556  0.6541  0.1446 -0.0526
 6136TIP3   OH242602   0.836   4.711   1.902 -0.1630  0.0899 -0.3580
 6136TIP3    H142603   0.879   4.626   1.905 -0.3730  0.0092  1.1879
 6136TIP3    H242604   0.896   4.767   1.854  0.6448 -0.5643 -0.1291
 6137TIP3   OH242605   2.370   4.525   1.556  0.0059 -0.8809 -0.4137
 6137TIP3    H142606   2.449   4.526   1.501  0.9270 -1.0885  0.8517
 6137TIP3    H242607   2.309   4.583   1.511  1.4710  0.5833 -0.6088
 6138TIP3   OH242608   3.324   2.292   2.853  0.0296  0.1095 -0.5604
 6138TIP3    H142609   3.410   2.328   2.877  0.5471  0.0523 -2.2297
 6138TIP3    H242610   3.276   2.366   2.817 -0.0141 -0.2038 -1.1574
 6139TIP3   OH242611   0.756   1.337   2.279  0.1347 -0.2625  0.2949
 6139TIP3    H142612   0.824   1.276   2.248  2.1096  2.1656 -0.5001
 6139TIP3    H242613   0.763   1.334   2.374  2.7048  1.1980  0.2406
 6140TIP3   OH242614   2.197   1.234   1.996 -0.0088 -0.3079 -0.4029
 6140TIP3    H142615   2.137   1.240   2.071  0.0496  3.1177 -0.4631
 6140TIP3    H242616   2.238   1.148   2.005 -0.8124 -0.4906  2.8622
 6141TIP3   OH242617   1.072   5.866   2.124 -0.1198  0.5121 -0.5574
 6141TIP3    H142618   1.130   5.935   2.158  0.1153  0.8164 -1.5552
 6141TIP3    H242619   1.068   5.882   2.030  0.9612 -1.5724 -1.0345
 6142TIP3   OH242620   4.005   4.491   3.112 -0.0521 -0.2310  0.2380
 6142TIP3    H142621   4.027   4.398   3.118 -0.2083 -0.1880  2.2208
 6142TIP3    H242622   4.075   4.529   3.060  0.5314 -1.3100  0.2086
 6143TIP3   OH242623   3.137   3.086   2.653  0.0064  0.4516 -0.0850
 6143TIP3    H142624   3.080   3.022   2.610 -0.8455  1.2265 -0.1297
 6143TIP3    H242625   3.219   3.081   2.604 -0.1909 -0.3104 -0.3499
 6144TIP3   OH242626   1.467   0.169   2.408  0.0961 -0.1257  0.3751
 6144TIP3    H142627   1.478   0.171   2.503 -0.5371  1.7930  0.4330
 6144TIP3    H242628   1.382   0.127   2.395  0.3837 -0.8081  0.6103
 6145TIP3   OH242629   5.722   1.570   3.631  0.3954 -0.4872 -0.2138
 6145TIP3    H142630   5.752   1.661   3.631 -0.0830 -0.3218  0.4840
 6145TIP3    H242631   5.801   1.519   3.620  0.7943 -0.0163  0.4224
 6146TIP3   OH242632   1.227   5.471   2.583  0.4285 -0.6583 -0.4164
 6146TIP3    H142633   1.285   5.403   2.550  0.2357 -0.8604 -0.3396
 6146TIP3    H242634   1.247   5.478   2.677  0.3478 -0.7101 -0.3950
 6147TIP3   OH242635   1.986   3.919   2.160  0.4301 -0.2252  0.2791
 6147TIP3    H142636   2.032   3.895   2.080 -0.0154 -0.3644  0.0631
 6147TIP3    H242637   1.994   3.842   2.216  0.4404 -0.2569  0.2338
 6148TIP3   OH242638   3.813   1.710   4.123  0.6546  0.4199  0.3784
 6148TIP3    H142639   3.861   1.729   4.043  0.5182  0.8188  0.3905
 6148TIP3    H242640   3.813   1.614   4.129 -1.3017  0.2357 -1.3295
 6149TIP3   OH242641   6.099   4.343   0.909  0.0236  0.1963  0.1633
 6149TIP3    H142642   6.124   4.358   0.818 -1.9720  0.0516 -0.4597
 6149TIP3    H242643   6.098   4.248   0.918 -2.1605  0.1236 -0.4297
 6150TIP3   OH242644   6.244   3.841   1.068 -0.3315  0.5252 -0.0703
 6150TIP3    H142645   6.331   3.810   1.041 -0.1744  0.8547  0.0489
 6150TIP3    H242646   6.216   3.899   0.998 -0.7788 -0.1494 -0.4627
 6151TIP3   OH242647   3.574   6.493   2.233  0.4225  0.3164 -0.2659
 6151TIP3    H142648   3.535   6.430   2.295  0.8891  0.1213 -0.1645
 6151TIP3    H242649   3.506   6.559   2.221 -0.1535 -0.2988 -0.5177
 6152TIP3   OH242650   2.088   0.098   2.920 -0.1230  0.0132  0.5547
 6152TIP3    H142651   2.071   0.005   2.934  0.4128  0.0646  1.6232
 6152TIP3    H242652   2.160   0.119   2.979 -1.1664  1.4210  1.4028
 6153TIP3   OH242653   2.423   2.571   2.970  0.5389  0.5076  0.0836
 6153TIP3    H142654   2.478   2.566   3.048  1.6799  0.9356 -0.6736
 6153TIP3    H242655   2.397   2.480   2.953  0.4214  0.3902  0.8500
 6154TIP3   OH242656   0.387   3.260   3.818 -0.0972  0.1009  0.6939
 6154TIP3    H142657   0.413   3.278   3.728 -3.9663  1.1916 -0.3793
 6154TIP3    H242658   0.466   3.224   3.859  2.2204  0.8725 -2.6812
 6155TIP3   OH242659   5.344   5.765   1.718  0.1038 -1.0570 -0.4087
 6155TIP3    H142660   5.313   5.837   1.664  1.1349 -1.6452 -1.8519
 6155TIP3    H242661   5.274   5.699   1.713 -0.1325 -0.8073 -0.4014
 6156TIP3   OH242662   0.011   4.646   1.005  0.3221  0.3765  0.4277
 6156TIP3    H142663   0.013   4.582   0.934  1.1377 -0.5551  1.2596
 6156TIP3    H242664  -0.056   4.613   1.065 -0.3737  1.1652  0.0987
 6157TIP3   OH242665   5.660   3.759   2.642 -0.3408  0.2429  0.0084
 6157TIP3    H142666   5.715   3.776   2.719  0.7014 -0.9970 -0.4323
 6157TIP3    H242667   5.670   3.666   2.626 -0.3441  0.5259 -1.7825
 6158TIP3   OH242668   1.436   1.144   2.200 -0.2662 -0.1501 -1.2869
 6158TIP3    H142669   1.493   1.090   2.145 -0.8698 -1.3408 -0.7758
 6158TIP3    H242670   1.392   1.202   2.138  0.6724  0.0329 -1.8040
 6159TIP3   OH242671   4.966   4.381   2.525  0.5748 -0.0107  0.0066
 6159TIP3    H142672   4.995   4.404   2.437  0.4878  1.1709  0.2745
 6159TIP3    H242673   5.022   4.307   2.551 -0.0046 -0.9700 -1.3670
 6160TIP3   OH242674   2.787   1.493   2.380 -0.4584 -0.3406  0.6897
 6160TIP3    H142675   2.776   1.521   2.289 -0.9487  1.8149  1.3431
 6160TIP3    H242676   2.879   1.465   2.385 -1.2162 -3.5885 -1.1525
 6161TIP3   OH242677   3.184   3.250   1.925 -0.4381 -0.1651 -0.2076
 6161TIP3    H142678   3.129   3.207   1.859  1.4180 -0.1961 -1.8489
 6161TIP3    H242679   3.184   3.343   1.900 -1.5142  0.2249  1.1395
 6162TIP3   OH242680   2.347   5.121   1.142  0.6777 -0.4202 -0.2161
 6162TIP3    H142681   2.316   5.185   1.207 -0.1180  1.1893 -2.1039
 6162TIP3    H242682   2.304   5.039   1.168  0.9635 -0.0140  1.7073
 6163TIP3   OH242683   5.363   3.128   2.131  0.1932 -0.7198 -0.6511
 6163TIP3    H142684   5.345   3.162   2.043 -2.0968  0.9804  0.3784
 6163TIP3    H242685   5.279   3.091   2.159  0.5236 -0.1161  1.2663
 6164TIP3   OH242686   1.841   6.650   0.989 -0.1353  0.4929 -0.2912
 6164TIP3    H142687   1.848   6.624   1.081 -0.1554 -1.3886 -0.7756
 6164TIP3    H242688   1.749   6.634   0.967  0.0089  0.3437 -0.7958
 6165TIP3   OH242689   4.836   1.384   2.708  0.4966  0.0771  0.0026
 6165TIP3    H142690   4.819   1.475   2.732 -0.7166  0.2103 -1.2111
 6165TIP3    H242691   4.769   1.334   2.753  0.2969 -0.0447 -0.4192
 6166TIP3   OH242692   2.116   1.758   1.903  0.4749  0.2389  0.2947
 6166TIP3    H142693   2.081   1.758   1.992  0.0227 -1.0033  0.1351
 6166TIP3    H242694   2.192   1.700   1.907  0.5817  0.3486 -0.0840
 6167TIP3   OH242695   2.434   2.460   1.148  0.2307  0.2868 -0.1380
 6167TIP3    H142696   2.497   2.396   1.117  1.3294  0.5754  1.3951
 6167TIP3    H242697   2.382   2.412   1.213  1.0836  0.9362  1.0432
 6168TIP3   OH242698   4.036   5.509   3.320  0.6592  0.4478 -0.4463
 6168TIP3    H142699   4.003   5.589   3.279  0.7115  0.3072 -0.7644
 6168TIP3    H242700   4.059   5.536   3.409 -0.8652  0.4169 -0.0072
 6169TIP3   OH242701   3.577   3.880   9.899  0.0091 -0.6387  1.0490
 6169TIP3    H142702   3.631   3.940   9.847 -1.6921  0.9378  0.9874
 6169TIP3    H242703   3.557   3.808   9.839 -0.7339  0.4446 -0.0788
 6170TIP3   OH242704   1.144   3.095   2.837  0.0890 -0.6014 -0.2472
 6170TIP3    H142705   1.213   3.133   2.891  0.7987 -0.5639 -1.1670
 6170TIP3    H242706   1.124   3.163   2.773 -1.1118 -0.4425  0.2608
 6171TIP3   OH242707   1.962   1.869   1.200 -0.3020  0.1469 -0.2719
 6171TIP3    H142708   1.929   1.940   1.256  0.9782  0.8934 -0.4226
 6171TIP3    H242709   1.900   1.798   1.212 -1.6210  1.2865 -0.0890
 6172TIP3   OH242710   6.476   5.061   2.738 -0.2299  0.3276 -0.1571
 6172TIP3    H142711   6.462   5.148   2.699  0.8257  0.2525 -0.7555
 6172TIP3    H242712   6.435   5.000   2.677  1.7245  0.1802 -1.4332
 6173TIP3   OH242713   3.988   0.711   3.133 -0.3494 -0.1934 -0.6063
 6173TIP3    H142714   4.078   0.680   3.142 -0.3818 -0.3789 -0.9167
 6173TIP3    H242715   3.950   0.657   3.063 -1.8058 -2.5918  1.8341
 6174TIP3   OH242716   2.601   0.695   1.068 -0.5771  0.1688 -0.5064
 6174TIP3    H142717   2.536   0.627   1.052 -0.0012 -1.1801  2.2632
 6174TIP3    H242718   2.631   0.720   0.981 -1.0311 -2.9162 -1.6896
 6175TIP3   OH242719   2.831   0.643   1.451 -0.1703  0.2541 -0.0261
 6175TIP3    H142720   2.895   0.701   1.410 -0.6467 -0.5039 -1.9069
 6175TIP3    H242721   2.881   0.564   1.474 -0.1541  0.2064 -0.2292
 6176TIP3   OH242722   3.378   3.523   3.401  0.2310 -0.1859 -0.1740
 6176TIP3    H142723   3.473   3.507   3.409  0.4004  0.4716 -0.7505
 6176TIP3    H242724   3.357   3.578   3.477  1.1337  3.0564 -2.0794
 6177TIP3   OH242725   1.966   3.471   1.059 -0.0911  0.1776 -0.7281
 6177TIP3    H142726   2.061   3.461   1.054 -0.3220 -2.1449 -1.9206
 6177TIP3    H242727   1.947   3.551   1.009  1.1910  0.3910 -0.8976
 6178TIP3   OH242728   1.842   0.159   0.875  0.1770  0.6348 -0.0521
 6178TIP3    H142729   1.761   0.143   0.924  0.8218 -0.7533  0.5936
 6178TIP3    H242730   1.891   0.221   0.929  1.0778 -1.2107  1.3486
 6179TIP3   OH242731   3.032   2.260   2.253  0.2198  0.3082  0.1417
 6179TIP3    H142732   2.956   2.269   2.195  1.3059  1.5538 -1.1536
 6179TIP3    H242733   3.036   2.344   2.299  0.5807  0.0924  0.5063
 6180TIP3   OH242734   6.217   1.757   2.139  0.1869 -0.3526 -0.6906
 6180TIP3    H142735   6.191   1.845   2.110  0.0906 -0.5017 -1.0694
 6180TIP3    H242736   6.305   1.768   2.174 -0.5528  0.2796  1.1384
 6181TIP3   OH242737   3.739   5.612   2.580 -0.0215  0.1492 -0.0246
 6181TIP3    H142738   3.833   5.628   2.588  0.0550 -0.2971 -0.0065
 6181TIP3    H242739   3.730   5.517   2.589 -0.5644  0.2737  0.8628
 6182TIP3   OH242740   0.293   5.313   2.799  0.6289 -0.1325 -0.4606
 6182TIP3    H142741   0.318   5.272   2.881  1.2268 -0.5089 -0.8291
 6182TIP3    H242742   0.249   5.394   2.825  0.3696 -0.4955  0.2374
 6183TIP3   OH242743   4.907   1.534   1.516 -0.4539  0.0820 -0.3363
 6183TIP3    H142744   4.929   1.448   1.480  0.2910  0.0281  0.2310
 6183TIP3    H242745   4.975   1.552   1.580 -1.4351  0.4352  0.6352
 6184TIP3   OH242746   4.549   5.041   2.883  0.0915  0.1133  0.6606
 6184TIP3    H142747   4.604   5.058   2.806  0.3216  1.7921  1.1535
 6184TIP3    H242748   4.591   4.967   2.926  0.6284 -0.1016 -0.1987
 6185TIP3   OH242749   3.614   3.000   4.584  0.1755 -0.0674 -0.2126
 6185TIP3    H142750   3.551   2.938   4.620 -1.1645  2.0091  1.2754
 6185TIP3    H242751   3.621   3.069   4.651  2.5964  0.7441 -1.1813
 6186TIP3   OH242752   1.802   2.326   2.870  0.3137  0.2055 -0.5211
 6186TIP3    H142753   1.888   2.294   2.898 -0.2215 -0.4961  0.3762
 6186TIP3    H242754   1.821   2.408   2.824  1.6721 -1.0270 -2.3261
 6187TIP3   OH242755   4.481   5.519   1.493 -0.0361 -0.1459  0.3648
 6187TIP3    H142756   4.436   5.565   1.422 -2.4834  0.1268  1.9547
 6187TIP3    H242757   4.496   5.431   1.458 -1.8631 -0.2510 -0.2876
 6188TIP3   OH242758   4.928   6.720   0.992 -0.9539  0.0417 -0.3821
 6188TIP3    H142759   4.842   6.758   0.973 -0.6918  1.2217  0.6889
 6188TIP3    H242760   4.980   6.793   1.025 -0.0113 -0.9798  0.4553
 6189TIP3   OH242761   6.317   3.446   2.741  0.5584 -0.0493 -0.3028
 6189TIP3    H142762   6.272   3.524   2.708  0.0763 -0.4451 -0.6046
 6189TIP3    H242763   6.360   3.409   2.664  1.2852  0.2391 -0.0447
 6190TIP3   OH242764   2.202   1.219   2.591  0.7047  0.3350 -0.4076
 6190TIP3    H142765   2.215   1.314   2.591 -1.2554  0.6567 -1.3480
 6190TIP3    H242766   2.129   1.205   2.531  1.0988 -1.8118 -0.4595
 6191TIP3   OH242767   5.508   6.563   3.181  0.4327 -0.3012  0.4932
 6191TIP3    H142768   5.583   6.598   3.133  2.2524 -0.3144  3.1733
 6191TIP3    H242769   5.506   6.470   3.158 -0.2015  0.1059 -1.2970
 6192TIP3   OH242770   6.620   6.547   0.534 -0.2113  0.0308 -0.0426
 6192TIP3    H142771   6.579   6.531   0.619 -0.8074 -0.1629 -0.3622
 6192TIP3    H242772   6.700   6.494   0.535 -0.4643 -0.3525  0.2108
 6193TIP3   OH242773   2.263   3.276   1.966 -0.1935 -0.1748 -0.3608
 6193TIP3    H142774   2.318   3.299   1.892 -1.3180  0.6861 -0.9668
 6193TIP3    H242775   2.224   3.358   1.994  2.7807  0.2154  3.4748
 6194TIP3   OH242776   2.998   2.989   0.627  0.1403  0.0101 -0.3584
 6194TIP3    H142777   2.965   3.075   0.600 -1.6052 -0.5769 -0.2243
 6194TIP3    H242778   3.084   3.008   0.665  0.6191  1.4439 -1.9904
 6195TIP3   OH242779   0.948   0.326   1.232  0.2723  0.0943  0.3815
 6195TIP3    H142780   0.916   0.367   1.312 -0.0418  1.2934 -0.3178
 6195TIP3    H242781   0.984   0.399   1.181 -1.2591 -0.2888 -1.3928
 6196TIP3   OH242782   3.929   3.777   1.346 -0.2870 -0.2085 -0.6766
 6196TIP3    H142783   3.999   3.841   1.352 -0.4269  0.2261 -2.7941
 6196TIP3    H242784   3.849   3.829   1.340 -0.8910 -0.6935  1.8961
 6197TIP3   OH242785   2.713   6.559   4.340  0.5410 -0.1641 -0.0208
 6197TIP3    H142786   2.664   6.504   4.401  1.8009 -1.0594  0.2178
 6197TIP3    H242787   2.724   6.642   4.387 -2.3547  0.7829 -0.8247
 6198TIP3   OH242788   4.807   1.006   3.229 -0.1211  0.6851  0.7842
 6198TIP3    H142789   4.872   1.076   3.239  1.3256 -0.7612  2.1646
 6198TIP3    H242790   4.852   0.938   3.180 -1.2473  0.3958  0.1268
 6199TIP3   OH242791   5.274   6.399   3.378  0.4388 -0.2376 -0.1083
 6199TIP3    H142792   5.356   6.357   3.354 -0.1525 -0.8284 -1.1493
 6199TIP3    H242793   5.207   6.352   3.328 -0.5920 -0.0567  1.0456
 6200TIP3   OH242794   0.792   0.329   3.236  0.3432 -1.0461 -0.3051
 6200TIP3    H142795   0.784   0.238   3.207  0.0051 -0.8916 -0.7217
 6200TIP3    H242796   0.715   0.344   3.291 -1.7804  0.0674 -3.2815
 6201TIP3   OH242797   0.097   5.024   0.734  0.2559 -0.5146  0.0144
 6201TIP3    H142798   0.108   5.004   0.641 -0.6239  0.1865 -0.2532
 6201TIP3    H242799   0.083   4.939   0.775 -0.3277 -0.7478 -0.6438
 6202TIP3   OH242800   0.305   3.240   0.818 -0.0856  0.8168  0.0675
 6202TIP3    H142801   0.213   3.221   0.832 -0.1898 -0.3413 -1.9070
 6202TIP3    H242802   0.351   3.162   0.849 -0.0177  0.1208 -1.6846
 6203TIP3   OH242803   0.243   4.177   1.735  0.4726 -0.0923  0.6019
 6203TIP3    H142804   0.273   4.207   1.650 -0.3370 -1.2295 -0.1192
 6203TIP3    H242805   0.323   4.160   1.785  0.9624 -0.0286 -0.1478
 6204TIP3   OH242806   2.284   1.744   1.399  0.3269 -0.0575  0.2946
 6204TIP3    H142807   2.366   1.740   1.350 -0.5939 -1.8656 -1.2542
 6204TIP3    H242808   2.255   1.653   1.404 -0.9875  0.4061  1.8702
 6205TIP3   OH242809   5.448   4.362   3.623  0.3998  0.0024 -0.0816
 6205TIP3    H142810   5.465   4.376   3.716 -1.9784 -1.5355  0.6783
 6205TIP3    H242811   5.433   4.449   3.588 -0.4130  0.4907  1.3888
 6206TIP3   OH242812   3.704   6.504   3.554  0.4983  0.0521 -0.3655
 6206TIP3    H142813   3.737   6.593   3.565 -0.5490  0.3539  0.4802
 6206TIP3    H242814   3.685   6.474   3.643  1.0144 -1.0853 -0.6300
 6207TIP3   OH242815   3.917   4.766   2.437 -0.5612  0.3475 -0.3995
 6207TIP3    H142816   4.005   4.802   2.444 -1.0460  1.7810 -1.4037
 6207TIP3    H242817   3.861   4.826   2.486 -1.2879  0.6589 -1.5593
 6208TIP3   OH242818   0.159   1.745   2.785  0.1025  0.2818 -0.1576
 6208TIP3    H142819   0.248   1.780   2.775 -0.1682  0.7146 -1.2586
 6208TIP3    H242820   0.102   1.818   2.759 -0.4895 -0.7739 -2.0385
 6209TIP3   OH242821   5.874   3.256   3.153 -0.1452 -0.1956  0.4662
 6209TIP3    H142822   5.844   3.299   3.073 -0.6563 -1.4378 -0.0310
 6209TIP3    H242823   5.897   3.328   3.212 -2.6243  0.8129  0.3172
 6210TIP3   OH242824   3.466   6.366   1.589  0.3942 -0.4250  0.6839
 6210TIP3    H142825   3.503   6.293   1.540 -0.7934 -1.0917  0.7306
 6210TIP3    H242826   3.418   6.324   1.661  0.4065  0.4386  1.1993
 6211TIP3   OH242827   6.398   5.289   3.090  0.3051 -0.1715  0.4231
 6211TIP3    H142828   6.389   5.333   3.006  2.0495 -0.1764  0.2049
 6211TIP3    H242829   6.312   5.297   3.130 -1.1042 -1.6969 -2.0722
 6212TIP3   OH242830   6.707   3.514   1.657  0.4914  0.2889  0.4819
 6212TIP3    H142831   6.793   3.552   1.636  0.5423  0.4621  0.9782
 6212TIP3    H242832   6.727   3.436   1.708  0.3663 -0.0034  0.0843
 6213TIP3   OH242833   5.501   5.972   1.487  0.2701 -0.3685 -0.2770
 6213TIP3    H142834   5.439   5.922   1.434  0.4920 -0.0922 -0.8024
 6213TIP3    H242835   5.454   6.054   1.507  1.1033  0.6599 -2.2383
 6214TIP3   OH242836   5.813   0.396   1.723 -0.2866 -0.0578 -0.4466
 6214TIP3    H142837   5.770   0.314   1.749  0.4076 -0.0051  0.9958
 6214TIP3    H242838   5.777   0.416   1.637 -1.6513 -1.0489 -0.1424
 6215TIP3   OH242839   6.422   2.209   3.428 -0.4267 -0.2489  0.5851
 6215TIP3    H142840   6.409   2.204   3.523 -0.4826 -0.0474  0.5894
 6215TIP3    H242841   6.517   2.222   3.418 -0.7283  2.6098  0.7483
 6216TIP3   OH242842   0.933   3.613   3.003 -0.0382  0.5805  0.3853
 6216TIP3    H142843   0.891   3.567   3.075  0.8962  0.2264  0.7273
 6216TIP3    H242844   0.910   3.705   3.016 -0.0112  0.4969  1.0373
 6217TIP3   OH242845   2.632   2.376   2.920 -0.9295 -0.2712 -0.2851
 6217TIP3    H142846   2.639   2.446   2.856  1.6099 -0.4009 -0.2665
 6217TIP3    H242847   2.566   2.316   2.884 -1.5270  1.0044 -1.3847
 6218TIP3   OH242848   3.485   5.865   1.598  0.4566 -0.7074 -0.0823
 6218TIP3    H142849   3.540   5.823   1.664  1.5927 -1.3536 -1.3702
 6218TIP3    H242850   3.429   5.794   1.565 -0.0968 -0.3934  0.1724
 6219TIP3   OH242851   6.211   2.563   3.235 -0.0804  0.1731 -0.7533
 6219TIP3    H142852   6.152   2.527   3.302  0.1499  1.8155  0.4075
 6219TIP3    H242853   6.213   2.497   3.166 -0.7135 -1.3809  0.6496
 6220TIP3   OH242854   1.104   2.605   2.086 -0.4913  0.0036 -0.5918
 6220TIP3    H142855   1.171   2.611   2.154 -1.8075 -1.5902  0.9089
 6220TIP3    H242856   1.105   2.513   2.059 -2.4390 -0.1941 -0.1136
 6221TIP3   OH242857   3.018   0.721   3.868  0.0780  0.1150  0.4644
 6221TIP3    H142858   2.930   0.685   3.880 -0.3888  1.0105 -0.1772
 6221TIP3    H242859   3.029   0.782   3.940 -1.2500  2.6575 -1.3360
 6222TIP3   OH242860   3.136   1.103   1.848 -0.0136 -0.4537  0.0955
 6222TIP3    H142861   3.092   1.053   1.918  0.7751 -0.4337  0.6170
 6222TIP3    H242862   3.074   1.173   1.826 -0.8639 -1.2788 -0.2041
 6223TIP3   OH242863   6.224   3.679   2.662 -0.4010  0.3343  0.2879
 6223TIP3    H142864   6.192   3.748   2.720  0.8392  1.1336  0.0428
 6223TIP3    H242865   6.177   3.693   2.580  0.2179  1.2303  0.0696
 6224TIP3   OH242866   0.256   4.772   1.657 -0.1985  0.1970 -0.2615
 6224TIP3    H142867   0.180   4.790   1.712 -0.2544 -0.3638 -0.1457
 6224TIP3    H242868   0.312   4.849   1.667 -1.2315  1.0965 -1.1916
 6225TIP3   OH242869   5.876   5.794   2.539 -0.1086 -0.6302  0.2038
 6225TIP3    H142870   5.881   5.889   2.533  2.9064 -0.6862  0.4461
 6225TIP3    H242871   5.862   5.765   2.449  1.5395 -0.0060 -0.2852
 6226TIP3   OH242872   0.266   3.881   1.267 -0.4403  0.0479  0.3743
 6226TIP3    H142873   0.189   3.897   1.213 -0.2350 -0.2370 -0.0129
 6226TIP3    H242874   0.331   3.945   1.237  0.5544 -1.7042 -1.5277
 6227TIP3   OH242875   1.410   5.032   1.673  0.2499  0.7639  0.4689
 6227TIP3    H142876   1.381   5.061   1.586 -0.5203 -0.2421  0.3725
 6227TIP3    H242877   1.398   4.937   1.671  1.5472  0.5713  1.1968
 6228TIP3   OH242878   5.997   4.302   1.717  0.5894  0.5855  0.0006
 6228TIP3    H142879   6.053   4.311   1.795  1.4192 -0.4561 -0.4428
 6228TIP3    H242880   5.941   4.379   1.719 -0.0314  0.1513  2.1241
 6229TIP3   OH242881   1.662   1.697   1.765 -0.2578 -0.1746 -0.0732
 6229TIP3    H142882   1.662   1.756   1.690 -3.0172 -0.7974 -0.7004
 6229TIP3    H242883   1.711   1.620   1.736 -1.3078 -0.4145 -1.3116
 6230TIP3   OH242884   1.060   1.488   2.080 -0.2266 -0.4349 -0.3190
 6230TIP3    H142885   1.139   1.535   2.054 -0.0233 -1.9935 -2.8480
 6230TIP3    H242886   0.989   1.551   2.068  0.3025  0.0446 -0.9770
 6231TIP3   OH242887   3.951   4.789   1.010 -0.5469 -0.0141  0.6754
 6231TIP3    H142888   3.964   4.713   1.067  0.3907 -0.0728  0.3889
 6231TIP3    H242889   4.008   4.856   1.046 -0.0753  0.0043 -0.0865
 6232TIP3   OH242890   4.416   0.916   2.711  0.4328  0.2249 -0.7800
 6232TIP3    H142891   4.364   0.839   2.735 -0.0405  1.4250  2.6380
 6232TIP3    H242892   4.507   0.887   2.718  0.2523 -0.1758 -0.0432
 6233TIP3   OH242893   2.091   4.677   0.869  0.2127 -0.7242 -0.0886
 6233TIP3    H142894   2.113   4.736   0.941  0.1491 -0.8748  0.0551
 6233TIP3    H242895   2.068   4.736   0.797 -0.5783 -0.5604  0.2778
 6234TIP3   OH242896   4.296   2.889   1.739 -0.4222  0.3997 -0.4070
 6234TIP3    H142897   4.289   2.968   1.793 -1.1153 -0.1878  0.3910
 6234TIP3    H242898   4.208   2.853   1.738 -0.4156  0.3864 -1.9457
 6235TIP3   OH242899   3.768   6.688   1.563  0.0704  0.3662  0.1406
 6235TIP3    H142900   3.682   6.659   1.593  0.4487 -0.2081  0.6962
 6235TIP3    H242901   3.781   6.643   1.479 -0.8706  1.7584 -0.8012
 6236TIP3   OH242902   0.622   5.759   1.425 -0.3555  0.2660  0.2515
 6236TIP3    H142903   0.544   5.809   1.398  1.4265  3.3026  0.3272
 6236TIP3    H242904   0.671   5.746   1.344 -0.3055 -0.5779  0.3999
 6237TIP3   OH242905   2.376   0.104   2.038  0.6322 -0.1263  0.1498
 6237TIP3    H142906   2.314   0.163   1.995  0.5807 -0.1697  0.1647
 6237TIP3    H242907   2.375   0.025   1.984  0.9598  0.0152 -0.0659
 6238TIP3   OH242908   6.175   2.753   2.581 -0.1719  0.0617 -0.2021
 6238TIP3    H142909   6.128   2.670   2.592 -1.1153  0.5499 -0.5276
 6238TIP3    H242910   6.242   2.733   2.515 -0.8533 -0.2641 -0.8100
 6239TIP3   OH242911   0.663   6.619   1.490 -0.3569 -0.4004  0.4586
 6239TIP3    H142912   0.700   6.567   1.561 -0.4436 -1.1873 -0.0653
 6239TIP3    H242913   0.739   6.655   1.445 -0.3075  0.7278  1.3822
 6240TIP3   OH242914   0.493   4.625   0.906 -0.1341  0.4974 -0.6488
 6240TIP3    H142915   0.519   4.555   0.965  1.0991  0.6538 -0.9725
 6240TIP3    H242916   0.504   4.588   0.818 -1.0940  0.5587 -0.8098
 6241TIP3   OH242917   0.363   4.373   2.531  0.1139  0.6598 -0.3214
 6241TIP3    H142918   0.310   4.451   2.516 -1.6873 -0.4357  0.0948
 6241TIP3    H242919   0.303   4.310   2.570  1.6680 -0.7500 -0.0865
 6242TIP3   OH242920   1.061   0.154   3.427  0.2786 -0.2272  0.1196
 6242TIP3    H142921   1.008   0.116   3.356 -2.3208  0.7758  1.3926
 6242TIP3    H242922   1.057   0.088   3.496  2.2075 -0.8836 -0.3339
 6243TIP3   OH242923   4.362   3.253   3.248 -0.4105  0.0524  0.2641
 6243TIP3    H142924   4.271   3.248   3.219 -0.5400  2.9032 -0.1075
 6243TIP3    H242925   4.358   3.234   3.341 -1.2298 -0.8840  0.0517
 6244TIP3   OH242926   1.460   5.959   1.509  0.1302 -0.0073 -0.2600
 6244TIP3    H142927   1.523   6.014   1.461  0.8460 -0.3641  0.2529
 6244TIP3    H242928   1.378   6.009   1.507  0.4623  0.5343 -0.8118
 6245TIP3   OH242929   6.296   5.606   1.336 -0.2990  0.2033  0.0660
 6245TIP3    H142930   6.356   5.675   1.308  0.1598 -0.8925 -1.8880
 6245TIP3    H242931   6.349   5.526   1.336 -0.9702 -0.2779  1.6437
 6246TIP3   OH242932   0.580   4.003   2.289 -0.2761 -0.8812  0.2207
 6246TIP3    H142933   0.587   4.028   2.381 -0.8917  2.1202 -0.4138
 6246TIP3    H242934   0.486   3.990   2.275 -0.5860  1.4601 -0.4723
 6247TIP3   OH242935   4.194   1.156   3.465 -0.1124  0.0333  0.2454
 6247TIP3    H142936   4.165   1.100   3.537  0.6630 -1.0562 -0.2604
 6247TIP3    H242937   4.266   1.108   3.424 -1.0039  0.2588 -1.7267
 6248TIP3   OH242938   2.752   1.079   3.072 -0.6163  0.2894 -0.0647
 6248TIP3    H142939   2.721   1.044   3.155  0.5905  0.3125  0.4048
 6248TIP3    H242940   2.727   1.172   3.074  0.5760  0.6070  0.8640
 6249TIP3   OH242941   3.293   6.480   4.016  0.0257  0.2243  0.7760
 6249TIP3    H142942   3.290   6.575   4.025  0.0943  0.4806 -1.5031
 6249TIP3    H242943   3.205   6.451   4.040 -0.3170  0.9657  0.4510
 6250TIP3   OH242944   2.731   5.246   3.161  0.3843  0.5101 -0.2414
 6250TIP3    H142945   2.708   5.198   3.240  1.1876 -0.3294 -0.5014
 6250TIP3    H242946   2.740   5.337   3.191  1.1947  0.1317  0.7564
 6251TIP3   OH242947   4.164   1.106   2.144 -0.1243  0.2506 -0.0716
 6251TIP3    H142948   4.093   1.130   2.084  1.2092  0.3927 -1.6748
 6251TIP3    H242949   4.242   1.144   2.104  0.8320  0.4163  1.8330
 6252TIP3   OH242950   6.177   5.751   3.779  0.2241 -0.4288 -0.1084
 6252TIP3    H142951   6.171   5.846   3.773  1.7800 -0.2788  0.1888
 6252TIP3    H242952   6.090   5.722   3.806  0.2802  1.1146  1.9789
 6253TIP3   OH242953   4.512   2.129   3.168 -0.0687  0.1639 -0.6447
 6253TIP3    H142954   4.487   2.101   3.256  0.4945  1.7132  0.0447
 6253TIP3    H242955   4.586   2.072   3.145  0.0591  0.0288  0.0714
 6254TIP3   OH242956   5.174   2.555   2.711 -0.1880  1.1745  0.1209
 6254TIP3    H142957   5.215   2.636   2.681  1.9646  0.0960 -0.0473
 6254TIP3    H242958   5.213   2.539   2.797 -0.1792  0.0610 -0.0711
 6255TIP3   OH242959   1.750   3.544   2.895  0.4822  0.3067 -0.2076
 6255TIP3    H142960   1.654   3.548   2.887  0.5288 -0.1908 -1.2435
 6255TIP3    H242961   1.767   3.460   2.936  0.5263 -0.4894 -1.7675
 6256TIP3   OH242962   5.652   5.631   3.633  0.2059  0.8714 -0.0525
 6256TIP3    H142963   5.727   5.626   3.692  0.4977  4.0904  0.0608
 6256TIP3    H242964   5.584   5.673   3.685 -1.2885 -0.7920 -0.5646
 6257TIP3   OH242965   2.552   0.660   1.344 -0.4074 -0.0412  0.3235
 6257TIP3    H142966   2.556   0.672   1.249 -1.4113  1.8858  0.4642
 6257TIP3    H242967   2.621   0.717   1.378  1.4163 -2.3498  0.7275
 6258TIP3   OH242968   4.436   2.045   3.436  0.6969  0.0962  0.0514
 6258TIP3    H142969   4.457   1.956   3.408  0.6903  0.3285 -0.7188
 6258TIP3    H242970   4.459   2.048   3.529 -1.7136 -1.5048  0.8129
 6259TIP3   OH242971   2.886   5.532   4.089  0.3083 -0.2237 -0.6117
 6259TIP3    H142972   2.943   5.547   4.165  0.0819 -1.4083 -0.1731
 6259TIP3    H242973   2.798   5.551   4.121  0.4918  3.1549 -1.7234
 6260TIP3   OH242974   1.260   4.368   2.677 -0.5972  0.4078 -0.1473
 6260TIP3    H142975   1.291   4.456   2.658  0.9143 -0.2670 -0.9249
 6260TIP3    H242976   1.172   4.381   2.712 -0.5313  2.1924 -0.5627
 6261TIP3   OH242977   4.701   4.602   2.249  0.2661  0.2683 -0.2147
 6261TIP3    H142978   4.660   4.518   2.228  2.5310 -0.9976  0.1340
 6261TIP3    H242979   4.628   4.663   2.254 -1.2684 -1.1863 -2.6930
 6262TIP3   OH242980   6.555   6.726   3.382 -0.0613 -0.0161  0.2160
 6262TIP3    H142981   6.580   6.799   3.439 -0.7143 -0.2263  0.7893
 6262TIP3    H242982   6.510   6.768   3.309 -0.0453  0.1886  0.3197
 6263TIP3   OH242983   1.400   0.885   1.476 -0.0579 -0.2325 -0.5533
 6263TIP3    H142984   1.422   0.890   1.382  0.0667 -2.0792 -0.6498
 6263TIP3    H242985   1.321   0.938   1.485  0.2059  0.3698 -1.6044
 6264TIP3   OH242986   0.440   5.645   3.369 -0.3798  0.1966  0.4690
 6264TIP3    H142987   0.406   5.670   3.282  0.5785 -1.0974 -0.3125
 6264TIP3    H242988   0.535   5.639   3.356 -0.3894 -1.8120  1.1243
 6265TIP3   OH242989   3.632   1.630   1.784 -0.4581 -0.5244 -0.2041
 6265TIP3    H142990   3.670   1.618   1.697  0.7738  1.5516 -0.0269
 6265TIP3    H242991   3.665   1.556   1.836 -0.8242 -1.5163 -1.3524
 6266TIP3   OH242992   5.342   6.416   0.971  0.0501 -0.0798 -0.1314
 6266TIP3    H142993   5.345   6.444   1.062  0.2785 -1.4007  0.2819
 6266TIP3    H242994   5.258   6.450   0.938  0.1118  0.6795  0.4620
 6267TIP3   OH242995   2.540   3.551   1.280  0.6543 -0.5899 -0.0241
 6267TIP3    H142996   2.571   3.461   1.284  2.2865 -0.0304  0.7346
 6267TIP3    H242997   2.587   3.590   1.207 -0.3525 -0.4430 -0.6125
 6268TIP3   OH242998   3.249   2.502   0.993  0.0452 -1.0699 -0.1823
 6268TIP3    H142999   3.247   2.407   0.984  1.2077 -1.0318 -1.1525
 6268TIP3    H243000   3.337   2.520   1.027 -1.5556 -0.6039  4.2507
 6269TIP3   OH243001   0.284   5.179   3.452  0.0282  0.6633 -0.1576
 6269TIP3    H143002   0.252   5.089   3.460 -0.4829  0.7380 -1.2013
 6269TIP3    H243003   0.217   5.233   3.494  1.2152  0.4496  2.1636
 6270TIP3   OH243004   2.649   3.159   2.877  0.0426  0.2053 -0.1187
 6270TIP3    H143005   2.638   3.225   2.809 -1.3450 -0.2665 -0.3793
 6270TIP3    H243006   2.743   3.157   2.893  0.2985  0.9593 -1.3847
 6271TIP3   OH243007   2.927   0.000   2.319 -0.0144  0.2974 -0.0204
 6271TIP3    H143008   2.897  -0.008   2.410 -1.2889  0.2935 -0.4275
 6271TIP3    H243009   2.850  -0.019   2.266  0.5056  1.0937 -1.1107
 6272TIP3   OH243010   3.827   4.550   3.779 -0.1732 -0.0627  0.1783
 6272TIP3    H143011   3.760   4.526   3.715 -1.7886  0.4090  1.6174
 6272TIP3    H243012   3.811   4.492   3.854  1.2723 -0.1878  0.4185
 6273TIP3   OH243013   2.766   3.569   3.786  0.0001 -0.0521  0.4131
 6273TIP3    H143014   2.814   3.570   3.703 -2.4270  0.7290 -1.0807
 6273TIP3    H243015   2.824   3.614   3.848  1.6521 -0.1976 -0.9623
 6274TIP3   OH243016   0.043   3.805   3.458  0.1923  0.2128 -1.1231
 6274TIP3    H143017  -0.032   3.862   3.441 -0.4349 -0.7421 -1.7036
 6274TIP3    H243018   0.004   3.726   3.498  1.3601  1.5572  3.2785
 6275TIP3   OH243019   5.839   2.649   2.068  0.4928 -0.2508 -0.0480
 6275TIP3    H143020   5.784   2.634   1.991 -0.8777  0.5171  0.7449
 6275TIP3    H243021   5.845   2.744   2.075  0.2825 -0.3001  1.0050
 6276TIP3   OH243022   1.963   0.660   0.628  0.9571 -0.8375  0.2866
 6276TIP3    H143023   2.029   0.671   0.697  2.7766 -1.3019 -1.2788
 6276TIP3    H243024   1.995   0.586   0.576  0.0245 -0.0730 -1.4530
 6277TIP3   OH243025   4.527   0.262   3.421 -1.0816  0.0329 -0.1805
 6277TIP3    H143026   4.450   0.254   3.364 -1.5210 -2.1247  0.6162
 6277TIP3    H243027   4.497   0.232   3.507  0.2812  0.6133  0.5403
 6278TIP3   OH243028   4.750   3.832   3.027 -0.2465  0.6559 -0.5402
 6278TIP3    H143029   4.668   3.863   3.066 -0.2484 -0.0332  0.0184
 6278TIP3    H243030   4.739   3.846   2.933 -0.4443  1.8710 -0.3603
 6279TIP3   OH243031   3.690   0.722   1.322 -0.0347  0.1491  0.1217
 6279TIP3    H143032   3.701   0.816   1.306  1.6888  0.2301  1.4711
 6279TIP3    H243033   3.699   0.682   1.236 -3.5380  1.3322 -0.9618
 6280TIP3   OH243034   0.522   3.845   1.039 -0.3549 -0.5170 -0.1967
 6280TIP3    H143035   0.474   3.762   1.039  0.9593 -1.3188  0.6980
 6280TIP3    H243036   0.606   3.824   1.081 -0.4287  1.5161  1.0794
 6281TIP3   OH243037   1.453   2.613   0.667 -0.1971 -0.0100 -0.2855
 6281TIP3    H143038   1.379   2.602   0.727  0.8228  0.8916  1.2219
 6281TIP3    H243039   1.419   2.590   0.581 -1.3301 -2.8046  0.8198
 6282TIP3   OH243040   3.552   2.674   3.050  0.1038 -0.1567 -0.5780
 6282TIP3    H143041   3.510   2.593   3.081  0.7944 -0.5993 -0.7727
 6282TIP3    H243042   3.570   2.657   2.958  0.1316  0.2772 -0.6532
 6283TIP3   OH243043   6.089   6.706   2.221 -1.0690 -0.0640  0.6850
 6283TIP3    H143044   6.184   6.712   2.214 -1.0018  0.1513  1.5543
 6283TIP3    H243045   6.061   6.795   2.243 -1.6159  0.1731 -0.8847
 6284TIP3   OH243046   4.946   0.800   1.756  0.2697 -0.0663  0.4639
 6284TIP3    H143047   4.869   0.856   1.744 -0.4691 -1.2517 -0.5587
 6284TIP3    H243048   5.002   0.849   1.817 -0.4735  1.6238 -0.1554
 6285TIP3   OH243049   0.980   1.563   3.294 -0.3978  0.0138  0.1400
 6285TIP3    H143050   1.065   1.545   3.253 -0.2948 -1.7511  1.0374
 6285TIP3    H243051   0.931   1.612   3.227  1.1503  0.6961 -0.5502
 6286TIP3   OH243052   1.294   2.436   3.311  0.1525 -0.0026  0.0057
 6286TIP3    H143053   1.222   2.379   3.285  0.6974 -0.5282 -0.3728
 6286TIP3    H243054   1.296   2.430   3.407 -0.3436  0.0630  0.0193
 6287TIP3   OH243055   5.324   1.555   3.006  0.0697  0.2731  0.0699
 6287TIP3    H143056   5.418   1.537   3.007 -0.2087 -1.5069  1.9085
 6287TIP3    H243057   5.316   1.640   3.050  0.7288 -0.6362  2.0915
 6288TIP3   OH243058   2.387   2.449   2.668  0.0273 -0.7238  0.1657
 6288TIP3    H143059   2.439   2.391   2.612  0.7315 -1.0274  1.0992
 6288TIP3    H243060   2.308   2.399   2.688 -2.4378  0.9827 -4.0224
 6289TIP3   OH243061   3.318   5.701   0.874 -0.1664  0.2028 -0.3627
 6289TIP3    H143062   3.377   5.774   0.853 -0.0499  0.2438  0.0912
 6289TIP3    H243063   3.249   5.740   0.927 -0.4380  0.0954 -0.6348
 6290TIP3   OH243064   1.496   2.048   1.947 -0.5776 -0.2204  0.2348
 6290TIP3    H143065   1.473   2.139   1.962 -1.0021 -0.4051  0.7355
 6290TIP3    H243066   1.540   2.048   1.862 -1.4641  0.3038 -0.2407
 6291TIP3   OH243067   6.141   1.969   1.767  0.0638 -0.3059 -0.0518
 6291TIP3    H143068   6.141   2.026   1.845 -1.1293 -1.9000  1.1784
 6291TIP3    H243069   6.177   1.886   1.799 -2.3757 -1.6619 -0.6203
 6292TIP3   OH243070   2.766   2.257   1.245  0.0539  0.2762 -0.1144
 6292TIP3    H143071   2.860   2.270   1.232 -0.2223  0.3985 -2.3785
 6292TIP3    H243072   2.740   2.327   1.305  1.3666  0.2580  0.5261
 6293TIP3   OH243073   1.050   5.302   3.465  0.7492 -0.2599  0.1877
 6293TIP3    H143074   1.039   5.396   3.456  1.6573 -0.0519  1.1277
 6293TIP3    H243075   0.992   5.277   3.537  0.5957 -0.4010  0.0165
 6294TIP3   OH243076   5.149   4.180   1.408  0.2969  0.0305  0.6211
 6294TIP3    H143077   5.175   4.221   1.491  1.3003  0.3273  0.1761
 6294TIP3    H243078   5.183   4.239   1.341 -1.1242  0.1672 -0.0199
 6295TIP3   OH243079   2.419   3.188   3.398  0.6195 -0.1900 -0.6589
 6295TIP3    H143080   2.360   3.256   3.366  1.4184  0.3548 -1.0054
 6295TIP3    H243081   2.479   3.234   3.458 -0.9160 -1.1928  1.8206
 6296TIP3   OH243082   5.912   5.377   2.444  0.3195  0.2975  0.3113
 6296TIP3    H143083   5.823   5.406   2.421 -0.4644 -3.0108 -1.3867
 6296TIP3    H243084   5.969   5.425   2.384 -0.5431  0.7528 -0.1666
 6297TIP3   OH243085   4.473   2.217   1.875  0.5750 -0.1575 -0.0679
 6297TIP3    H143086   4.423   2.210   1.957  0.3171  0.3173 -0.1806
 6297TIP3    H243087   4.478   2.311   1.858  0.4579 -0.2606 -0.6993
 6298TIP3   OH243088   1.459   0.138   2.687 -0.1295  0.1167 -0.1703
 6298TIP3    H143089   1.534   0.194   2.710 -0.6799  0.8088 -0.0300
 6298TIP3    H243090   1.388   0.168   2.743 -0.4028 -0.8439  0.0248
 6299TIP3   OH243091   2.402   6.193   5.098 -0.0281  0.2740 -0.9600
 6299TIP3    H143092   2.357   6.240   5.027 -0.8895 -0.2565 -0.7826
 6299TIP3    H243093   2.484   6.163   5.059  0.3565  1.5591 -1.1932
 6300TIP3   OH243094   6.504   3.207   1.948  0.6056 -0.2336 -0.1875
 6300TIP3    H143095   6.436   3.140   1.957 -0.2681  0.8305  1.9755
 6300TIP3    H243096   6.486   3.249   1.864 -2.4551  0.9990  0.9268
 6301TIP3   OH243097   5.193   1.718   3.852  0.1697 -0.0284  0.2081
 6301TIP3    H143098   5.278   1.696   3.814 -1.3435 -0.6011 -3.2803
 6301TIP3    H243099   5.153   1.776   3.787 -2.1610  0.1389  1.6839
 6302TIP3   OH243100   3.763   5.336   1.187 -0.0392 -0.9390  0.1544
 6302TIP3    H143101   3.831   5.375   1.132  0.4482 -1.2458  0.5249
 6302TIP3    H243102   3.785   5.243   1.189  0.5976 -0.7811  1.7388
 6303TIP3   OH243103   1.087   3.471   0.780  0.5882 -0.0057  0.0966
 6303TIP3    H143104   1.007   3.499   0.736  0.5692  0.3729  0.3628
 6303TIP3    H243105   1.130   3.553   0.805 -0.0051 -0.1884  1.8841
 6304TIP3   OH243106   5.971   5.483   3.631  0.1232 -0.0840 -0.1628
 6304TIP3    H143107   5.967   5.418   3.701 -3.2891 -1.9369 -1.8379
 6304TIP3    H243108   5.941   5.564   3.672 -0.8099 -0.8886  0.8148
 6305TIP3   OH243109   4.292   3.171   1.821  0.1995 -0.4644  0.0400
 6305TIP3    H143110   4.295   3.217   1.905  0.1667 -0.0778 -0.1671
 6305TIP3    H243111   4.248   3.232   1.762  1.1334 -0.3041 -0.5155
 6306TIP3   OH243112   3.662   0.876   0.707 -0.1503  0.0635  0.3606
 6306TIP3    H143113   3.681   0.921   0.625  0.2370 -1.3152 -0.3328
 6306TIP3    H243114   3.578   0.912   0.736 -0.2670  0.5980 -0.6068
 6307TIP3   OH243115   2.247   1.498   3.005  0.1262 -0.0499  0.5171
 6307TIP3    H143116   2.255   1.406   3.030 -0.5683  0.1766  1.6382
 6307TIP3    H243117   2.337   1.531   3.006  0.4523 -0.8627 -0.5320
 6308TIP3   OH243118   4.579   3.969   2.798 -0.3688  0.0477 -0.2437
 6308TIP3    H143119   4.501   3.999   2.753  0.2518 -0.3507 -1.6338
 6308TIP3    H243120   4.553   3.962   2.890 -1.2270  2.3989 -0.2497
 6309TIP3   OH243121   3.829   2.937   2.486 -0.1817 -0.3562 -0.3056
 6309TIP3    H143122   3.768   2.966   2.554 -0.5261 -0.4334 -0.5775
 6309TIP3    H243123   3.893   3.007   2.480 -1.1347  0.4671 -1.1200
 6310TIP3   OH243124   3.057   5.892   3.395 -0.1686  0.5693  0.5633
 6310TIP3    H143125   3.137   5.893   3.342  1.0894  1.7863  2.3284
 6310TIP3    H243126   3.078   5.832   3.467 -1.4418 -0.2749  0.2472
 6311TIP3   OH243127   6.587   3.971   1.195 -0.3052 -0.3318  0.4646
 6311TIP3    H143128   6.645   3.964   1.271 -0.7695 -0.0317  0.8552
 6311TIP3    H243129   6.640   4.012   1.127  0.9940 -3.0394 -0.3105
 6312TIP3   OH243130   2.663   1.052   0.431 -0.3957  0.1482 -0.1221
 6312TIP3    H143131   2.756   1.063   0.450 -0.3862 -1.3031  0.8401
 6312TIP3    H243132   2.659   0.974   0.376 -1.0866 -0.1792  0.3735
 6313TIP3   OH243133   4.597   5.465   2.746 -0.3095 -0.3843 -0.1960
 6313TIP3    H143134   4.605   5.480   2.651  1.2115  0.0718 -0.0310
 6313TIP3    H243135   4.640   5.541   2.785  0.4964 -1.3411  0.8246
 6314TIP3   OH243136   5.474   4.759   2.567 -0.4782  0.1193 -0.1580
 6314TIP3    H143137   5.474   4.844   2.523  1.4474 -0.1228 -0.7080
 6314TIP3    H243138   5.557   4.757   2.615 -1.2469 -0.8001  1.1865
 6315TIP3   OH243139   5.275   0.786   2.075  0.2059  0.0783  0.4002
 6315TIP3    H143140   5.216   0.834   2.017  0.8311 -0.3916 -0.6571
 6315TIP3    H243141   5.336   0.852   2.108  0.2964  0.2314 -0.0661
 6316TIP3   OH243142   6.471   5.046   1.501  0.0884 -0.0286  0.0494
 6316TIP3    H143143   6.519   5.080   1.426 -0.8341  0.6307 -0.2712
 6316TIP3    H243144   6.381   5.076   1.487  0.0413  0.7930  1.8021
 6317TIP3   OH243145   4.632   1.200   2.787  0.2682 -0.6511 -0.2662
 6317TIP3    H143146   4.594   1.205   2.875  1.8499 -0.9492  0.4552
 6317TIP3    H243147   4.600   1.116   2.753 -0.0497 -0.7160  0.1704
 6318TIP3   OH243148   0.678   4.232   1.837  0.1756 -0.2321  0.1897
 6318TIP3    H143149   0.755   4.235   1.894 -0.5446  1.0414  1.1466
 6318TIP3    H243150   0.694   4.157   1.779  1.7648 -0.4608  0.8688
 6319TIP3   OH243151   0.280   5.743   0.996  0.2783 -0.7956 -0.1005
 6319TIP3    H143152   0.310   5.680   0.930  0.0278 -1.3475  0.3024
 6319TIP3    H243153   0.250   5.818   0.945  4.2227  0.7408 -0.4953
 6320TIP3   OH243154   3.629   2.596   3.531  0.2922 -0.1795  0.0086
 6320TIP3    H143155   3.699   2.581   3.595  0.5280 -0.5207 -0.3204
 6320TIP3    H243156   3.664   2.562   3.449  0.1506  0.6340 -0.3955
 6321TIP3   OH243157   2.069   5.921   3.175 -0.3434  0.0381 -0.1780
 6321TIP3    H143158   2.039   5.949   3.089 -0.2117  2.4600  0.4908
 6321TIP3    H243159   2.150   5.969   3.190  0.5232 -1.5932  0.6513
 6322TIP3   OH243160   4.714   5.897   1.222  0.2561  0.0951  0.4208
 6322TIP3    H143161   4.708   5.814   1.175 -1.3901  0.1074  0.5645
 6322TIP3    H243162   4.670   5.882   1.305 -0.4168  1.2063  0.2952
 6323TIP3   OH243163   2.713   6.710   1.155 -0.2051 -0.3065 -0.0547
 6323TIP3    H143164   2.658   6.697   1.078 -0.6664  1.1697 -0.0141
 6323TIP3    H243165   2.774   6.780   1.129 -0.4949  0.3506  0.9641
 6324TIP3   OH243166   4.577   0.639   1.617 -0.2475  0.5523  0.2796
 6324TIP3    H143167   4.658   0.595   1.642 -0.2190  0.0622 -0.6264
 6324TIP3    H243168   4.567   0.620   1.524 -1.4805  0.4833  0.4049
 6325TIP3   OH243169   1.791   0.861   3.053  0.2187 -0.4347 -0.5095
 6325TIP3    H143170   1.864   0.898   3.103 -0.6256 -0.4998  0.8018
 6325TIP3    H243171   1.829   0.841   2.968  1.3013  1.1604 -0.4459
 6326TIP3   OH243172   3.528   6.340   4.064 -0.4145  0.1504  0.2289
 6326TIP3    H143173   3.442   6.299   4.075  0.0737 -1.0173 -0.1674
 6326TIP3    H243174   3.516   6.428   4.099 -1.7828  0.0272  0.1493
 6327TIP3   OH243175   2.994   0.896   0.946 -0.0095  0.0807 -0.0456
 6327TIP3    H143176   3.057   0.893   1.018 -0.0565  1.2025  0.0589
 6327TIP3    H243177   2.977   0.804   0.925  0.0118 -0.2622  1.3716
 6328TIP3   OH243178   2.199   3.853   1.406 -0.4392 -0.0556  0.0998
 6328TIP3    H143179   2.270   3.822   1.462 -0.7405 -1.1236 -0.0813
 6328TIP3    H243180   2.221   3.944   1.388  1.1495 -0.4856 -0.3456
 6329TIP3   OH243181   2.520   5.288   1.656 -0.3527  0.3151  0.5098
 6329TIP3    H143182   2.452   5.270   1.721 -0.7664  1.5814  0.4488
 6329TIP3    H243183   2.489   5.245   1.576 -0.6223  0.1052  0.7260
 6330TIP3   OH243184   5.399   6.780   1.446 -0.3576  0.7388  0.2057
 6330TIP3    H143185   5.365   6.865   1.475 -0.2168  0.9118 -0.1316
 6330TIP3    H243186   5.355   6.716   1.503  0.3188  1.1045  1.1539
 6331TIP3   OH243187   5.722   6.182   0.867 -0.7354  0.3096 -0.6390
 6331TIP3    H143188   5.657   6.158   0.933  0.1428 -0.9110 -0.1793
 6331TIP3    H243189   5.714   6.115   0.799 -0.3868  0.5043 -0.8797
 6332TIP3   OH243190   1.302   3.434   2.119 -0.1143 -0.0483  0.0362
 6332TIP3    H143191   1.353   3.479   2.186 -0.6433 -0.5112  0.7559
 6332TIP3    H243192   1.294   3.499   2.048  3.1332 -0.5616 -1.0050
 6333TIP3   OH243193   1.869   4.839   2.810 -0.0113 -0.7840 -0.0609
 6333TIP3    H143194   1.926   4.890   2.752 -1.0031  0.2751 -0.1467
 6333TIP3    H243195   1.781   4.851   2.774 -0.2810 -2.6745 -0.1384
 6334TIP3   OH243196   2.881   1.117   2.498  0.3292  0.0540 -0.3855
 6334TIP3    H143197   2.869   1.128   2.404  0.6339  1.6463 -0.2716
 6334TIP3    H243198   2.797   1.141   2.536  0.3781 -0.0154 -0.2319
 6335TIP3   OH243199   3.747   5.307   2.605  0.0362  0.4567 -0.4148
 6335TIP3    H143200   3.787   5.293   2.691 -0.9031 -0.0929 -0.0471
 6335TIP3    H243201   3.814   5.351   2.554  0.8263  0.2432  0.4165
 6336TIP3   OH243202   6.143   6.490   3.733  0.0432  0.0732 -0.9821
 6336TIP3    H143203   6.152   6.470   3.827 -2.0704  1.2266 -0.4727
 6336TIP3    H243204   6.177   6.412   3.689  2.2313 -0.0269  0.6713
 6337TIP3   OH243205   4.628   4.834   3.042 -0.5427  0.0911  0.2040
 6337TIP3    H143206   4.679   4.754   3.035  0.3878  0.7272 -0.5578
 6337TIP3    H243207   4.630   4.857   3.135  3.2519  1.7765 -0.1464
 6338TIP3   OH243208   3.441   6.689   2.424  0.0133 -0.2857 -0.0686
 6338TIP3    H143209   3.534   6.708   2.411 -0.1224  0.2312 -0.2953
 6338TIP3    H243210   3.396   6.762   2.384 -0.5010 -0.6157 -0.0956
 6339TIP3   OH243211   2.665   6.117   3.495  0.1432  0.0523  0.3200
 6339TIP3    H143212   2.658   6.140   3.588  0.2893  1.3426  0.0188
 6339TIP3    H243213   2.760   6.108   3.481  0.1091 -0.3702  0.3385
 6340TIP3   OH243214   2.965   1.259   1.729  0.3665 -0.3328  0.8023
 6340TIP3    H143215   2.886   1.298   1.693  1.2691  2.2160  1.3596
 6340TIP3    H243216   2.989   1.317   1.801  1.2136 -2.6236  2.4916
 6341TIP3   OH243217   5.614   5.064   0.960  0.2469  0.1806 -0.3375
 6341TIP3    H143218   5.549   5.134   0.962  1.1543  1.0916  1.9167
 6341TIP3    H243219   5.695   5.108   0.935  0.7277 -0.1003  0.6476
 6342TIP3   OH243220   4.525   4.298   3.336 -0.7606  0.0469 -0.1220
 6342TIP3    H143221   4.546   4.391   3.327  1.5629 -0.2596  1.1690
 6342TIP3    H243222   4.500   4.288   3.428 -2.6903 -0.3482 -0.6599
 6343TIP3   OH243223   5.623   2.828   3.103  0.3589  0.0300  0.1433
 6343TIP3    H143224   5.700   2.823   3.047 -0.3848  0.8109 -0.9813
 6343TIP3    H243225   5.616   2.920   3.128 -0.7480  0.1709 -0.5837
 6344TIP3   OH243226   1.922   1.523   1.696 -0.6060 -0.2501  0.1081
 6344TIP3    H143227   1.988   1.575   1.743 -0.6352 -0.6473  0.5935
 6344TIP3    H243228   1.974   1.463   1.642 -0.5725  0.1721 -0.3346
 6345TIP3   OH243229   6.633   6.424   0.795 -0.5697  0.1265  0.3704
 6345TIP3    H143230   6.718   6.381   0.790 -1.2672 -1.1749 -2.2163
 6345TIP3    H243231   6.585   6.375   0.862 -0.3263 -1.2337 -0.4168
 6346TIP3   OH243232   5.067   5.374   4.108 -0.2307 -0.1861 -0.2520
 6346TIP3    H143233   5.140   5.426   4.074 -1.4444  2.9089  1.3703
 6346TIP3    H243234   4.996   5.388   4.046 -0.2244 -0.9794 -0.4464
 6347TIP3   OH243235   3.406   5.940   1.959  0.2731  0.2540 -0.8944
 6347TIP3    H143236   3.435   5.849   1.969  0.5164  0.4932  0.8270
 6347TIP3    H243237   3.484   5.992   1.977  0.7792  0.8535 -4.1744
 6348TIP3   OH243238   1.349   1.484   2.793 -0.1608  0.2845  0.0001
 6348TIP3    H143239   1.351   1.488   2.888 -1.5114 -0.5035  0.0853
 6348TIP3    H243240   1.383   1.397   2.772  0.5965  0.6397 -0.2720
 6349TIP3   OH243241   6.758   4.550   2.284 -0.0504  0.5770 -0.0366
 6349TIP3    H143242   6.772   4.638   2.249  0.5878 -0.2902 -2.0466
 6349TIP3    H243243   6.691   4.562   2.352 -0.5454  2.4903 -0.8070
 6350TIP3   OH243244   2.081   3.912   2.492 -0.2996 -0.0103 -0.2519
 6350TIP3    H143245   2.072   3.938   2.584  3.0127 -0.3252  0.2871
 6350TIP3    H243246   2.145   3.974   2.457 -0.3354 -0.8817 -1.9116
 6351TIP3   OH243247   6.220   4.697   3.001 -0.5532  0.1452  0.3251
 6351TIP3    H143248   6.271   4.777   3.013 -0.6715  0.0552  1.5427
 6351TIP3    H243249   6.208   4.690   2.906  1.0733  0.5570  0.0525
 6352TIP3   OH243250   2.782   3.808   2.376 -0.4110 -0.5131 -0.1969
 6352TIP3    H143251   2.875   3.786   2.384 -0.2290 -0.3772 -1.6321
 6352TIP3    H243252   2.781   3.904   2.370 -0.7701 -0.4204  1.0566
 6353TIP3   OH243253   0.665   3.380   2.715  0.1381  0.2080 -0.2870
 6353TIP3    H143254   0.582   3.384   2.667  0.1156 -0.5781 -0.3138
 6353TIP3    H243255   0.732   3.390   2.647  0.1188 -1.3319 -0.5604
 6354TIP3   OH243256   5.469   5.483   0.532  0.5568 -0.3028  0.7431
 6354TIP3    H143257   5.416   5.459   0.455 -0.0416  0.8128  0.7799
 6354TIP3    H243258   5.532   5.412   0.541 -0.9675 -1.7323  0.7194
 6355TIP3   OH243259   0.488   1.596   1.470 -0.7325 -0.0099 -0.1425
 6355TIP3    H143260   0.581   1.616   1.467 -0.8949  0.8199  0.2895
 6355TIP3    H243261   0.484   1.506   1.503 -0.0730 -0.2438 -0.6678
 6356TIP3   OH243262   3.215   1.213   1.448  0.6496  0.5450  0.3890
 6356TIP3    H143263   3.219   1.271   1.371 -0.7042 -0.2148 -0.3074
 6356TIP3    H243264   3.149   1.254   1.505  1.0248  0.6528  0.7469
 6357TIP3   OH243265   6.117   5.004   0.922 -0.4918 -0.5502  0.1852
 6357TIP3    H143266   6.087   4.983   0.834 -2.2282 -1.1841  0.8878
 6357TIP3    H243267   6.117   4.920   0.968 -0.4872 -0.0883  1.0476
 6358TIP3   OH243268   3.160   4.825   2.531 -0.3106 -0.1454  0.4752
 6358TIP3    H143269   3.208   4.742   2.522  1.1706  0.7928 -0.9942
 6358TIP3    H243270   3.227   4.892   2.518 -1.3306  1.3292  2.4195
 6359TIP3   OH243271   0.678   2.742   2.578  0.4967  0.1557  0.2941
 6359TIP3    H143272   0.693   2.835   2.558 -0.0460  0.0236 -0.8114
 6359TIP3    H243273   0.613   2.743   2.648  0.2318  0.6232  0.0530
 6360TIP3   OH243274   3.345   6.539   1.431  0.2375  0.0144 -0.5806
 6360TIP3    H143275   3.381   6.470   1.488  2.0480  0.6883 -0.8267
 6360TIP3    H243276   3.391   6.527   1.348  0.1257  1.1429 -0.8175
 6361TIP3   OH243277   0.712   6.446   3.445  0.8436 -0.0298 -0.0081
 6361TIP3    H143278   0.654   6.458   3.520 -0.5446  1.7579 -1.3166
 6361TIP3    H243279   0.730   6.534   3.413 -1.4436 -0.7530 -3.8770
 6362TIP3   OH243280   4.587   5.280   1.420  0.1451  0.3824 -0.0255
 6362TIP3    H143281   4.515   5.225   1.391  1.5215 -1.7606  0.3881
 6362TIP3    H243282   4.651   5.219   1.457  0.1003  2.5593  4.2218
 6363TIP3   OH243283   5.129   6.520   2.314 -0.4281 -0.3196 -0.5788
 6363TIP3    H143284   5.201   6.484   2.262 -0.0868  0.6308 -0.7796
 6363TIP3    H243285   5.147   6.490   2.403 -1.7670 -3.1266 -1.1530
 6364TIP3   OH243286   0.128   4.062   2.155  0.6983  0.2283 -0.4116
 6364TIP3    H143287   0.184   4.024   2.223 -1.1215  0.1865  1.1337
 6364TIP3    H243288   0.115   4.153   2.183  1.4597  0.7791 -1.7508
 6365TIP3   OH243289   3.296   1.547   0.685 -0.0883 -0.0909  0.0840
 6365TIP3    H143290   3.364   1.605   0.651 -1.0460  0.9632 -0.0638
 6365TIP3    H243291   3.260   1.505   0.607  2.4836 -3.1616  0.3143
 6366TIP3   OH243292   1.848   0.306   1.854  0.4492 -0.6023  0.2366
 6366TIP3    H143293   1.809   0.327   1.939  0.6242 -0.2388  0.2288
 6366TIP3    H243294   1.836   0.211   1.845  0.0912 -0.5828  0.4949
 6367TIP3   OH243295   6.652   5.596   2.407 -0.6785  0.1130  0.0113
 6367TIP3    H143296   6.737   5.563   2.435 -1.1410 -2.1829 -1.0769
 6367TIP3    H243297   6.593   5.522   2.416 -1.7416  0.5033 -2.7523
 6368TIP3   OH243298   6.192   3.040   1.242  0.6164  0.0957  0.0580
 6368TIP3    H143299   6.149   3.098   1.178  0.5905 -0.0797 -0.0823
 6368TIP3    H243300   6.213   3.098   1.315  3.5465  1.0321 -1.3841
 6369TIP3   OH243301   2.946   0.173   2.829  0.3035 -0.2597 -0.1368
 6369TIP3    H143302   2.999   0.094   2.843 -0.9553 -1.1870 -0.3588
 6369TIP3    H243303   2.979   0.209   2.747  2.0238  0.4251  0.8146
 6370TIP3   OH243304   1.445   5.300   2.880 -0.0490  0.7374 -0.0613
 6370TIP3    H143305   1.443   5.231   2.813 -0.9436  0.4532  0.2382
 6370TIP3    H243306   1.499   5.369   2.842 -1.6659  1.1971 -1.6952
 6371TIP3   OH243307   1.508   2.530   1.431  0.1998  0.1834  0.4115
 6371TIP3    H143308   1.422   2.502   1.397  0.0432  1.3588 -0.2011
 6371TIP3    H243309   1.513   2.623   1.409  2.3011 -0.1897 -0.9942
 6372TIP3   OH243310   4.897   1.681   2.693 -0.0585  0.1437 -0.2088
 6372TIP3    H143311   4.951   1.644   2.764 -0.2724 -0.8822 -0.5572
 6372TIP3    H243312   4.902   1.775   2.706  0.3002 -0.0063  0.8864
 6373TIP3   OH243313   3.961   5.140   1.485  0.5947  0.0730  0.2421
 6373TIP3    H143314   3.937   5.054   1.520 -0.5804  1.5948  3.6827
 6373TIP3    H243315   4.043   5.162   1.529  0.2989  1.1280  0.3035
 6374TIP3   OH243316   4.512   5.188   2.423 -0.1246  0.0559  0.3248
 6374TIP3    H143317   4.538   5.152   2.508  0.3485  1.5802  0.8578
 6374TIP3    H243318   4.562   5.137   2.360  0.2776 -0.4403  1.0304
 6375TIP3   OH243319   2.926   6.497   3.150 -0.0095  0.0952 -0.5714
 6375TIP3    H143320   2.883   6.427   3.199 -1.0783 -1.0564 -2.9802
 6375TIP3    H243321   2.856   6.539   3.100  0.9105  1.6451 -0.6275
 6376TIP3   OH243322   0.294   5.547   0.780 -0.2077 -0.0370 -0.1689
 6376TIP3    H143323   0.269   5.459   0.750 -0.8104 -0.0958  0.5057
 6376TIP3    H243324   0.374   5.566   0.731 -0.6996 -0.4842 -1.1851
 6377TIP3   OH243325   1.389   3.736   2.147  0.0753 -0.1422  0.7154
 6377TIP3    H143326   1.394   3.814   2.091 -1.5746 -0.6046 -0.1356
 6377TIP3    H243327   1.324   3.758   2.213 -0.3365 -0.7532  0.5229
 6378TIP3   OH243328   2.760   5.140   1.745 -0.8245  0.4193  0.1065
 6378TIP3    H143329   2.780   5.078   1.816  0.1860  2.6378  1.8880
 6378TIP3    H243330   2.679   5.182   1.773 -0.4203  1.3069 -0.0330
 6379TIP3   OH243331   5.047   1.423   2.126 -0.2504  0.2792  0.0878
 6379TIP3    H143332   4.995   1.381   2.195 -1.8541 -0.0959 -1.3001
 6379TIP3    H243333   4.983   1.455   2.063  1.1747  0.2706 -1.4352
 6380TIP3   OH243334   6.716   5.736   1.532 -0.2318 -0.0358  0.2578
 6380TIP3    H143335   6.632   5.768   1.500 -0.2459 -0.3927 -0.0707
 6380TIP3    H243336   6.781   5.772   1.471 -0.1068  0.5225  0.7085
 6381TIP3   OH243337   0.343   4.453   1.991 -0.3893  0.1931  0.1090
 6381TIP3    H143338   0.362   4.363   2.018 -1.1594  0.1795  0.6535
 6381TIP3    H243339   0.417   4.504   2.023  0.0573 -0.2481 -0.2144
 6382TIP3   OH243340   4.273   6.586   2.936 -0.4898  0.2448 -0.2669
 6382TIP3    H143341   4.207   6.653   2.921 -1.6337 -0.7992 -0.0877
 6382TIP3    H243342   4.343   6.606   2.873 -0.6539  1.7558 -0.0119
 6383TIP3   OH243343   6.700   1.214   0.953  0.0134  0.2029  0.0407
 6383TIP3    H143344   6.662   1.127   0.965 -0.1777  0.4600  1.3825
 6383TIP3    H243345   6.631   1.275   0.979  0.5296  0.7278  0.2191
 6384TIP3   OH243346   0.310   5.147   2.593  0.0065  0.4740  0.7910
 6384TIP3    H143347   0.360   5.074   2.632 -1.7385 -0.5842  1.1381
 6384TIP3    H243348   0.297   5.208   2.665  1.6493  1.2886  0.4533
 6385TIP3   OH243349   5.415   0.320   2.260 -0.6627 -0.3219  0.2338
 6385TIP3    H143350   5.432   0.392   2.199 -1.2013 -1.1029 -0.8921
 6385TIP3    H243351   5.483   0.328   2.327  1.1362 -0.5062 -1.4716
 6386TIP3   OH243352   6.545   2.270   2.924  0.4068  0.3818  0.0626
 6386TIP3    H143353   6.608   2.269   2.853  0.8835 -2.1971  0.4249
 6386TIP3    H243354   6.595   2.299   3.000  1.2958 -1.9148  0.4079
 6387TIP3   OH243355   2.246   6.324   1.826 -0.4063  0.3610 -0.2783
 6387TIP3    H143356   2.242   6.403   1.772  0.3461  0.2980 -0.4517
 6387TIP3    H243357   2.329   6.283   1.800 -0.6103 -0.2856  0.0810
 6388TIP3   OH243358   5.792   0.890   1.436  0.2661  0.2253 -0.0169
 6388TIP3    H143359   5.858   0.858   1.498 -0.6894  0.7652  1.3251
 6388TIP3    H243360   5.721   0.826   1.442  0.3001  0.0931 -0.8488
 6389TIP3   OH243361   5.232   6.688   3.191  0.3171  0.0790  0.0442
 6389TIP3    H143362   5.218   6.722   3.279  0.3612  0.8282 -0.2375
 6389TIP3    H243363   5.316   6.642   3.196  1.4939  2.1222 -0.1820
 6390TIP3   OH243364   3.357   5.113   4.491  0.1953  0.0270  0.1574
 6390TIP3    H143365   3.285   5.065   4.533 -0.7480  2.0115  0.9513
 6390TIP3    H243366   3.316   5.159   4.417  0.5138  1.4748  0.8334
 6391TIP3   OH243367   3.938   3.798   1.705  0.1111  0.0940 -0.1774
 6391TIP3    H143368   3.997   3.860   1.663  1.8004  1.5617  3.8709
 6391TIP3    H243369   3.985   3.715   1.705 -0.0851 -0.0341 -1.3938
 6392TIP3   OH243370   3.879   0.000   1.955  0.5165  0.0810  0.5103
 6392TIP3    H143371   3.896   0.091   1.979 -1.4363  0.1495  1.7887
 6392TIP3    H243372   3.803  -0.025   2.007 -0.9282 -1.3212 -2.0677
 6393TIP3   OH243373   5.482   0.655   2.411  0.2390 -0.1585 -0.5472
 6393TIP3    H143374   5.491   0.625   2.501 -0.5360 -0.3403 -0.5236
 6393TIP3    H243375   5.389   0.678   2.402  0.2826 -0.2539 -1.3323
 6394TIP3   OH243376   1.749   5.341   0.447 -0.0013 -0.2939  0.1277
 6394TIP3    H143377   1.828   5.390   0.426 -0.7073  0.4176 -1.0008
 6394TIP3    H243378   1.709   5.389   0.520 -1.3193  1.6191 -1.7503
 6395TIP3   OH243379   2.146   4.669   3.375  0.4167  0.5175  0.0946
 6395TIP3    H143380   2.171   4.696   3.286  0.9742 -0.8540 -0.1805
 6395TIP3    H243381   2.077   4.604   3.363  1.3365 -0.5784  0.6061
 6396TIP3   OH243382   0.790   5.200  10.880 -0.3272 -0.5109  0.5943
 6396TIP3    H143383   0.746   5.207  10.965  0.0252  0.9565  0.6703
 6396TIP3    H243384   0.731   5.242  10.819  0.0424 -0.3597  0.3411
 6397TIP3   OH243385   2.470   4.117   1.776 -0.0673 -0.1864  0.1333
 6397TIP3    H143386   2.536   4.179   1.807  0.5349  1.2477 -3.5550
 6397TIP3    H243387   2.520   4.040   1.749 -0.3559 -0.5481  0.5955
 6398TIP3   OH243388   0.172   2.386   2.867  0.0032  0.1790  0.2884
 6398TIP3    H143389   0.118   2.312   2.895  1.5308 -1.4899 -1.0081
 6398TIP3    H243390   0.260   2.350   2.857  0.5112  1.7940 -1.8278
 6399TIP3   OH243391   1.530   0.542   2.986  0.0355  0.2975 -0.2090
 6399TIP3    H143392   1.479   0.606   2.936  0.7555  1.3858  0.4047
 6399TIP3    H243393   1.496   0.549   3.075  0.1921 -0.0889 -0.1184
 6400TIP3   OH243394   0.879   2.099   3.437  0.6225 -0.0234 -0.1849
 6400TIP3    H143395   0.859   2.006   3.422  1.8813 -0.5231  1.0930
 6400TIP3    H243396   0.826   2.123   3.512  1.7181 -0.2505  0.6807
 6401TIP3   OH243397   6.224   1.984   3.709 -0.1590  0.2982  0.4112
 6401TIP3    H143398   6.178   1.999   3.792 -1.0484  0.8974 -0.1730
 6401TIP3    H243399   6.264   2.069   3.689 -2.7426  1.2250 -1.4233
 6402TIP3   OH243400   4.845   1.593   0.884  0.3412 -0.5574  0.2407
 6402TIP3    H143401   4.805   1.564   0.802  1.0038  3.1649 -1.5981
 6402TIP3    H243402   4.783   1.656   0.920  1.6020  0.4529  0.7281
 6403TIP3   OH243403   3.872   1.684   3.408 -0.0949  0.4405  0.9148
 6403TIP3    H143404   3.801   1.621   3.413  0.1028  0.2891  2.0983
 6403TIP3    H243405   3.833   1.767   3.437 -0.1322  0.6742  0.2148
 6404TIP3   OH243406   5.049   3.111   3.865  0.1944 -0.1052 -0.5331
 6404TIP3    H143407   5.028   3.153   3.782  0.2251 -0.4403 -0.7107
 6404TIP3    H243408   5.036   3.180   3.931 -0.6783 -0.0813 -0.7235
 6405TIP3   OH243409   0.826   2.565   2.704 -0.3530 -1.0029 -0.0214
 6405TIP3    H143410   0.921   2.578   2.709 -0.0064 -3.2534  0.6280
 6405TIP3    H243411   0.793   2.643   2.659  1.9952 -0.8440 -1.6754
 6406TIP3   OH243412   3.067   2.319   0.404 -1.0470  0.2961 -0.3657
 6406TIP3    H143413   3.108   2.238   0.373 -3.5052 -0.8194 -1.0248
 6406TIP3    H243414   3.136   2.384   0.401  0.9076 -1.6589 -0.3088
 6407TIP3   OH243415   5.272   2.535   2.992 -0.3322  0.4247  0.2648
 6407TIP3    H143416   5.182   2.529   3.024 -0.0626  1.2870  1.2288
 6407TIP3    H243417   5.301   2.444   2.985 -1.6231  0.0930 -1.1043
 6408TIP3   OH243418   3.923   1.218   2.073  0.7484 -0.2688  0.1884
 6408TIP3    H143419   3.835   1.186   2.096  0.6111  0.8546  1.3389
 6408TIP3    H243420   3.908   1.285   2.007  0.7830 -0.4428  0.0043
 6409TIP3   OH243421   1.996   0.204   3.249  0.5328  0.5743 -0.3560
 6409TIP3    H143422   1.948   0.287   3.244 -0.4423 -0.0305 -1.6205
 6409TIP3    H243423   1.952   0.148   3.186 -0.0117 -1.5334  1.7644
 6410TIP3   OH243424   1.246   5.869   2.652 -1.0665  0.2891 -0.2427
 6410TIP3    H143425   1.324   5.814   2.655 -0.8039  0.5994 -1.0488
 6410TIP3    H243426   1.182   5.819   2.602 -1.1390  0.3299 -0.1909
 6411TIP3   OH243427   3.026   5.243   1.556  0.3510  0.2834  0.4851
 6411TIP3    H143428   2.934   5.263   1.537  0.1992 -0.6000  0.2808
 6411TIP3    H243429   3.035   5.258   1.650  0.2479  1.2959  0.3516
 6412TIP3   OH243430   3.821   3.246   0.561 -0.3677  0.3893  0.1696
 6412TIP3    H143431   3.825   3.162   0.516 -0.5315 -0.7227  2.1432
 6412TIP3    H243432   3.729   3.273   0.553  0.1180  1.5662 -2.4124
 6413TIP3   OH243433   1.767   5.888   1.084 -0.1106  0.7965  0.2983
 6413TIP3    H143434   1.674   5.871   1.094 -0.2186 -0.3696 -2.0119
 6413TIP3    H243435   1.773   5.950   1.011  0.9488 -0.6702 -0.9356
 6414TIP3   OH243436   4.772   4.882   0.522  0.4895 -0.8890  0.1760
 6414TIP3    H143437   4.863   4.888   0.549 -0.1564  0.2074  2.4436
 6414TIP3    H243438   4.732   4.824   0.587 -1.1713  1.8560  1.8166
 6415TIP3   OH243439   4.795   1.091   1.169 -0.1058  0.1013  1.0230
 6415TIP3    H143440   4.877   1.042   1.169  0.3893  0.8604 -1.0320
 6415TIP3    H243441   4.752   1.068   1.087 -0.0917  2.6528  0.2168
 6416TIP3   OH243442   6.322   0.843   2.156 -0.1115 -0.5654 -0.1102
 6416TIP3    H143443   6.264   0.800   2.092 -1.3317  0.4048  0.3032
 6416TIP3    H243444   6.336   0.931   2.120 -0.7438 -0.0377  0.8952
 6417TIP3   OH243445   2.571   0.666   2.781 -0.3107  0.0892  0.0736
 6417TIP3    H143446   2.664   0.665   2.762 -0.3582  0.6151 -0.2243
 6417TIP3    H243447   2.555   0.752   2.821 -0.7651  0.2517 -0.4339
 6418TIP3   OH243448   2.740   1.294   1.051  0.3678  0.5999  0.6183
 6418TIP3    H143449   2.781   1.281   1.136  0.3389 -0.7869  0.4453
 6418TIP3    H243450   2.688   1.374   1.061  0.5783  0.6003  1.8144
 6419TIP3   OH243451   5.092   5.522   2.972 -0.4033  0.2658 -0.3329
 6419TIP3    H143452   5.179   5.533   2.932  0.0401  1.0480  0.7781
 6419TIP3    H243453   5.076   5.428   2.968  1.1347 -0.0914  0.6454
 6420TIP3   OH243454   0.786   0.635   1.662 -0.2030  0.6561  0.9610
 6420TIP3    H143455   0.819   0.710   1.711  0.1619  1.2710 -0.1941
 6420TIP3    H243456   0.720   0.671   1.604  2.3292  0.7922 -2.1141
 6421TIP3   OH243457   6.251   1.732   3.249  0.1033  0.3373  0.5456
 6421TIP3    H143458   6.256   1.793   3.322  2.4299  1.9573 -0.8292
 6421TIP3    H243459   6.193   1.775   3.186  1.2111  0.8596 -0.1452
 6422TIP3   OH243460   3.822   0.595   4.159  0.1552 -0.3754  0.2938
 6422TIP3    H143461   3.913   0.564   4.159 -0.0926 -1.1536 -0.9025
 6422TIP3    H243462   3.823   0.671   4.217  1.9710  0.7497 -1.0900
 6423TIP3   OH243463   1.406   6.121   2.636 -0.3951  0.3292  0.3453
 6423TIP3    H143464   1.325   6.072   2.643 -0.6019  0.4096 -1.1259
 6423TIP3    H243465   1.465   6.080   2.699 -2.1080  1.4859  2.9000
 6424TIP3   OH243466   0.076   0.772   0.787  0.1250  0.2165  0.5591
 6424TIP3    H143467   0.040   0.684   0.802  2.2781 -0.7237  0.5746
 6424TIP3    H243468   0.095   0.805   0.875 -0.9781  0.8578  0.5711
 6425TIP3   OH243469   4.382   2.471   1.183  0.4116  0.1525 -0.1281
 6425TIP3    H143470   4.344   2.480   1.096  0.5498 -0.1891 -0.2268
 6425TIP3    H243471   4.397   2.561   1.212 -0.1372  0.2824 -0.2313
 6426TIP3   OH243472   1.373   2.920   3.856  0.3122 -0.0204 -0.3891
 6426TIP3    H143473   1.418   2.868   3.790 -0.9053 -0.7920 -0.6335
 6426TIP3    H243474   1.395   2.878   3.939 -0.6088 -0.9105 -0.5794
 6427TIP3   OH243475   3.584   2.727   1.827 -0.3801  0.7793  0.1749
 6427TIP3    H143476   3.606   2.722   1.920  2.3607  1.7329 -0.3370
 6427TIP3    H243477   3.595   2.819   1.805 -0.8938  0.5512 -1.1348
 6428TIP3   OH243478   4.731   2.560   1.326 -0.1974  0.3732  0.3148
 6428TIP3    H143479   4.714   2.654   1.325 -1.8440  0.3924  4.7829
 6428TIP3    H243480   4.823   2.552   1.353  0.1381  0.6590 -0.7203
 6429TIP3   OH243481   3.536   4.042   2.150 -0.1384  0.0409 -0.1063
 6429TIP3    H143482   3.587   4.011   2.225 -0.5294 -1.2959 -0.3736
 6429TIP3    H243483   3.601   4.074   2.088  0.4607 -2.0901 -0.6505
 6430TIP3   OH243484   0.479   2.165   0.722 -0.2473  0.2667 -0.3062
 6430TIP3    H143485   0.561   2.128   0.691  0.3367  0.5499  0.8417
 6430TIP3    H243486   0.442   2.210   0.645 -0.1716 -1.2571 -1.2685
 6431TIP3   OH243487   5.252   6.460   2.996  0.4086  0.0140 -0.3201
 6431TIP3    H143488   5.246   6.397   3.068  1.2372 -1.2716 -1.3320
 6431TIP3    H243489   5.164   6.460   2.958  0.3878 -0.5195 -0.2836
 6432TIP3   OH243490   2.721   4.946   1.553  0.2273 -0.4987  0.1515
 6432TIP3    H143491   2.742   5.013   1.618 -0.2267  1.4346 -1.5996
 6432TIP3    H243492   2.655   4.891   1.596  1.0640 -0.2238  1.8471
 6433TIP3   OH243493   4.780   6.025   3.273 -0.5581 -0.4109  0.4444
 6433TIP3    H143494   4.811   6.083   3.343 -0.3789  1.6835 -1.2850
 6433TIP3    H243495   4.686   6.014   3.291 -0.6494  0.6360  0.6774
 6434TIP3   OH243496   1.610   1.333   0.469 -0.0137  0.2637  0.4145
 6434TIP3    H143497   1.673   1.271   0.432 -1.5080 -0.2615 -1.4200
 6434TIP3    H243498   1.651   1.419   0.457  0.7837 -0.1309  0.2283
 6435TIP3   OH243499   2.014   1.529   2.410  0.4496 -0.1726 -0.4336
 6435TIP3    H143500   1.929   1.489   2.394  0.8976 -1.7130  0.7754
 6435TIP3    H243501   1.994   1.619   2.436 -1.1191 -1.3093  2.8498
 6436TIP3   OH243502   1.674   4.604   2.833  0.7196 -0.5312  0.3479
 6436TIP3    H143503   1.651   4.697   2.834 -0.2730 -0.7405 -0.6165
 6436TIP3    H243504   1.758   4.601   2.788  0.2810 -0.1785 -0.5175
 6437TIP3   OH243505   3.719   4.998   3.073 -0.3004  0.0030  0.4038
 6437TIP3    H143506   3.758   5.035   3.152  1.0581 -0.8661  0.1710
 6437TIP3    H243507   3.710   5.072   3.014  0.0449  0.3990  0.8381
 6438TIP3   OH243508   0.390   5.103   4.038  0.2337  0.7830 -0.4605
 6438TIP3    H143509   0.469   5.155   4.053  0.4001  0.8904 -1.6402
 6438TIP3    H243510   0.360   5.129   3.951  0.3922 -1.1923 -1.1426
 6439TIP3   OH243511   5.275   4.628   3.908 -0.1668 -0.3284 -0.0510
 6439TIP3    H143512   5.248   4.657   3.821 -0.1694 -1.0379 -0.2919
 6439TIP3    H243513   5.212   4.669   3.968 -0.2092  0.1025 -0.3856
 6440TIP3   OH243514   5.726   3.034   1.413 -0.3635 -0.0252 -0.6463
 6440TIP3    H143515   5.807   3.055   1.460  0.3129  3.1487 -2.8498
 6440TIP3    H243516   5.753   2.970   1.347 -0.2988 -1.0231  0.3276
 6441TIP3   OH243517   5.759   4.524   3.614 -0.2509 -0.3493 -0.3981
 6441TIP3    H143518   5.818   4.488   3.548  0.1671  0.2123 -0.3398
 6441TIP3    H243519   5.786   4.616   3.623 -0.9134 -0.1773 -0.1231
 6442TIP3   OH243520   3.247   6.688   0.855  0.9832  0.1555 -0.1905
 6442TIP3    H143521   3.303   6.634   0.910  0.5349  0.1907  0.3169
 6442TIP3    H243522   3.251   6.647   0.769 -1.3137 -2.2640  0.7033
 6443TIP3   OH243523   3.638   5.179   4.488  0.1827 -0.3323  0.2082
 6443TIP3    H143524   3.656   5.124   4.412 -2.0570  0.2265 -0.8021
 6443TIP3    H243525   3.552   5.151   4.518  0.3064  0.5948  1.5511
 6444TIP3   OH243526   4.586   6.451   3.708 -0.3672 -0.0031 -0.4802
 6444TIP3    H143527   4.613   6.532   3.752  0.0171  0.8198 -2.1448
 6444TIP3    H243528   4.660   6.391   3.720 -1.0821 -0.5343  1.6819
 6445TIP3   OH243529   5.031   6.301   3.296 -0.1364  0.1268 -0.4649
 6445TIP3    H143530   4.964   6.249   3.340 -0.9273 -0.8358 -2.6462
 6445TIP3    H243531   5.078   6.238   3.241  1.5999  1.0562 -0.1146
 6446TIP3   OH243532   0.924   3.714   1.044 -0.5488 -0.5872  0.2654
 6446TIP3    H143533   0.942   3.646   1.109 -0.9375 -0.8777  0.0780
 6446TIP3    H243534   0.852   3.764   1.081 -1.7188 -1.5989 -0.5192
 6447TIP3   OH243535   6.498   6.757   2.310 -0.1853  0.0932  0.0972
 6447TIP3    H143536   6.563   6.757   2.240  0.8019 -0.1241  0.9937
 6447TIP3    H243537   6.449   6.838   2.297  3.1415  2.6615  1.9702
 6448TIP3   OH243538   5.805   4.868   2.092  0.4772  0.1966  0.3589
 6448TIP3    H143539   5.743   4.941   2.096  0.3479  0.1535 -0.5140
 6448TIP3    H243540   5.778   4.810   2.163 -1.2161 -0.3684 -0.6587
 6449TIP3   OH243541   1.104   4.003   3.325  0.2710 -0.4184 -0.5214
 6449TIP3    H143542   1.045   4.061   3.373 -0.2086 -1.5012  0.2488
 6449TIP3    H243543   1.064   3.993   3.239  0.3257  0.3364 -0.6366
 6450TIP3   OH243544   2.411   2.487   3.254  0.2477 -0.5411  0.4275
 6450TIP3    H143545   2.344   2.544   3.292  0.4382 -0.0366  0.0172
 6450TIP3    H243546   2.492   2.538   3.261  0.3430 -0.5873 -0.3362
 6451TIP3   OH243547   4.641   3.157   1.947 -0.1185  0.2136 -0.2449
 6451TIP3    H143548   4.699   3.089   1.979 -1.1987 -0.4286  0.4362
 6451TIP3    H243549   4.633   3.218   2.020 -2.7738 -1.3753  0.9374
 6452TIP3   OH243550   3.565   5.684   2.285 -0.0929  0.1393  0.4097
 6452TIP3    H143551   3.579   5.665   2.377 -1.1303 -0.4940  0.4543
 6452TIP3    H243552   3.474   5.714   2.280 -0.1786 -0.2144 -0.4494
 6453TIP3   OH243553   3.507   3.552   4.238 -0.1786  0.0467  0.4286
 6453TIP3    H143554   3.450   3.492   4.286 -1.5910  0.2782 -0.8647
 6453TIP3    H243555   3.587   3.502   4.221 -0.7454 -0.9547  0.6563
 6454TIP3   OH243556   4.866   3.346   1.561  0.0228  0.1261 -0.1597
 6454TIP3    H143557   4.912   3.418   1.519  1.2394 -1.1593 -1.0903
 6454TIP3    H243558   4.778   3.381   1.578 -0.0465  1.1831 -2.3801
 6455TIP3   OH243559   4.121   4.253   3.172  0.0323 -0.2793 -0.6133
 6455TIP3    H143560   4.141   4.275   3.263 -1.5569 -0.3086 -0.2299
 6455TIP3    H243561   4.205   4.225   3.135  0.7465 -0.0544  0.7743
 6456TIP3   OH243562   3.667   5.425   1.414 -0.0942 -0.5874 -0.8245
 6456TIP3    H143563   3.697   5.402   1.327  0.4435 -0.9439 -0.5537
 6456TIP3    H243564   3.741   5.473   1.453  0.9084 -3.0147  0.4856
 6457TIP3   OH243565   1.627   6.093   1.326 -0.3321 -0.3627 -0.4318
 6457TIP3    H143566   1.680   6.168   1.298 -0.7140  0.9883  2.1361
 6457TIP3    H243567   1.690   6.026   1.351  0.1370  0.2707  0.1291
 6458TIP3   OH243568   0.082   5.933   2.228  0.0128 -0.5034  0.3546
 6458TIP3    H143569   0.099   5.848   2.187 -1.7980 -0.9425  0.4064
 6458TIP3    H243570   0.166   5.977   2.228  1.1543 -2.5548  0.9322
 6459TIP3   OH243571   4.223   0.569   3.964 -0.3781 -0.7231  0.2621
 6459TIP3    H143572   4.201   0.563   4.057 -1.3146 -0.8524  0.0374
 6459TIP3    H243573   4.156   0.627   3.927  0.2330 -0.3369 -0.2545
 6460TIP3   OH243574   1.419   0.908   3.592 -0.3187  0.0814 -0.4041
 6460TIP3    H143575   1.454   0.823   3.620 -0.9465  0.2563  1.0184
 6460TIP3    H243576   1.485   0.971   3.621 -1.2371  0.3154  1.3081
 6461TIP3   OH243577   4.857   5.784   2.498  0.3909 -0.1733 -0.2285
 6461TIP3    H143578   4.777   5.816   2.540  0.2500  0.5027 -0.9867
 6461TIP3    H243579   4.900   5.863   2.466  1.4445 -0.5174  0.2852
 6462TIP3   OH243580   1.733   3.018   0.843 -0.1585  0.4844  0.4877
 6462TIP3    H143581   1.732   3.057   0.756  0.1165 -1.6502 -0.5491
 6462TIP3    H243582   1.702   2.928   0.829 -0.4057  0.1774  2.6544
 6463TIP3   OH243583   2.187   6.067   2.760  0.3394  0.4448  0.2731
 6463TIP3    H143584   2.165   6.142   2.704  0.2611  0.4533  0.3151
 6463TIP3    H243585   2.103   6.030   2.784  0.3738  0.4315  0.3731
 6464TIP3   OH243586   3.428   1.014   1.516  0.0402  0.4124  0.1912
 6464TIP3    H143587   3.431   1.050   1.604  0.9909  0.0536  0.3154
 6464TIP3    H243588   3.381   1.080   1.465 -1.1224  0.3091  1.0974
 6465TIP3   OH243589   5.654   6.399   1.898 -0.3493  0.1323 -0.5108
 6465TIP3    H143590   5.716   6.373   1.831 -1.1432  0.4176 -1.3784
 6465TIP3    H243591   5.696   6.375   1.981  0.1983 -1.1917 -1.1453
 6466TIP3   OH243592   6.416   6.519   1.990 -0.2113 -0.0380  0.0005
 6466TIP3    H143593   6.383   6.606   2.014 -0.7655  0.9251 -3.6849
 6466TIP3    H243594   6.510   6.531   1.978 -0.3523  0.1578 -0.9114
 6467TIP3   OH243595   2.652   1.625   0.471  0.1685  0.3372  0.3309
 6467TIP3    H143596   2.646   1.530   0.469  0.2960  0.2883  1.4294
 6467TIP3    H243597   2.561   1.656   0.466  0.1196  0.1555  0.1093
 6468TIP3   OH243598   6.795   1.738   1.746 -0.0972  0.2493 -0.5452
 6468TIP3    H143599   6.812   1.655   1.702 -1.5483  0.2274 -1.1231
 6468TIP3    H243600   6.871   1.792   1.724 -0.2746 -0.1177 -2.2150
 6469TIP3   OH243601   4.793   4.646   1.034 -0.0238 -0.5306 -0.3586
 6469TIP3    H143602   4.780   4.731   1.076 -1.9934 -0.7311 -0.4866
 6469TIP3    H243603   4.884   4.624   1.054  0.8030  1.9434 -0.9770
 6470TIP3   OH243604   4.849   4.037   3.350  0.1194 -0.4958  0.0185
 6470TIP3    H143605   4.855   3.975   3.423 -1.8678 -0.9552 -0.1357
 6470TIP3    H243606   4.758   4.067   3.351  0.2375  0.0953 -1.7872
 6471TIP3   OH243607   6.115   1.290   3.256  0.2564 -0.0998  0.0316
 6471TIP3    H143608   6.195   1.285   3.205  0.1596  2.0771 -0.4679
 6471TIP3    H243609   6.135   1.353   3.326 -1.0321  0.6697 -0.2438
 6472TIP3   OH243610   6.080   1.514   2.080 -0.6633  0.3173  0.4016
 6472TIP3    H143611   6.137   1.590   2.094 -0.6841  0.1861  1.1978
 6472TIP3    H243612   6.076   1.470   2.164 -0.0832 -0.9771 -0.2200
 6473TIP3   OH243613   1.978   3.489   2.043 -0.4717 -0.1846  0.1735
 6473TIP3    H143614   1.892   3.530   2.043  0.5486  2.1288  0.6913
 6473TIP3    H243615   2.011   3.503   1.954  0.1741  0.8530  0.5576
 6474TIP3   OH243616   4.780   2.452   3.002 -0.3927  0.5048 -0.0192
 6474TIP3    H143617   4.798   2.499   2.921  1.2415  1.7114  0.9884
 6474TIP3    H243618   4.799   2.361   2.982 -2.4252  0.3618 -1.6537
 6475TIP3   OH243619   0.550   2.509   3.060  0.0790  0.1710 -0.5628
 6475TIP3    H143620   0.608   2.479   2.990 -1.6014 -1.8074 -1.2263
 6475TIP3    H243621   0.540   2.432   3.117  0.5047  1.4039  1.2340
 6476TIP3   OH243622   3.943   5.948   2.713 -0.0250 -0.3858 -0.0735
 6476TIP3    H143623   3.861   5.979   2.674 -0.8534 -1.1141  1.0296
 6476TIP3    H243624   4.003   5.942   2.639 -1.1701 -0.5345 -1.0371
 6477TIP3   OH243625   2.284   0.354   1.411 -0.1637  0.0118  0.0186
 6477TIP3    H143626   2.250   0.434   1.369  0.4028  0.3145  0.1232
 6477TIP3    H243627   2.281   0.288   1.342  0.1354  0.3359 -0.3085
 6478TIP3   OH243628   4.694   2.034   2.908 -0.1725  0.5520 -0.0828
 6478TIP3    H143629   4.753   1.979   2.856 -1.7143 -1.9570  0.6339
 6478TIP3    H243630   4.653   2.092   2.844  2.5357  2.0145 -0.6792
 6479TIP3   OH243631   4.279   1.051   1.276 -0.5735 -0.3315 -0.2353
 6479TIP3    H143632   4.203   0.997   1.296 -0.1552 -0.7676  0.1825
 6479TIP3    H243633   4.271   1.126   1.335  0.8677 -1.8020  1.9823
 6480TIP3   OH243634   3.601   2.338   2.930 -0.3993 -0.1548 -0.1263
 6480TIP3    H143635   3.669   2.314   2.993 -1.4182 -0.9736  0.6953
 6480TIP3    H243636   3.615   2.279   2.856  1.0859  1.1138 -0.9166
 6481TIP3   OH243637   3.009   3.255   3.122 -0.1175 -0.1681 -0.0423
 6481TIP3    H143638   2.933   3.220   3.076  0.0087 -0.2680 -0.1748
 6481TIP3    H243639   3.082   3.201   3.092 -0.1199 -0.5838  0.6765
 6482TIP3   OH243640   5.109   4.884   2.449 -0.1688  0.0930  0.0908
 6482TIP3    H143641   5.130   4.978   2.446  1.4106 -0.2544 -1.4536
 6482TIP3    H243642   5.046   4.872   2.378  1.5521 -0.3885 -1.4205
 6483TIP3   OH243643   0.976   2.513   2.390  0.4113  0.4416  0.2775
 6483TIP3    H143644   0.961   2.419   2.382 -0.1189  0.5292  0.2039
 6483TIP3    H243645   0.937   2.537   2.475 -0.4231  0.7709 -0.1783
 6484TIP3   OH243646   2.306   2.266   1.330  0.0279 -0.1067 -0.2913
 6484TIP3    H143647   2.264   2.181   1.322 -0.8627  0.2731  0.2209
 6484TIP3    H243648   2.295   2.290   1.422  2.9145 -0.7775  0.3396
 6485TIP3   OH243649   4.293   3.399   0.353  0.9283  0.1059  0.0322
 6485TIP3    H143650   4.202   3.426   0.367  0.8747  0.4282 -0.8780
 6485TIP3    H243651   4.287   3.324   0.294  1.3162  1.4862 -1.8812
 6486TIP3   OH243652   5.618   2.323   2.600 -0.3076 -0.2739 -0.1195
 6486TIP3    H143653   5.693   2.266   2.613  0.4424 -0.3080 -3.6326
 6486TIP3    H243654   5.623   2.350   2.508 -3.1670  1.8211  0.1739
 6487TIP3   OH243655   3.381   2.491   3.476  0.1191 -0.6258  0.4705
 6487TIP3    H143656   3.457   2.528   3.521  1.6245 -1.6000 -1.1415
 6487TIP3    H243657   3.393   2.514   3.384 -3.4515  2.2793  0.5059
 6488TIP3   OH243658   6.755   4.896   0.960 -0.1212  0.2033  0.3229
 6488TIP3    H143659   6.701   4.918   1.036 -0.6260  1.4961 -0.3673
 6488TIP3    H243660   6.784   4.807   0.975 -0.7409  0.2204  1.7236
 6489TIP3   OH243661   3.233   0.929   0.677  0.3205 -0.3229 -0.2964
 6489TIP3    H143662   3.227   0.982   0.757  0.2568 -1.0871  0.2164
 6489TIP3    H243663   3.327   0.915   0.665  0.2965 -0.7781  0.0321
 6490TIP3   OH243664   3.719   0.994   1.286  0.0136  0.0015 -0.0200
 6490TIP3    H143665   3.732   1.051   1.211  0.2189  0.6395  0.4908
 6490TIP3    H243666   3.721   1.053   1.362 -2.2670 -0.3055  0.3632
 6491TIP3   OH243667   1.160   1.644   1.371  0.2286 -0.5235 -0.6382
 6491TIP3    H143668   1.234   1.693   1.409 -0.5252  0.6953 -0.6917
 6491TIP3    H243669   1.091   1.709   1.362 -1.6916 -2.1197  1.5576
 6492TIP3   OH243670   0.985   4.350   1.086 -0.2435 -0.6551  0.0985
 6492TIP3    H143671   0.989   4.261   1.122  0.9432 -0.3876  0.7017
 6492TIP3    H243672   1.076   4.373   1.070 -0.5047  0.5905  0.3006
 6493TIP3   OH243673   3.299   2.537   2.733  0.3083 -0.4713  0.1428
 6493TIP3    H143674   3.370   2.575   2.784 -1.6901  1.9259  1.3422
 6493TIP3    H243675   3.278   2.604   2.668 -2.0664 -0.2226  1.0704
 6494TIP3   OH243676   6.061   6.154   2.219  0.0285 -0.6494 -0.1560
 6494TIP3    H143677   6.084   6.099   2.294  1.0889  0.1668  0.1338
 6494TIP3    H243678   6.121   6.229   2.224  0.2892 -0.6857 -1.9379
 6495TIP3   OH243679   0.980   1.546   0.777 -0.1957  0.1044  0.7667
 6495TIP3    H143680   0.910   1.481   0.777  0.5447 -0.7594 -0.9776
 6495TIP3    H243681   1.049   1.508   0.831 -0.1327 -0.1330  0.5183
 6496TIP3   OH243682   0.707   5.619   3.277  0.4712  0.3877 -0.0076
 6496TIP3    H143683   0.744   5.674   3.208  0.3622 -0.6030 -0.8959
 6496TIP3    H243684   0.770   5.623   3.349  1.4764  0.0724 -0.8450
 6497TIP3   OH243685   6.263   6.754   3.368  0.3245  0.2688 -0.5538
 6497TIP3    H143686   6.259   6.848   3.385  1.0506  0.4668 -1.3919
 6497TIP3    H243687   6.301   6.717   3.448 -0.1002  0.6611 -0.1634
 6498TIP3   OH243688   2.392   2.306   0.871  0.0918  0.0819  0.0535
 6498TIP3    H143689   2.423   2.372   0.809  0.2316 -0.9621 -1.0259
 6498TIP3    H243690   2.470   2.281   0.921  0.3244 -0.2129 -0.4476
 6499TIP3   OH243691   5.730   0.483   3.976 -0.1348  0.2762  0.5261
 6499TIP3    H143692   5.689   0.397   3.986  1.2934 -0.3854  1.0963
 6499TIP3    H243693   5.745   0.492   3.882 -0.3311 -0.0801  0.4598
 6500TIP3   OH243694   5.330   2.666   0.912  0.7176 -0.6392  0.7049
 6500TIP3    H143695   5.360   2.614   0.987 -1.9625 -0.8665  1.7529
 6500TIP3    H243696   5.272   2.731   0.951 -0.0372 -0.1904 -1.0967
 6501TIP3   OH243697   1.449   2.702   1.717  0.2301 -0.4919 -0.0735
 6501TIP3    H143698   1.451   2.628   1.656 -0.7650  0.0813 -0.8348
 6501TIP3    H243699   1.435   2.778   1.662 -0.3316  0.0891  0.8419
 6502TIP3   OH243700   6.479   0.879   1.079  0.2929 -0.5545  0.0440
 6502TIP3    H143701   6.503   0.891   0.987 -1.0299 -1.0691 -0.3921
 6502TIP3    H243702   6.524   0.950   1.125  0.4608  0.0962 -1.0863
 6503TIP3   OH243703   3.520   6.197   2.864 -0.0796  0.7902  0.8458
 6503TIP3    H143704   3.508   6.281   2.819  0.0723  0.9586  1.1095
 6503TIP3    H243705   3.465   6.135   2.816 -1.2956  1.3383  1.4792
 6504TIP3   OH243706   0.739   1.805   2.709  0.4798  0.5234 -0.1750
 6504TIP3    H143707   0.703   1.852   2.634 -1.9369 -0.6886  0.1254
 6504TIP3    H243708   0.824   1.772   2.679 -0.0616  0.7910 -2.0764
 6505TIP3   OH243709   2.654   1.993   2.058 -0.6878 -0.4827  0.2967
 6505TIP3    H143710   2.591   2.003   1.987 -0.6195 -0.7655  0.1952
 6505TIP3    H243711   2.686   1.903   2.049 -1.8915 -1.0822  1.6811
 6506TIP3   OH243712   4.365   2.677   1.577 -0.0613 -0.1637  0.0702
 6506TIP3    H143713   4.373   2.763   1.618 -0.3281 -0.4286  0.6918
 6506TIP3    H243714   4.302   2.689   1.506  0.6327  0.3672 -0.4680
 6507TIP3   OH243715   6.589   4.951   3.438  0.1270 -0.1809 -0.0559
 6507TIP3    H143716   6.587   4.975   3.531  2.2769  1.1613 -0.2635
 6507TIP3    H243717   6.600   4.856   3.438  0.2164 -0.1902  1.0704
 6508TIP3   OH243718   4.648   1.146   1.386  0.1873  0.2031  0.7519
 6508TIP3    H143719   4.701   1.185   1.456  1.7017 -1.0496  0.3638
 6508TIP3    H243720   4.701   1.157   1.307 -0.9679  0.5118 -0.0096
 6509TIP3   OH243721   2.982   2.530   2.768  0.3769  0.3678 -0.1540
 6509TIP3    H143722   2.986   2.448   2.818 -1.7752 -0.2897 -0.9744
 6509TIP3    H243723   3.067   2.535   2.725  0.6252 -1.3467  0.0583
 6510TIP3   OH243724   3.230   2.228   0.915 -0.7179  0.1316 -0.0884
 6510TIP3    H143725   3.278   2.145   0.916 -1.0796 -0.0790 -0.0426
 6510TIP3    H243726   3.171   2.220   0.840 -0.0064  0.7749 -0.7217
 6511TIP3   OH243727   1.410   4.161   0.932  0.8381 -0.3358 -0.4797
 6511TIP3    H143728   1.491   4.196   0.894 -0.4861  1.8291 -1.5109
 6511TIP3    H243729   1.354   4.238   0.944 -1.1485 -1.7754 -0.0107
 6512TIP3   OH243730   4.607   5.333   1.771  0.0385  0.1614  0.7251
 6512TIP3    H143731   4.545   5.399   1.738  0.1692 -0.7888 -1.5984
 6512TIP3    H243732   4.680   5.336   1.709  0.7865 -1.0370  1.5238
 6513TIP3   OH243733   5.166   3.979   1.236 -0.1167 -0.2328  0.0599
 6513TIP3    H143734   5.121   3.912   1.288  0.8549 -0.3335  0.8175
 6513TIP3    H243735   5.179   4.052   1.297 -1.1575  0.6614 -0.7578
 6514TIP3   OH243736   6.703   3.698   1.318  0.3569  0.1439  0.1321
 6514TIP3    H143737   6.660   3.709   1.403 -0.4076  0.1397 -0.2450
 6514TIP3    H243738   6.724   3.787   1.289  0.0490  0.1909  0.0457
 6515TIP3   OH243739   2.254   3.377   2.841 -0.3591 -0.2104 -0.1701
 6515TIP3    H143740   2.255   3.330   2.925 -0.3820 -0.1123 -0.1149
 6515TIP3    H243741   2.181   3.438   2.849 -1.3646 -1.2787 -0.8474
 6516TIP3   OH243742   1.777   3.642   3.767 -0.0517  0.6346 -0.2182
 6516TIP3    H143743   1.789   3.561   3.817 -2.0612  0.5141  0.1549
 6516TIP3    H243744   1.803   3.711   3.827 -0.4798  0.3706  0.2825
 6517TIP3   OH243745   5.951   0.916   1.208  0.1073  0.0089 -0.0395
 6517TIP3    H143746   5.910   0.997   1.179  1.2217  0.7110  0.2569
 6517TIP3    H243747   5.908   0.895   1.291 -0.5747 -0.0138 -0.3971
 6518TIP3   OH243748   5.412   4.036   1.601 -0.2804 -0.0986  0.2280
 6518TIP3    H143749   5.426   3.955   1.650  0.3174 -0.5586 -0.6766
 6518TIP3    H243750   5.484   4.039   1.538 -0.0450  1.3646  0.5322
 6519TIP3   OH243751   0.946   1.611   3.004  0.9109 -0.4140  0.4162
 6519TIP3    H143752   0.968   1.520   2.982 -2.5030 -1.1037 -0.8329
 6519TIP3    H243753   1.027   1.649   3.037  2.2099 -4.2925  2.2942
 6520TIP3   OH243754   0.094   6.736   0.642 -0.2025  0.5556  0.3750
 6520TIP3    H143755   0.005   6.735   0.677  0.0671 -1.5743  1.1763
 6520TIP3    H243756   0.083   6.740   0.547 -1.1584  0.2336  0.4586
 6521TIP3   OH243757   1.896   2.342   0.564  0.2909 -0.5488 -0.0546
 6521TIP3    H143758   1.846   2.413   0.605  0.6512  0.4882 -1.3179
 6521TIP3    H243759   1.835   2.269   0.557  0.0436 -0.5420  1.6995
 6522TIP3   OH243760   4.779   3.651   1.616 -0.5491  0.4671  0.0775
 6522TIP3    H143761   4.741   3.590   1.679 -1.6118  1.2863  0.2683
 6522TIP3    H243762   4.803   3.727   1.669 -0.4669  0.7344 -0.3464
 6523TIP3   OH243763   5.285   2.253   3.477 -0.0314  0.4242 -0.0135
 6523TIP3    H143764   5.215   2.229   3.416 -1.0625  2.6772  0.1746
 6523TIP3    H243765   5.299   2.175   3.531 -2.2765 -0.1356 -0.1745
 6524TIP3   OH243766   2.935   3.681   2.036 -0.0542 -0.0181 -0.2353
 6524TIP3    H143767   2.943   3.701   2.129  2.2239  0.8620 -0.5500
 6524TIP3    H243768   3.015   3.633   2.015 -0.9148 -0.9433 -1.5960
 6525TIP3   OH243769   4.623   0.256   3.883  0.1079 -0.1303  0.2258
 6525TIP3    H143770   4.710   0.231   3.853  0.3596  1.0779 -0.1333
 6525TIP3    H243771   4.565   0.232   3.811  0.4198  0.7618 -0.3489
 6526TIP3   OH243772   5.405   1.029   1.945 -0.3653  0.1592 -0.7426
 6526TIP3    H143773   5.327   1.073   1.977 -0.0014  0.1001  0.2615
 6526TIP3    H243774   5.478   1.083   1.977  0.0754 -0.9788  0.2816
 6527TIP3   OH243775   4.577   1.824   3.030 -0.3701  0.4870  0.0385
 6527TIP3    H143776   4.639   1.891   3.001  2.6233 -2.2540 -0.4913
 6527TIP3    H243777   4.587   1.823   3.125  1.4951 -0.7558 -0.1116
 6528TIP3   OH243778   0.259   3.023   1.889  0.3203 -0.2016  0.4358
 6528TIP3    H143779   0.267   3.082   1.963 -0.4594 -1.4213  1.5428
 6528TIP3    H243780   0.338   2.969   1.892 -0.0120 -0.6767  0.7801
 6529TIP3   OH243781   1.244   4.510   1.962 -0.1153  0.2948 -0.2572
 6529TIP3    H143782   1.294   4.430   1.978 -1.1897 -0.0967  1.4589
 6529TIP3    H243783   1.298   4.580   2.001  0.2383  0.2415 -0.6418
 6530TIP3   OH243784   3.420   0.876   3.495  0.8507  0.2623  0.3080
 6530TIP3    H143785   3.401   0.856   3.586 -0.2900 -0.7087 -0.1092
 6530TIP3    H243786   3.404   0.794   3.448 -1.4733  1.3932 -1.1367
 6531TIP3   OH243787   3.943   1.022   3.320  0.1822 -0.3781 -0.0557
 6531TIP3    H143788   4.032   0.996   3.343 -0.0241  0.3123  1.6694
 6531TIP3    H243789   3.939   1.014   3.225  2.3959  0.5289 -0.2772
 6532TIP3   OH243790   2.844   5.689   2.267 -0.0176  0.0284  0.0907
 6532TIP3    H143791   2.887   5.713   2.185 -0.5055 -0.9297 -0.4641
 6532TIP3    H243792   2.916   5.665   2.326  0.2592 -1.2853 -0.7326
 6533TIP3   OH243793   6.146   0.876   0.857  0.0828  0.0969  0.3512
 6533TIP3    H143794   6.167   0.844   0.769 -1.9422  1.5471 -0.7671
 6533TIP3    H243795   6.070   0.824   0.884 -0.7058  1.1505  0.2381
 6534TIP3   OH243796   4.979   6.542   1.217  0.5366 -0.2885 -0.5508
 6534TIP3    H143797   4.910   6.550   1.283  0.8730 -0.2301 -0.1979
 6534TIP3    H243798   4.956   6.606   1.149 -0.0014 -0.5967 -0.6599
 6535TIP3   OH243799   2.351   5.738   3.315  0.3424 -0.4954  0.3867
 6535TIP3    H143800   2.295   5.666   3.288  1.4299 -0.5879 -1.9341
 6535TIP3    H243801   2.438   5.699   3.325  0.3803 -0.0347  2.1203
 6536TIP3   OH243802   5.670   0.279   1.380  0.0376 -0.3505  0.2193
 6536TIP3    H143803   5.649   0.264   1.288 -0.0990 -1.6500  0.4353
 6536TIP3    H243804   5.760   0.312   1.379  0.0490 -0.3874 -0.3796
 6537TIP3   OH243805   1.376   1.580   3.071  0.4961  0.0047  0.4084
 6537TIP3    H143806   1.321   1.656   3.052  0.8030  0.1467  0.0555
 6537TIP3    H243807   1.326   1.528   3.133  0.2348  0.4453  0.5711
 6538TIP3   OH243808   5.692   2.023   2.256  0.5422  0.1638  0.3090
 6538TIP3    H143809   5.702   2.060   2.169  3.0212  0.7918  0.7833
 6538TIP3    H243810   5.732   2.087   2.315  0.0325 -0.8033  1.7870
 6539TIP3   OH243811   5.540   2.866   2.248 -0.0157 -0.1379  0.6108
 6539TIP3    H143812   5.458   2.852   2.294 -0.8627  1.4327 -0.3607
 6539TIP3    H243813   5.573   2.949   2.281  0.9369 -0.4911  0.6001
 6540TIP3   OH243814   0.420   0.125   3.335 -0.1320 -0.0453 -0.1411
 6540TIP3    H143815   0.478   0.101   3.262 -0.4805 -0.4155 -0.2985
 6540TIP3    H243816   0.465   0.197   3.378 -0.7991  1.4734 -1.8432
 6541TIP3   OH243817   2.019   6.508   2.221 -0.7375 -0.1145 -0.1785
 6541TIP3    H143818   1.988   6.462   2.143 -2.6312  0.1829  0.3386
 6541TIP3    H243819   2.030   6.598   2.192 -0.9762 -0.0998 -0.2319
 6542TIP3   OH243820   3.235   4.546   2.461  0.4117 -0.0148 -0.3074
 6542TIP3    H143821   3.159   4.498   2.428  0.2450  1.1938 -1.7606
 6542TIP3    H243822   3.236   4.526   2.555 -0.8393 -1.2001 -0.5076
 6543TIP3   OH243823   0.350   3.639   1.156 -0.4206 -0.0235  0.2406
 6543TIP3    H143824   0.330   3.713   1.213 -1.3337 -0.4005  0.4226
 6543TIP3    H243825   0.268   3.591   1.149  0.6556 -2.3239  1.9974
 6544TIP3   OH243826   4.339   6.199   1.083  0.0151 -0.4390  0.0869
 6544TIP3    H143827   4.343   6.215   0.989 -0.2675 -0.7771  0.0130
 6544TIP3    H243828   4.405   6.132   1.099 -0.2364 -0.6957  0.0575
 6545TIP3   OH243829   5.978   1.688   1.711 -0.7343 -0.0722  0.4041
 6545TIP3    H143830   5.890   1.653   1.723 -0.4823 -1.0675 -0.5550
 6545TIP3    H243831   5.965   1.778   1.684 -1.5920 -0.9993 -2.6023
 6546TIP3   OH243832   5.819   0.658   2.194 -0.0049 -0.0354 -0.1519
 6546TIP3    H143833   5.762   0.582   2.182  1.0208 -0.4666 -2.8391
 6546TIP3    H243834   5.816   0.704   2.110  3.5954 -0.1103 -0.4678
 6547TIP3   OH243835   4.278   6.255   3.624 -0.0840 -0.3623 -0.3000
 6547TIP3    H143836   4.364   6.240   3.585  0.3302  0.5075  0.2496
 6547TIP3    H243837   4.231   6.306   3.559 -0.0709 -0.5544 -0.4611
 6548TIP3   OH243838   4.333   6.222   1.901 -0.5027  0.1776  0.0042
 6548TIP3    H143839   4.407   6.272   1.936  0.1255 -1.6110  1.3298
 6548TIP3    H243840   4.262   6.286   1.896 -0.4018  0.8408  3.7956
 6549TIP3   OH243841   6.057   4.781   1.084  0.1902  0.4944  0.0216
 6549TIP3    H143842   6.052   4.687   1.100  0.9360  0.3883 -0.3400
 6549TIP3    H243843   5.977   4.816   1.125 -0.1414 -0.2966  0.0782
 6550TIP3   OH243844   4.924   3.086   1.576 -0.5160 -0.7616  0.1888
 6550TIP3    H143845   5.012   3.072   1.610 -0.1392 -1.5913 -1.0722
 6550TIP3    H243846   4.913   3.181   1.577  1.7791 -0.3093 -2.8727
 6551TIP3   OH243847   1.672   5.353   1.191  0.1534 -0.3794 -0.2988
 6551TIP3    H143848   1.643   5.385   1.105 -0.6448 -0.2902 -0.0120
 6551TIP3    H243849   1.596   5.368   1.248  0.5899 -0.6639  0.3647
 6552TIP3   OH243850   0.874   6.125   1.509 -0.1051  0.0852  0.2771
 6552TIP3    H143851   0.893   6.071   1.433 -0.4242 -0.8898  0.8663
 6552TIP3    H243852   0.913   6.077   1.583 -0.5105  0.5897  0.8310
 6553TIP3   OH243853   3.942   3.804   2.383 -1.1471  0.2034 -0.1957
 6553TIP3    H143854   3.964   3.830   2.293 -0.6327  1.9605  0.3939
 6553TIP3    H243855   3.930   3.887   2.429  1.0799 -0.5666  1.9767
 6554TIP3   OH243856   2.356   3.178   2.686  0.2018 -0.2651  0.2497
 6554TIP3    H143857   2.294   3.233   2.734 -3.1886 -1.4758 -2.3365
 6554TIP3    H243858   2.375   3.106   2.746 -0.0229  0.6324  1.4553
 6555TIP3   OH243859   6.422   2.154   0.381 -0.2929  0.0468  0.1354
 6555TIP3    H143860   6.406   2.087   0.314 -0.8433 -1.9991  2.1781
 6555TIP3    H243861   6.517   2.160   0.387 -0.1271  2.2650 -2.5953
 6556TIP3   OH243862   2.438   3.443   0.436 -0.5240 -0.0302 -0.0969
 6556TIP3    H143863   2.451   3.534   0.462  0.9941  0.8257 -3.3276
 6556TIP3    H243864   2.521   3.400   0.458 -0.1444  0.1193 -1.1826
 6557TIP3   OH243865   2.353   5.823   2.773 -0.4167  1.2117 -0.0546
 6557TIP3    H143866   2.288   5.893   2.767  0.2163  1.9378  1.1258
 6557TIP3    H243867   2.422   5.859   2.828  1.3673  0.7318 -1.8412
 6558TIP3   OH243868   0.478   3.610   2.431  0.5830 -0.4811 -0.1207
 6558TIP3    H143869   0.429   3.611   2.349 -0.7793  0.1548  0.6639
 6558TIP3    H243870   0.457   3.694   2.473  0.8453 -0.9987  1.1129
 6559TIP3   OH243871   4.152   5.681   2.218  0.1680 -0.3928  0.5506
 6559TIP3    H143872   4.183   5.771   2.230  1.3056 -0.4138 -1.7369
 6559TIP3    H243873   4.057   5.688   2.219  0.1476  1.3611 -2.2936
 6560TIP3   OH243874   4.633   4.806   2.682 -0.0950  0.1278 -0.3662
 6560TIP3    H143875   4.702   4.814   2.748 -0.0247  0.1058 -0.4373
 6560TIP3    H243876   4.608   4.714   2.684  0.0799  0.0747 -0.5451
 6561TIP3   OH243877   3.142   4.698   4.682 -0.7020 -0.1935 -0.0081
 6561TIP3    H143878   3.048   4.694   4.697 -0.6427  0.9743  0.7905
 6561TIP3    H243879   3.168   4.786   4.710  0.5962 -0.4218 -0.3953
 6562TIP3   OH243880   5.340   1.763   3.191 -0.0105 -0.1753  0.3250
 6562TIP3    H143881   5.376   1.773   3.279  2.2053  0.0217 -0.5381
 6562TIP3    H243882   5.329   1.852   3.158 -0.7877 -0.2473  0.3862
 6563TIP3   OH243883   4.862   3.361   1.910  0.1705  0.0344  0.0755
 6563TIP3    H143884   4.784   3.351   1.855  0.2445  1.8895 -0.4195
 6563TIP3    H243885   4.934   3.373   1.849  0.7104 -0.6385  0.5530
 6564TIP3   OH243886   2.882   4.442   2.870 -0.5217  0.0348  0.5079
 6564TIP3    H143887   2.871   4.537   2.876 -3.0597 -0.1889  0.7749
 6564TIP3    H243888   2.968   4.425   2.908 -0.0252  2.2083  0.4784
 6565TIP3   OH243889   3.191   0.799   0.435 -0.1966  0.0969 -0.2832
 6565TIP3    H143890   3.238   0.854   0.372  1.0736 -1.0376 -0.3540
 6565TIP3    H243891   3.189   0.851   0.515  1.8418 -0.0849 -0.0592
 6566TIP3   OH243892   4.128   3.523   2.139 -0.2155 -0.1255 -0.0258
 6566TIP3    H143893   4.043   3.523   2.182 -0.6044 -0.6695 -0.7652
 6566TIP3    H243894   4.165   3.609   2.158  0.0366 -0.6716  2.1613
 6567TIP3   OH243895   5.543   6.341   2.225  0.2700 -0.7262 -0.6169
 6567TIP3    H143896   5.567   6.249   2.219  2.8276 -0.0698 -2.0915
 6567TIP3    H243897   5.618   6.383   2.267 -0.4203  0.8460 -0.8669
 6568TIP3   OH243898   5.954   2.593   2.473 -0.4289  0.8628 -0.1469
 6568TIP3    H143899   5.869   2.576   2.434  0.5488 -0.7294 -1.7394
 6568TIP3    H243900   6.015   2.592   2.399  1.1458  0.5171  1.1020
 6569TIP3   OH243901   6.483   0.383   1.857  0.0447 -0.0882 -0.0778
 6569TIP3    H143902   6.485   0.458   1.797  0.4786 -0.0159  0.0204
 6569TIP3    H243903   6.462   0.308   1.801  0.2189  0.0140 -0.2828
 6570TIP3   OH243904   6.684   4.722   2.802 -0.3231  0.1035  0.1835
 6570TIP3    H143905   6.689   4.665   2.879 -2.3734 -0.5282 -0.0779
 6570TIP3    H243906   6.724   4.804   2.831  2.4325 -1.2792  0.6594
 6571TIP3   OH243907   2.033   3.285   2.234  0.2374  0.2275  0.1225
 6571TIP3    H143908   2.026   3.359   2.173 -0.1887 -1.1757 -1.6031
 6571TIP3    H243909   2.114   3.302   2.282 -0.3953  2.3513  0.5353
 6572TIP3   OH243910   4.519   2.003   2.330 -0.2899  0.3753  0.4082
 6572TIP3    H143911   4.609   2.016   2.298 -0.9212  0.8134 -1.2392
 6572TIP3    H243912   4.502   1.910   2.315 -1.0711  0.8454 -1.9445
 6573TIP3   OH243913   6.497   2.316   1.144 -0.1526 -0.0520  0.2635
 6573TIP3    H143914   6.487   2.229   1.183  0.4077  0.5906  1.9121
 6573TIP3    H243915   6.411   2.336   1.107 -1.3259  0.0548  2.8377
 6574TIP3   OH243916   0.569   5.517   0.645  0.1652  0.0224 -0.1397
 6574TIP3    H143917   0.571   5.601   0.599  1.3683 -0.4734 -1.0475
 6574TIP3    H243918   0.660   5.490   0.649  0.0947 -0.1093  2.3288
 6575TIP3   OH243919   3.164   5.718   2.220 -0.2685  0.3404  0.2918
 6575TIP3    H143920   3.204   5.788   2.272  0.3423  1.2011 -1.2725
 6575TIP3    H243921   3.089   5.760   2.177  0.7474  0.3756 -1.5281
 6576TIP3   OH243922   1.944   3.076   2.541  0.4213  0.6789 -0.4626
 6576TIP3    H143923   1.879   3.007   2.558 -0.5131  1.5612 -0.3146
 6576TIP3    H243924   2.015   3.031   2.496 -0.6513 -0.1751 -1.3788
 6577TIP3   OH243925   3.542   1.447   1.162  0.0901  0.4173  0.1503
 6577TIP3    H143926   3.589   1.462   1.245 -1.1207  0.4325  0.8588
 6577TIP3    H243927   3.466   1.505   1.167  0.7990  1.5778 -1.6859
 6578TIP3   OH243928   3.665   1.144   1.878  0.3942 -0.3429 -0.6920
 6578TIP3    H143929   3.684   1.090   1.955  0.3735  1.3386  0.5424
 6578TIP3    H243930   3.592   1.099   1.834 -0.3130 -0.7880  0.8672
 6579TIP3   OH243931   3.289   2.804   4.053  0.4070  0.3057 -0.1022
 6579TIP3    H143932   3.195   2.797   4.067  0.3294 -1.1139 -1.1437
 6579TIP3    H243933   3.326   2.729   4.100  0.7505 -0.5948 -1.7217
 6580TIP3   OH243934   6.576   0.895   0.828 -0.5611 -0.2800  0.1521
 6580TIP3    H143935   6.662   0.854   0.837  0.3469  1.4723  0.0406
 6580TIP3    H243936   6.572   0.922   0.736 -1.6852 -1.2537 -0.1023
 6581TIP3   OH243937   5.310   1.348   0.873  0.7402  0.0219  0.3832
 6581TIP3    H143938   5.225   1.312   0.897  1.8695 -2.1027  1.4203
 6581TIP3    H243939   5.289   1.418   0.811 -1.6690 -1.5378 -0.7264
 6582TIP3   OH243940   1.578   3.895   1.114  0.1242 -0.5670 -0.4160
 6582TIP3    H143941   1.630   3.815   1.118  0.3318 -0.3997  1.8025
 6582TIP3    H243942   1.642   3.965   1.102  0.3604 -0.4629  1.1965
 6583TIP3   OH243943   2.403   1.424   3.332 -0.5230 -0.1579 -0.2579
 6583TIP3    H143944   2.400   1.372   3.412 -2.7051 -0.0463 -0.2031
 6583TIP3    H243945   2.312   1.452   3.318 -0.3813 -0.8584 -3.2220
 6584TIP3   OH243946   5.985   4.474   3.865 -0.0504 -0.4457 -0.2728
 6584TIP3    H143947   6.016   4.399   3.815  0.1658  0.1001 -0.9775
 6584TIP3    H243948   5.893   4.454   3.885  0.3928 -1.5339  0.8037
 6585TIP3   OH243949   4.445   2.690   2.861 -0.2903 -0.0031 -0.1506
 6585TIP3    H143950   4.464   2.668   2.770  1.2568  0.6032 -0.0082
 6585TIP3    H243951   4.391   2.768   2.856  0.2097  0.3258 -0.5598
 6586TIP3   OH243952   2.502   3.162   2.064 -0.4594  0.0314  0.2821
 6586TIP3    H143953   2.573   3.148   2.001  0.3228  1.4469  0.7871
 6586TIP3    H243954   2.433   3.206   2.014 -0.5727 -0.4665  0.0059
 6587TIP3   OH243955   4.100   0.833   1.132 -0.0654  0.1985 -0.0545
 6587TIP3    H143956   4.065   0.886   1.204 -3.0778 -0.4838 -0.8591
 6587TIP3    H243957   4.177   0.791   1.169 -0.4846  1.2342  2.2053
 6588TIP3   OH243958   5.237   5.442   1.843 -0.4387 -0.1414 -0.1077
 6588TIP3    H143959   5.325   5.448   1.881  0.6883  0.9591 -2.6254
 6588TIP3    H243960   5.183   5.498   1.898  0.8973  0.6719  0.4371
 6589TIP3   OH243961   3.315   5.378   4.296 -0.8625 -0.2345  0.4424
 6589TIP3    H143962   3.244   5.441   4.299 -0.1840  0.5522  0.3385
 6589TIP3    H243963   3.383   5.414   4.353  0.3808  0.2229 -1.2347
 6590TIP3   OH243964   6.375   6.636   3.602 -0.3509  0.2754 -0.6894
 6590TIP3    H143965   6.296   6.584   3.617  1.8971 -2.9451  1.2080
 6590TIP3    H243966   6.431   6.579   3.549  0.8914  2.3448 -1.7283
 6591TIP3   OH243967   3.244   0.956   3.198  0.2935  0.4043 -0.4185
 6591TIP3    H143968   3.172   1.018   3.184  0.8330  1.1173 -0.0897
 6591TIP3    H243969   3.317   1.011   3.226  1.0355 -0.2929 -0.9780
 6592TIP3   OH243970   0.864   2.497   2.082  0.2954  0.4359 -0.5068
 6592TIP3    H143971   0.820   2.582   2.090  1.9798  1.2898  0.1241
 6592TIP3    H243972   0.946   2.508   2.129 -0.1039 -2.0435  0.9565
 6593TIP3   OH243973   5.241   5.076   1.961  0.5854  0.7471 -0.2886
 6593TIP3    H143974   5.274   4.989   1.941  1.2047  0.2120  2.6541
 6593TIP3    H243975   5.160   5.084   1.910  0.3370 -1.6684 -0.3517
 6594TIP3   OH243976   2.806   5.763   3.227  0.2209  0.2091  0.2600
 6594TIP3    H143977   2.870   5.694   3.206 -0.3929 -0.1108 -0.6526
 6594TIP3    H243978   2.858   5.834   3.264  1.3274  0.5318 -1.7676
 6595TIP3   OH243979   1.739   5.534   0.719 -0.1726 -0.0833 -0.5131
 6595TIP3    H143980   1.653   5.561   0.751 -0.3172 -1.9176  0.8435
 6595TIP3    H243981   1.780   5.615   0.689 -2.6425  0.7365 -1.9719
 6596TIP3   OH243982   4.650   2.212   3.983  0.1091  0.1317 -0.4643
 6596TIP3    H143983   4.669   2.130   3.938  0.6274 -0.0007 -0.0011
 6596TIP3    H243984   4.734   2.256   3.990  0.1891 -0.2199  1.1219
 6597TIP3   OH243985   3.062   0.541   4.516 -0.9413 -0.2226  0.0586
 6597TIP3    H143986   3.091   0.492   4.593  2.4592  1.9967  0.4425
 6597TIP3    H243987   3.119   0.510   4.445 -0.2661  1.4995 -0.2007
 6598TIP3   OH243988   6.666   4.347   3.309  0.5134  0.1381 -0.5484
 6598TIP3    H143989   6.653   4.303   3.225  1.1197 -0.5249 -0.3009
 6598TIP3    H243990   6.733   4.295   3.353  1.0040  1.1236 -0.1152
 6599TIP3   OH243991   3.190   0.442   2.622 -0.0338 -0.1102 -0.1590
 6599TIP3    H143992   3.181   0.347   2.614 -2.7191  0.1356 -1.5775
 6599TIP3    H243993   3.127   0.477   2.559  1.0659  2.6421  0.1117
 6600TIP3   OH243994   4.345   0.669   3.345  0.0186 -0.0790  0.4900
 6600TIP3    H143995   4.438   0.676   3.368  0.1135 -0.3704  0.1974
 6600TIP3    H243996   4.343   0.684   3.251 -0.2876  0.3841  0.5655
 6601TIP3   OH243997   1.295   0.740   1.971  0.2656  0.0187 -0.0043
 6601TIP3    H143998   1.352   0.684   1.918 -0.0344 -0.5551  0.2760
 6601TIP3    H243999   1.224   0.765   1.912 -0.4490 -1.1954  0.3020
 6602TIP3   OH244000   2.124   0.441   3.173  0.3193  0.1407  0.4447
 6602TIP3    H144001   2.080   0.500   3.234  2.2640  0.4981  1.5713
 6602TIP3    H244002   2.118   0.355   3.214 -1.0462 -0.1859 -0.3865
 6603TIP3   OH244003   6.655   6.050   3.276 -0.4693  0.4834  0.2949
 6603TIP3    H144004   6.713   6.025   3.348  0.3501  1.2583 -0.0682
 6603TIP3    H244005   6.674   5.986   3.207  1.1031  1.5927 -0.3743
 6604TIP3   OH244006   1.025   2.102   0.925  0.1281 -0.2834  0.2385
 6604TIP3    H144007   0.964   2.031   0.904 -1.8883  0.8604  1.8402
 6604TIP3    H244008   1.050   2.085   1.016 -3.0820  2.7173  1.9098
 6605TIP3   OH244009   5.234   0.549   0.774 -0.3273 -0.4277  0.2825
 6605TIP3    H144010   5.142   0.550   0.749  0.1055  1.2507 -1.4734
 6605TIP3    H244011   5.235   0.512   0.862 -2.6397 -0.6995  0.2393
 6606TIP3   OH244012   2.939   2.368   1.008  0.2716 -0.1470 -0.0397
 6606TIP3    H144013   3.020   2.334   1.047  0.0522 -0.1846  0.3909
 6606TIP3    H244014   2.910   2.299   0.950  1.3306  0.4561 -1.3364
 6607TIP3   OH244015   0.643   1.030   2.428 -0.5050  0.2837 -0.2909
 6607TIP3    H144016   0.685   1.080   2.498 -1.4656  0.0436  0.4823
 6607TIP3    H244017   0.713   0.975   2.393  0.0787  0.6870  0.2218
 6608TIP3   OH244018   6.311   6.680   0.913 -0.1835  0.6785  0.0845
 6608TIP3    H144019   6.317   6.667   0.818 -0.5417  1.6449 -0.0780
 6608TIP3    H244020   6.241   6.744   0.925 -0.8664 -0.2211  1.0843
 6609TIP3   OH244021   4.153   5.155   3.452 -0.2213  0.0078 -0.0790
 6609TIP3    H144022   4.125   5.191   3.536  0.1573  0.4276 -0.1317
 6609TIP3    H244023   4.071   5.130   3.409 -0.6126  1.9138 -0.5402
 6610TIP3   OH244024   3.611   6.585   9.301  0.1282 -0.1723  0.2873
 6610TIP3    H144025   3.541   6.520   9.305  0.7425 -1.0394 -1.8066
 6610TIP3    H244026   3.691   6.533   9.291  0.6740  0.8698 -1.0834
 6611TIP3   OH244027   5.196   1.029   2.594  0.1592  0.9831  0.3881
 6611TIP3    H144028   5.215   0.943   2.630 -0.8338  0.4890 -0.2548
 6611TIP3    H244029   5.104   1.044   2.613  1.1097  3.6731  4.1616
 6612TIP3   OH244030   4.703   3.661   0.615  0.2182 -0.3915  0.1192
 6612TIP3    H144031   4.662   3.575   0.612  1.7097 -1.1291 -0.7028
 6612TIP3    H244032   4.680   3.701   0.531  2.1660 -1.3584 -0.9611
 6613TIP3   OH244033   1.782   0.759   0.793  0.3496  0.5441 -0.2395
 6613TIP3    H144034   1.791   0.843   0.748  0.1473  0.5717 -0.2305
 6613TIP3    H244035   1.833   0.698   0.741  0.8728  0.7657  0.0057
 6614TIP3   OH244036   4.204   0.792   2.548  0.6378  0.4489  0.1018
 6614TIP3    H144037   4.244   0.873   2.515  1.2024  0.6219  1.1376
 6614TIP3    H244038   4.120   0.820   2.584  1.6619  1.0078  2.2819
 6615TIP3   OH244039   0.406   4.170   1.978 -0.0128 -0.5817  0.2959
 6615TIP3    H144040   0.322   4.136   2.008  0.0356 -0.9457  0.0229
 6615TIP3    H244041   0.452   4.093   1.944 -0.3151 -0.0854 -1.2981
 6616TIP3   OH244042   2.000   6.435   4.045 -0.4420  0.3744  0.1511
 6616TIP3    H144043   1.999   6.457   4.138  1.1176  0.6130  0.1272
 6616TIP3    H244044   2.001   6.339   4.044  1.6808  0.3379  0.4734
 6617TIP3   OH244045   5.007   4.989   1.788 -0.0316 -0.5289  0.6653
 6617TIP3    H144046   5.002   4.913   1.730 -1.9930 -0.1674  0.2815
 6617TIP3    H244047   5.019   5.064   1.729  2.2964 -0.5038  1.0622
 6618TIP3   OH244048   2.185   5.633   4.126  0.3053  1.0055 -0.1239
 6618TIP3    H144049   2.260   5.579   4.150 -0.5760  0.0297  0.5611
 6618TIP3    H244050   2.142   5.653   4.209  0.2581  2.2502 -0.4287
 6619TIP3   OH244051   6.120   6.428   2.160  0.2945  0.4050  0.5677
 6619TIP3    H144052   6.086   6.508   2.199  0.6159  0.7061  0.2368
 6619TIP3    H244053   6.080   6.424   2.074 -0.3285 -0.2028  0.8766
 6620TIP3   OH244054   3.823   2.717   3.018 -0.1793  0.5756 -0.3682
 6620TIP3    H144055   3.844   2.665   3.096 -1.1084  0.4016 -0.2211
 6620TIP3    H244056   3.733   2.746   3.032  0.4596  2.6704 -0.2149
 6621TIP3   OH244057   6.315   2.381   1.618 -0.1386  0.5765  0.5546
 6621TIP3    H144058   6.374   2.309   1.642 -1.3439 -1.0541 -1.0374
 6621TIP3    H244059   6.370   2.442   1.569  0.5249 -0.3016  0.1638
 6622TIP3   OH244060   1.355   5.128   3.248 -0.6707  0.1986 -0.0498
 6622TIP3    H144061   1.324   5.067   3.181 -1.8975 -1.3223  1.7565
 6622TIP3    H244062   1.287   5.195   3.254 -0.2665  0.6711 -0.7236
 6623TIP3   OH244063   4.735   2.094   3.454  0.4910  0.1187  0.2379
 6623TIP3    H144064   4.648   2.127   3.477  0.6819  0.2327  0.8270
 6623TIP3    H244065   4.783   2.094   3.537  0.6965 -1.0468  0.1443
 6624TIP3   OH244066   3.977   0.756   2.080 -0.0642  0.6019 -0.1568
 6624TIP3    H144067   4.050   0.794   2.032  1.8358  0.5647  2.4746
 6624TIP3    H244068   3.946   0.827   2.137  0.3912 -0.3819  1.3809
 6625TIP3   OH244069   5.982   6.764   3.309  0.5941 -0.3895  0.6119
 6625TIP3    H144070   6.072   6.733   3.319 -0.2176 -3.0609  0.4602
 6625TIP3    H244071   5.980   6.807   3.223  2.3343  2.4242  1.8463
 6626TIP3   OH244072   0.215   0.524   1.554  0.0477  0.3449 -0.0869
 6626TIP3    H144073   0.124   0.527   1.523 -0.0308 -0.8526 -0.0072
 6626TIP3    H244074   0.231   0.432   1.574  1.2547  0.5539 -0.0024
 6627TIP3   OH244075   1.058   0.566   1.117 -0.3506 -0.0384 -0.3058
 6627TIP3    H144076   1.077   0.518   1.036 -0.9616  0.1469 -0.5690
 6627TIP3    H244077   1.136   0.619   1.133  0.5354 -1.4550  0.2485
 6628TIP3   OH244078   0.901   5.792   2.326  0.5869 -0.4733  0.0025
 6628TIP3    H144079   0.934   5.827   2.409 -1.4914  0.6946  0.4143
 6628TIP3    H244080   0.961   5.827   2.260  1.8716 -0.8536  0.9378
 6629TIP3   OH244081   1.138   0.982   1.527  0.3285  0.4203  0.4482
 6629TIP3    H144082   1.153   1.057   1.469 -0.0541  0.3139  0.2108
 6629TIP3    H244083   1.070   0.931   1.483  0.8419 -0.2654  0.4217
 6630TIP3   OH244084   3.913   1.773   1.195 -0.1085 -0.1343  0.0937
 6630TIP3    H144085   3.954   1.697   1.155  0.4467  1.4964 -2.7580
 6630TIP3    H244086   3.819   1.762   1.178 -0.1072 -0.5580  0.3768
 6631TIP3   OH244087   0.227   1.072   1.607 -0.1083  0.0536  0.2178
 6631TIP3    H144088   0.191   0.989   1.576  1.7176 -0.4323 -0.7478
 6631TIP3    H244089   0.202   1.135   1.539 -0.7730  0.1283  0.5264
 6632TIP3   OH244090   6.671   2.479   1.318  1.0838  0.6193 -0.5019
 6632TIP3    H144091   6.624   2.541   1.375  2.0925  0.8915  0.0551
 6632TIP3    H244092   6.610   2.461   1.247  0.0665  0.8318  0.2896
 6633TIP3   OH244093   1.330   6.231   1.106 -0.2743  0.0980 -0.5016
 6633TIP3    H144094   1.258   6.229   1.169  0.5592  0.7889  0.5136
 6633TIP3    H244095   1.365   6.142   1.106  1.0893  0.5456  1.7145
 6634TIP3   OH244096   0.409   0.604   0.855  0.3666  0.0958 -0.3113
 6634TIP3    H144097   0.337   0.581   0.914  0.8557 -1.8695 -0.4062
 6634TIP3    H244098   0.370   0.666   0.793 -0.7379  0.4769  0.7335
 6635TIP3   OH244099   6.209   1.942   3.407 -0.3137 -0.2439  0.4345
 6635TIP3    H144100   6.113   1.940   3.405 -0.4199  2.1929 -0.0015
 6635TIP3    H244101   6.231   1.934   3.500 -1.0164  0.1427  0.6473
 6636TIP3   OH244102   4.605   4.461   1.142 -0.2867 -0.2990 -0.0220
 6636TIP3    H144103   4.683   4.495   1.098  0.3504 -0.1255  1.2181
 6636TIP3    H244104   4.638   4.393   1.201 -1.0376 -0.0472  0.7032
 6637TIP3   OH244105   5.836   4.518   0.868 -0.4095  0.6682  1.0111
 6637TIP3    H144106   5.808   4.606   0.895  0.7647  1.2737  0.3294
 6637TIP3    H244107   5.921   4.506   0.912  1.2067  1.3881 -1.7070
 6638TIP3   OH244108   4.552   2.629   0.625 -0.3066 -0.0838  0.3333
 6638TIP3    H144109   4.553   2.724   0.614  1.8057 -0.2389 -1.4967
 6638TIP3    H244110   4.624   2.611   0.686  1.1047 -0.6084 -1.3843
 6639TIP3   OH244111   5.960   6.491   3.379  0.4883  0.1222 -0.0449
 6639TIP3    H144112   5.961   6.577   3.336 -1.5027  0.6457  0.8091
 6639TIP3    H244113   5.948   6.428   3.307  0.5293  0.6838 -0.5534
 6640TIP3   OH244114   2.973   4.859   1.750 -0.4226  0.0235  0.3364
 6640TIP3    H144115   2.945   4.879   1.661  0.0716 -0.4132  0.0739
 6640TIP3    H244116   3.037   4.927   1.771 -0.1822 -0.1445  0.1684
 6641TIP3   OH244117   0.109   0.433   2.281 -0.4826 -0.0253 -0.1471
 6641TIP3    H144118   0.167   0.499   2.243 -0.6479 -0.3321 -0.9645
 6641TIP3    H244119   0.114   0.359   2.220 -1.6654 -0.0874 -0.1999
 6642TIP3   OH244120   5.082   6.158   0.673  0.1617 -0.5982 -0.1955
 6642TIP3    H144121   5.131   6.101   0.614  0.3047 -0.2116 -0.4586
 6642TIP3    H244122   5.149   6.218   0.708  0.3903 -1.7690  1.5506
 6643TIP3   OH244123   0.162   0.836   1.020  0.7889 -0.2603 -0.0698
 6643TIP3    H144124   0.246   0.792   1.032 -0.1001 -1.5759  1.7160
 6643TIP3    H244125   0.120   0.833   1.105 -1.7301 -1.0093 -1.2453
 6644TIP3   OH244126   3.306   1.415   2.095 -0.4769  0.2502  0.2877
 6644TIP3    H144127   3.296   1.483   2.163  1.0341  1.2193 -0.3951
 6644TIP3    H244128   3.315   1.465   2.014  3.7617 -0.5041  0.0984
 6645TIP3   OH244129   5.818   3.555   2.260  0.0143  0.0854  0.4924
 6645TIP3    H144130   5.890   3.595   2.211 -0.3555  0.2100  0.0449
 6645TIP3    H244131   5.803   3.614   2.334  0.1891  0.1991  0.4387
 6646TIP3   OH244132   3.600   1.869   1.877  0.4672 -0.4493 -0.0013
 6646TIP3    H144133   3.618   1.792   1.823 -1.3536 -2.0863  1.5741
 6646TIP3    H244134   3.504   1.876   1.879  0.5557  2.0565 -0.2707
 6647TIP3   OH244135   3.427   4.306   1.884  0.0176  0.5056  0.4544
 6647TIP3    H144136   3.396   4.377   1.829  1.2129  1.9728  1.5958
 6647TIP3    H244137   3.388   4.321   1.970 -0.9929 -1.1672  0.3457
 6648TIP3   OH244138   2.128   4.766   1.913 -0.4232  0.7315 -0.5684
 6648TIP3    H144139   2.110   4.708   1.986 -1.0669  1.0849 -0.4449
 6648TIP3    H244140   2.177   4.712   1.851  0.9113  0.6767  0.4972
 6649TIP3   OH244141   0.423   6.732   0.895 -0.2521 -0.2391  0.3254
 6649TIP3    H144142   0.474   6.734   0.976  1.8980 -2.2760 -0.8500
 6649TIP3    H244143   0.345   6.682   0.917  0.7328 -1.5615  0.9773
 6650TIP3   OH244144   4.557   4.366   3.816  0.1253 -0.5473  0.5819
 6650TIP3    H144145   4.504   4.337   3.890  0.1855  0.0501  0.8640
 6650TIP3    H244146   4.563   4.461   3.826 -1.0335 -0.2717 -0.9555
 6651TIP3   OH244147   0.941   1.121   1.906 -0.0524  0.7850 -0.1647
 6651TIP3    H144148   1.004   1.142   1.975 -0.1692  0.6048 -0.0028
 6651TIP3    H244149   0.960   1.030   1.884 -1.1520  0.2788  0.8488
 6652TIP3   OH244150   2.178   6.362   2.381  0.4593  0.5756 -0.0751
 6652TIP3    H144151   2.179   6.285   2.324 -2.0112 -0.5427  1.2038
 6652TIP3    H244152   2.125   6.426   2.333 -1.2509 -0.2094  0.6578
 6653TIP3   OH244153   3.217   1.653   1.676 -0.1802  0.2151  0.1078
 6653TIP3    H144154   3.148   1.710   1.641 -0.4324  0.1550  0.5013
 6653TIP3    H244155   3.292   1.669   1.620 -0.3405  0.7168  0.0325
 6654TIP3   OH244156   0.296   0.492   0.472  0.4098 -0.3237  0.3300
 6654TIP3    H144157   0.307   0.583   0.445 -0.1071 -0.3208  0.1288
 6654TIP3    H244158   0.223   0.494   0.534 -0.3112 -0.7494 -0.4829
 6655TIP3   OH244159   0.472   3.056   0.935  0.7697  0.2333 -0.4031
 6655TIP3    H144160   0.548   3.057   0.993 -0.4647 -0.3978  1.3218
 6655TIP3    H244161   0.457   2.963   0.916 -0.9476  0.1080  1.2774
 6656TIP3   OH244162   6.666   0.575   0.869 -0.0860 -0.1212 -0.4749
 6656TIP3    H144163   6.678   0.494   0.919  0.0615  0.2377  0.0836
 6656TIP3    H244164   6.574   0.599   0.882 -0.4910 -0.8929 -1.7240
 6657TIP3   OH244165   3.702   5.952   1.481 -0.2069  0.2624  0.0279
 6657TIP3    H144166   3.617   5.942   1.523  0.7043  0.4870  2.0614
 6657TIP3    H244167   3.731   5.862   1.464 -0.8520  0.1876 -0.7332
 6658TIP3   OH244168   1.291   5.208   1.825  0.0833  0.1407 -0.6513
 6658TIP3    H144169   1.331   5.145   1.766 -0.9283  0.8199 -2.1311
 6658TIP3    H244170   1.214   5.240   1.777 -0.6886  0.8361  0.9779
 6659TIP3   OH244171   4.647   5.135   3.218  0.2402  0.3738  0.0040
 6659TIP3    H144172   4.636   5.169   3.129  0.4292 -0.6115 -0.4024
 6659TIP3    H244173   4.664   5.213   3.271  1.9285  0.8152 -1.0998
 6660TIP3   OH244174   4.925   6.271   1.491 -0.6135  0.6052 -0.4357
 6660TIP3    H144175   4.973   6.297   1.570  0.1423 -0.6747 -0.4506
 6660TIP3    H244176   4.834   6.267   1.519 -0.2126 -1.2146  0.7976
 6661TIP3   OH244177   2.773   6.660   2.975  0.5082  0.2777  0.1282
 6661TIP3    H144178   2.747   6.578   2.933  2.7441  0.0501 -0.9578
 6661TIP3    H244179   2.737   6.728   2.918 -0.9949  0.0914  0.8048
 6662TIP3   OH244180   2.625   4.897   2.549 -0.6358 -0.5900  0.6364
 6662TIP3    H144181   2.636   4.846   2.469 -0.2225  0.9795 -0.3436
 6662TIP3    H244182   2.692   4.862   2.609 -0.5633 -1.3866  0.1042
 6663TIP3   OH244183   3.822   1.236   3.469  0.5341 -0.0783  0.0938
 6663TIP3    H144184   3.874   1.169   3.423  0.6153  2.0204 -3.2467
 6663TIP3    H244185   3.733   1.225   3.435 -0.2415 -0.5841  2.1408
 6664TIP3   OH244186   1.864   3.759   1.733  0.2071 -0.1521  0.1706
 6664TIP3    H144187   1.858   3.755   1.637 -1.9071  1.5313  0.1512
 6664TIP3    H244188   1.871   3.853   1.753 -1.1488 -0.3275  1.6849
 6665TIP3   OH244189   1.360   3.724   3.425 -0.0941 -0.1582  0.2127
 6665TIP3    H144190   1.424   3.719   3.495 -0.1515 -1.3852  0.2126
 6665TIP3    H244191   1.403   3.682   3.350 -0.0406  1.1071 -0.4945
 6666TIP3   OH244192   3.336   2.350   2.073 -0.1971  0.3182 -0.1052
 6666TIP3    H144193   3.432   2.348   2.074 -0.2170 -1.0525 -0.2459
 6666TIP3    H244194   3.314   2.417   2.138  0.8559  1.3433 -0.7543
 6667TIP3   OH244195   2.987   4.953   2.112 -0.0373 -0.3697  0.1876
 6667TIP3    H144196   3.015   4.935   2.022 -0.7766 -0.2658 -0.0764
 6667TIP3    H244197   2.995   5.048   2.121  0.9190 -0.4751  0.5485
 6668TIP3   OH244198   3.664   2.703   2.089  0.1798  0.2625 -0.0283
 6668TIP3    H144199   3.718   2.719   2.166  1.0018 -0.7373 -0.3729
 6668TIP3    H244200   3.698   2.621   2.053  0.3287  1.0864 -1.8830
 6669TIP3   OH244201   4.244   4.612   1.968 -0.0705 -0.5241 -0.0056
 6669TIP3    H144202   4.230   4.573   1.882  0.2441  1.2092 -0.9065
 6669TIP3    H244203   4.339   4.627   1.973 -0.2502  0.7052  0.0085
 6670TIP3   OH244204   5.715   2.188   0.866  0.3795 -0.1219 -0.0713
 6670TIP3    H144205   5.677   2.230   0.944  2.5964  1.6300  0.1582
 6670TIP3    H244206   5.708   2.254   0.798  0.6959 -0.7396 -0.7099
 6671TIP3   OH244207   5.854   2.318   1.387 -0.3765 -0.2426  0.1438
 6671TIP3    H144208   5.841   2.298   1.480 -1.7365  0.8383  0.2263
 6671TIP3    H244209   5.829   2.237   1.342 -0.9525 -0.3712  0.6721
 6672TIP3   OH244210   3.672   6.765   1.245 -0.0061  0.2797  0.5747
 6672TIP3    H144211   3.582   6.788   1.266 -0.6393 -0.7896 -0.7599
 6672TIP3    H244212   3.670   6.670   1.233  1.4135  0.1726  0.9835
 6673TIP3   OH244213   4.157   2.046   2.081 -0.1988  0.3755 -0.2926
 6673TIP3    H144214   4.245   2.084   2.073  0.4885 -1.2640 -1.0871
 6673TIP3    H244215   4.105   2.095   2.017 -0.1643  2.0605  0.9027
 6674TIP3   OH244216   3.897   5.372   1.661  0.3066  0.4728  0.3164
 6674TIP3    H144217   3.827   5.390   1.724  1.4179 -1.0051  2.0867
 6674TIP3    H244218   3.866   5.296   1.612  0.3531  0.2331  0.6474
 6675TIP3   OH244219   4.637   6.159   2.420  0.2607  0.2255  0.4584
 6675TIP3    H144220   4.705   6.110   2.467  1.6974 -0.0949 -1.7646
 6675TIP3    H244221   4.685   6.232   2.379 -1.2138  1.4445  0.8358
 6676TIP3   OH244222   5.568   1.460   1.349  0.1912  0.4208  0.0146
 6676TIP3    H144223   5.574   1.366   1.366  1.9087  0.6898  1.0720
 6676TIP3    H244224   5.495   1.489   1.403  0.6668 -0.0507  0.9340
 6677TIP3   OH244225   1.950   3.442   4.030 -0.8487  0.0886  0.8575
 6677TIP3    H144226   1.948   3.425   3.936 -2.7203  2.8864  0.2831
 6677TIP3    H244227   2.015   3.380   4.064  0.1201 -0.7946 -2.2804
 6678TIP3   OH244228   3.559   3.303   0.545  0.4293  0.2375 -0.4910
 6678TIP3    H144229   3.475   3.347   0.561  0.1231 -0.3749 -0.3340
 6678TIP3    H244230   3.534   3.212   0.525  1.0918 -0.1184  0.2441
 6679TIP3   OH244231   3.770   1.411   0.479  0.5095  0.6578 -0.1703
 6679TIP3    H144232   3.724   1.494   0.484  1.6455  1.2335  2.3803
 6679TIP3    H244233   3.747   1.365   0.560  0.5661 -1.1743 -1.1258
 6680TIP3   OH244234   6.161   0.559   2.972  0.5954  0.4359  0.3907
 6680TIP3    H144235   6.103   0.629   2.941  1.4763  1.9099  1.9211
 6680TIP3    H244236   6.119   0.527   3.052 -0.1523 -1.3247 -0.6396
 6681TIP3   OH244237   5.171   4.077   0.982  0.3751 -0.2111 -0.0193
 6681TIP3    H144238   5.182   4.024   1.061  0.0788  0.5448  0.5505
 6681TIP3    H244239   5.143   4.015   0.915  0.4734 -0.8417  0.5081
 6682TIP3   OH244240   6.295   5.085   1.138 -0.1147  0.4079  0.7508
 6682TIP3    H144241   6.246   5.117   1.214 -0.7143 -1.0868  1.0261
 6682TIP3    H244242   6.234   5.026   1.094  1.2324 -1.0742  0.7940
 6683TIP3   OH244243   0.495   1.251   2.313  0.0722 -0.0677  0.1967
 6683TIP3    H144244   0.508   1.181   2.377  0.6509 -1.1650 -1.0837
 6683TIP3    H244245   0.584   1.277   2.288 -0.1406 -0.7706 -1.3424
 6684TIP3   OH244246   6.645   2.382   3.143  0.2394 -0.5671 -0.0645
 6684TIP3    H144247   6.633   2.369   3.237  1.7550  0.0906  0.2378
 6684TIP3    H244248   6.589   2.457   3.123  0.4784 -0.2416  0.4599
 6685TIP3   OH244249   4.889   5.811   0.534 -0.0733  0.2604 -0.4409
 6685TIP3    H144250   4.810   5.861   0.552 -0.8373 -1.3037  0.7948
 6685TIP3    H244251   4.959   5.860   0.577 -0.5574  0.9929 -0.4671
 6686TIP3   OH244252   4.854   6.787   2.439  0.0421 -0.1821  0.2401
 6686TIP3    H144253   4.834   6.753   2.352  0.2085  1.2273 -0.3624
 6686TIP3    H244254   4.845   6.882   2.431  0.9905  0.0420  1.5150
 6687TIP3   OH244255   0.842   6.447   2.333 -0.3164  0.2773  0.1268
 6687TIP3    H144256   0.802   6.520   2.286  1.6833  0.2738 -1.7569
 6687TIP3    H244257   0.776   6.378   2.332 -0.5179  0.4324 -2.4145
 6688TIP3   OH244258   4.805   1.699   1.207 -0.8159  0.4491  0.2261
 6688TIP3    H144259   4.758   1.736   1.133  3.5141  2.8858 -1.6387
 6688TIP3    H244260   4.831   1.612   1.178  1.0238  1.4541 -1.4087
 6689TIP3   OH244261   0.115   6.766   0.383  0.6018 -0.4167  0.0784
 6689TIP3    H144262   0.023   6.788   0.365  0.8603  0.3581 -0.3324
 6689TIP3    H244263   0.164   6.843   0.355  1.3368 -0.6067  0.8203
 6690TIP3   OH244264   5.479   2.959   1.783 -0.2640  0.0982  0.2488
 6690TIP3    H144265   5.429   3.024   1.833 -1.3990  0.4748 -1.2793
 6690TIP3    H244266   5.432   2.877   1.797  0.5363 -0.2035  1.2995
 6691TIP3   OH244267   1.683   0.821   2.621 -0.3800 -0.1533  0.3308
 6691TIP3    H144268   1.613   0.755   2.630 -0.9679  0.2951 -0.6843
 6691TIP3    H244269   1.750   0.776   2.569 -0.8614  0.0764 -0.5217
 6692TIP3   OH244270   4.389   2.403   3.143  0.1577  0.2749 -0.2737
 6692TIP3    H144271   4.331   2.430   3.214 -1.3522  2.4530 -2.1827
 6692TIP3    H244272   4.398   2.309   3.154 -2.1936  0.1372  1.2611
 6693TIP3   OH244273   5.970   1.897   2.357  0.4362  0.4222  0.6837
 6693TIP3    H144274   5.882   1.865   2.377  0.1236  0.9103  0.1145
 6693TIP3    H244275   5.988   1.866   2.268 -0.2571  2.5523 -0.2680
 6694TIP3   OH244276   2.027   4.258   2.514  0.1164 -0.2972  0.2779
 6694TIP3    H144277   2.038   4.350   2.489  1.1631 -0.1496  1.2335
 6694TIP3    H244278   1.982   4.218   2.439  0.8962  0.6878 -0.7427
 6695TIP3   OH244279   4.781   6.655   1.346 -0.6784  0.0809  0.1548
 6695TIP3    H144280   4.765   6.749   1.336  1.3482  0.3577 -1.0075
 6695TIP3    H244281   4.726   6.613   1.280 -1.2288  0.4806  0.3577
 6696TIP3   OH244282   5.189   3.636   3.128  0.1792  0.1419  0.6355
 6696TIP3    H144283   5.131   3.709   3.146  0.8485  0.6920  0.5900
 6696TIP3    H244284   5.232   3.658   3.046 -1.0127 -1.2018 -0.3983
 6697TIP3   OH244285   0.295   3.956   2.345 -0.2634 -0.1704 -0.0105
 6697TIP3    H144286   0.242   3.876   2.346 -0.3065 -0.1385  0.7786
 6697TIP3    H244287   0.340   3.956   2.429 -0.9081  1.0549  0.3579
 6698TIP3   OH244288   6.053   5.592   0.873  0.0937  0.0174  0.1859
 6698TIP3    H144289   6.035   5.509   0.829 -0.8150 -0.2403  1.0293
 6698TIP3    H244290   6.064   5.569   0.965  0.1627  0.7889  0.3781
 6699TIP3   OH244291   0.969   4.993   2.255 -0.9208  0.4071 -0.6751
 6699TIP3    H144292   0.876   4.973   2.262 -0.8119  0.5212  2.0448
 6699TIP3    H244293   0.974   5.087   2.271 -0.2890  0.3321 -0.4268
 6700TIP3   OH244294   1.562   4.914   0.913 -0.3399 -0.1021 -0.2468
 6700TIP3    H144295   1.599   4.953   0.992 -0.0445 -2.6925  0.9937
 6700TIP3    H244296   1.632   4.921   0.848 -0.9005  2.8600 -0.6528
 6701TIP3   OH244297   1.935   2.047   0.969 -0.0818  0.8478  0.1874
 6701TIP3    H144298   1.926   2.031   0.875 -1.0035  0.6205  0.2990
 6701TIP3    H244299   1.955   1.962   1.007  0.7525  1.0248  0.1476
 6702TIP3   OH244300   2.570   2.711   3.247  0.3162 -0.1308 -0.3243
 6702TIP3    H144301   2.502   2.768   3.283  0.0946 -0.2866 -0.4926
 6702TIP3    H244302   2.602   2.758   3.170 -0.6245 -0.7181 -1.1011
 6703TIP3   OH244303   2.515   1.447   1.261  0.2451  0.2956  0.2865
 6703TIP3    H144304   2.524   1.531   1.217 -1.6928  0.4904  0.1741
 6703TIP3    H244305   2.430   1.452   1.305 -1.1713 -2.4957 -1.8083
 6704TIP3   OH244306   4.809   2.305   0.911  0.1100  0.5189  0.2328
 6704TIP3    H144307   4.876   2.274   0.972  0.1266  1.4047  0.6900
 6704TIP3    H244308   4.737   2.333   0.968 -0.1404  0.7381 -0.1905
 6705TIP3   OH244309   1.337   3.274   0.769 -0.4945  0.3740 -0.3732
 6705TIP3    H144310   1.244   3.294   0.759 -0.3376  1.1703 -0.2884
 6705TIP3    H244311   1.344   3.233   0.855 -0.9494 -0.8698 -0.9175
 6706TIP3   OH244312   4.199   2.473   2.940  0.0575 -0.4807  0.1886
 6706TIP3    H144313   4.237   2.428   3.015 -0.7622 -0.1835  0.8061
 6706TIP3    H244314   4.243   2.558   2.938  0.1495 -0.5261  0.2808
 6707TIP3   OH244315   0.329   2.845   2.218 -0.1065 -1.0050  0.3391
 6707TIP3    H144316   0.282   2.905   2.276 -1.3455 -2.4097  0.8561
 6707TIP3    H244317   0.401   2.897   2.183 -1.2544  0.8326  0.5848
 6708TIP3   OH244318   4.529   6.511   2.440  0.3830 -0.1139  0.3494
 6708TIP3    H144319   4.539   6.465   2.357 -0.7760 -0.4472  0.3726
 6708TIP3    H244320   4.602   6.480   2.493  0.7302 -0.4428 -0.3071
 6709TIP3   OH244321   3.484   4.853   2.291  0.1775  0.1970 -0.5190
 6709TIP3    H144322   3.481   4.888   2.380  2.3514  1.0416 -0.7167
 6709TIP3    H244323   3.395   4.823   2.274 -1.0042  2.6159  0.8742
 6710TIP3   OH244324   3.405   0.119   0.907 -0.0529  0.1364 -0.9393
 6710TIP3    H144325   3.364   0.181   0.846 -0.7006 -0.0698 -0.7298
 6710TIP3    H244326   3.412   0.037   0.858 -0.4066  0.0203 -0.7996
 6711TIP3   OH244327   1.980   3.015   2.928 -0.1609  0.0188 -0.2262
 6711TIP3    H144328   2.055   3.027   2.987 -0.0565  0.8187 -0.5143
 6711TIP3    H244329   2.018   2.981   2.847 -0.1333  0.2462 -0.3084
 6712TIP3   OH244330   6.103   5.940   2.406 -0.2053  0.0258 -0.2341
 6712TIP3    H144331   6.068   5.859   2.444 -0.9159  0.8385  0.9412
 6712TIP3    H244332   6.191   5.948   2.444  0.6192 -1.0941 -1.7853
 6713TIP3   OH244333   3.491   2.918   2.152 -0.2425  0.5300 -0.0124
 6713TIP3    H144334   3.548   2.978   2.200  0.1172  0.6828 -0.6174
 6713TIP3    H244335   3.547   2.843   2.131 -0.8571 -0.3096  1.2815
 6714TIP3   OH244336   5.655   1.560   3.357 -0.9788 -0.3076  0.1895
 6714TIP3    H144337   5.568   1.594   3.335 -0.7528  1.5248  1.8009
 6714TIP3    H244338   5.654   1.553   3.452  0.7713  0.1962  0.2790
 6715TIP3   OH244339   2.516   6.175   2.113 -0.5533 -0.0339  0.2343
 6715TIP3    H144340   2.507   6.190   2.207  2.2207 -3.5543  1.2979
 6715TIP3    H244341   2.490   6.084   2.100  1.5928 -0.4807 -1.8501
 6716TIP3   OH244342   6.438   3.027   3.445  0.4176 -0.1602 -0.0394
 6716TIP3    H144343   6.343   3.018   3.439  0.3835 -0.2737  0.6770
 6716TIP3    H244344   6.457   3.029   3.538  1.1287 -0.1827 -0.1764
 6717TIP3   OH244345   2.324   6.075   3.013  0.2983  0.6091 -0.1664
 6717TIP3    H144346   2.269   6.055   2.938  0.7347  0.5178 -0.4662
 6717TIP3    H244347   2.376   6.151   2.986  0.4197  0.6107  0.0638
 6718TIP3   OH244348   0.112   0.188   2.146 -0.0143  0.1902 -0.6120
 6718TIP3    H144349   0.087   0.193   2.054  0.4540  0.3053 -0.7365
 6718TIP3    H244350   0.190   0.132   2.147 -0.0912  0.0829 -0.2696
 6719TIP3   OH244351   6.564   6.488   3.237 -0.3976  0.0232  0.6791
 6719TIP3    H144352   6.582   6.565   3.290 -0.2521  0.6503 -0.2619
 6719TIP3    H244353   6.579   6.516   3.147 -1.3277 -0.8215  0.2359
 6720TIP3   OH244354   2.263   4.083   3.847  0.1196 -0.2710 -0.1042
 6720TIP3    H144355   2.351   4.061   3.878  0.5296  0.4654 -0.6966
 6720TIP3    H244356   2.208   4.010   3.876  0.5508  0.1410  1.9085
 6721TIP3   OH244357   3.397   3.247   1.476 -0.3314  0.2406 -0.1742
 6721TIP3    H144358   3.449   3.212   1.549 -0.4051 -2.1674 -1.1823
 6721TIP3    H244359   3.460   3.298   1.425  0.0718  0.6847  0.7319
 6722TIP3   OH244360   5.151   2.117   0.799  0.1331  0.7591 -0.2624
 6722TIP3    H144361   5.242   2.116   0.829 -0.2121  0.0745  0.8336
 6722TIP3    H244362   5.153   2.167   0.717  1.6531 -0.0724 -0.7833
 6723TIP3   OH244363   5.008   1.443   1.177 -0.1917 -0.0812  0.4858
 6723TIP3    H144364   5.023   1.446   1.272 -1.6495 -2.0569  0.8510
 6723TIP3    H244365   5.035   1.355   1.152 -0.9360  0.0165 -0.7231
 6724TIP3   OH244366   2.851   4.637   1.675 -0.0696  0.0158  0.0215
 6724TIP3    H144367   2.868   4.571   1.743 -0.4445  0.3480  0.4456
 6724TIP3    H244368   2.896   4.715   1.707  0.4310 -0.0453 -0.5116
 6725TIP3   OH244369   3.848   2.989   0.425  0.5498  0.1200 -0.0325
 6725TIP3    H144370   3.757   2.970   0.448  0.6144  0.5395  0.6026
 6725TIP3    H244371   3.897   2.911   0.451  0.3514 -0.1540 -0.4885
 6726TIP3   OH244372   4.732   2.564   0.835 -0.3751  0.1471  0.0494
 6726TIP3    H144373   4.824   2.551   0.811 -0.3876  1.1928 -0.6182
 6726TIP3    H244374   4.725   2.528   0.923  1.5684  3.2502  1.6728
 6727TIP3   OH244375   0.963   4.913   2.518  0.0855  0.3106 -0.3576
 6727TIP3    H144376   0.947   5.001   2.552  1.1214  0.8844 -1.2587
 6727TIP3    H244377   0.971   4.925   2.423 -0.4067 -0.8604 -0.5662
 6728TIP3   OH244378   1.128   4.720   2.639  0.2334 -1.0713 -0.3090
 6728TIP3    H144379   1.062   4.779   2.603  0.2244 -1.5769 -1.1258
 6728TIP3    H244380   1.212   4.761   2.616  0.2660  0.2090  1.7505
 6729TIP3   OH244381   1.756   3.671   3.183 -0.3266 -0.6536 -0.0463
 6729TIP3    H144382   1.778   3.647   3.273  0.0407  2.4416  0.8173
 6729TIP3    H244383   1.830   3.640   3.131  1.3498  0.7422  1.3464
 6730TIP3   OH244384   4.757   0.426   3.426 -0.2641  0.3350  0.0765
 6730TIP3    H144385   4.667   0.395   3.413  0.3556 -0.5596 -2.7909
 6730TIP3    H244386   4.794   0.364   3.489 -0.4908 -1.9035 -1.8684
 6731TIP3   OH244387   4.818   3.381   2.190  0.1446  0.4148  0.2897
 6731TIP3    H144388   4.822   3.385   2.094 -0.5238  0.4537  0.2637
 6731TIP3    H244389   4.753   3.315   2.209 -1.6027  2.1656  0.6938
 6732TIP3   OH244390   6.238   4.319   3.912  0.0020 -0.1233  0.2746
 6732TIP3    H144391   6.237   4.413   3.930  0.6681  0.0376 -0.4669
 6732TIP3    H244392   6.164   4.284   3.963 -2.4368  1.2834 -2.0047
 6733TIP3   OH244393   2.093   1.316   1.527 -0.1793  0.4530 -0.4568
 6733TIP3    H144394   2.008   1.287   1.493 -0.1942  1.4704 -1.3462
 6733TIP3    H244395   2.151   1.240   1.516 -0.2523  0.6278 -2.5568
 6734TIP3   OH244396   6.214   3.752   1.323  0.0589  0.0089  0.1610
 6734TIP3    H144397   6.235   3.789   1.237 -0.1981  0.5419  0.3227
 6734TIP3    H244398   6.243   3.819   1.385 -0.2942 -0.1188  0.4656
 6735TIP3   OH244399   3.145   5.337   3.871  0.3179  0.2417  0.4294
 6735TIP3    H144400   3.221   5.395   3.877  0.2200  0.2547  2.9960
 6735TIP3    H244401   3.162   5.269   3.937 -1.1699 -0.6559 -0.0659
 6736TIP3   OH244402   5.127   4.216   2.956  0.5794  0.3541  0.3671
 6736TIP3    H144403   5.219   4.199   2.935  0.5756 -0.2698  0.8051
 6736TIP3    H244404   5.122   4.203   3.051  0.4049  2.1693  0.6370
 6737TIP3   OH244405   1.536   6.697   2.111 -0.1492 -0.5110 -0.4635
 6737TIP3    H144406   1.522   6.667   2.200 -0.2959  1.8115  0.3688
 6737TIP3    H244407   1.624   6.735   2.111 -0.3105 -0.1008 -1.1754
 6738TIP3   OH244408   1.564   5.736   3.001 -0.2194  0.0542  0.0735
 6738TIP3    H144409   1.645   5.685   3.004 -0.5682 -0.5168 -0.1412
 6738TIP3    H244410   1.494   5.671   3.000 -0.6778  0.5390 -0.0089
 6739TIP3   OH244411   4.923   1.221   2.265  0.1826  0.8331  0.0045
 6739TIP3    H144412   4.837   1.263   2.257 -0.2401 -0.2343 -1.3675
 6739TIP3    H244413   4.953   1.244   2.354 -0.1540  3.7271 -0.5459
 6740TIP3   OH244414   6.313   5.185   1.791 -0.5573  0.3569  0.4026
 6740TIP3    H144415   6.370   5.126   1.742 -1.4810 -0.1737 -0.0597
 6740TIP3    H244416   6.372   5.251   1.827  0.8611 -1.8598  2.5463
 6741TIP3   OH244417   6.712   4.971   2.328  0.4478  0.3035 -0.1690
 6741TIP3    H144418   6.636   5.030   2.328 -0.6716 -1.0388 -1.9282
 6741TIP3    H244419   6.722   4.947   2.420 -0.8070  1.0720  0.2046
 6742TIP3   OH244420   0.753   5.670   2.963 -0.0920  0.0640 -0.2556
 6742TIP3    H144421   0.688   5.607   2.932  0.2022 -0.2956 -0.1399
 6742TIP3    H244422   0.705   5.723   3.027 -0.3265 -0.0647 -0.3222
 6743TIP3   OH244423   3.906   6.752   0.754 -0.1519 -0.2259  0.0984
 6743TIP3    H144424   3.957   6.676   0.783  0.2008  0.9005  2.6263
 6743TIP3    H244425   3.821   6.742   0.797 -0.1945  0.6777  0.2393
 6744TIP3   OH244426   1.932   0.803   1.098  0.3657 -0.3225 -0.1903
 6744TIP3    H144427   1.886   0.754   1.166  2.0538  0.2162  1.4228
 6744TIP3    H244428   1.880   0.882   1.086 -0.0043 -0.4664  0.4096
 6745TIP3   OH244429   6.372   2.952   1.678  0.4140  0.7140  0.2399
 6745TIP3    H144430   6.326   3.036   1.683 -0.8984  0.0229  0.2867
 6745TIP3    H244431   6.388   2.928   1.770 -0.5898  0.2180  0.3082
 6746TIP3   OH244432   2.812   2.340   0.433 -0.1000 -0.0657 -0.2165
 6746TIP3    H144433   2.815   2.425   0.390  0.5539  0.2714  0.4721
 6746TIP3    H244434   2.900   2.303   0.418 -0.5251 -0.8301 -0.9166
 6747TIP3   OH244435   0.966   5.444   1.285 -0.2618 -0.3246 -0.3801
 6747TIP3    H144436   1.029   5.372   1.279  0.3378  0.0432  1.1016
 6747TIP3    H244437   0.964   5.467   1.378 -1.5148  0.6333 -0.6191
 6748TIP3   OH244438   6.063   5.910   2.730 -0.3662 -0.3349  0.0688
 6748TIP3    H144439   6.149   5.892   2.694 -0.6715 -0.3904 -0.6381
 6748TIP3    H244440   6.040   5.997   2.697 -0.1829  0.0910  1.0261
 6749TIP3   OH244441   4.086   6.408   3.470 -0.1485  0.0157  0.2422
 6749TIP3    H144442   4.036   6.460   3.533 -0.3453 -0.9875  0.9455
 6749TIP3    H244443   4.053   6.435   3.384  0.9370  2.2601  0.4662
 6750TIP3   OH244444   5.867   3.802   2.841  0.8094  0.0501  0.2410
 6750TIP3    H144445   5.834   3.875   2.894 -1.1278  0.5240 -1.5040
 6750TIP3    H244446   5.962   3.806   2.853  0.6293  1.7479  1.5941
 6751TIP3   OH244447   2.256   0.978   0.890 -0.2058 -0.3821  0.4248
 6751TIP3    H144448   2.174   0.950   0.930 -0.2897 -1.3488 -0.3846
 6751TIP3    H244449   2.324   0.955   0.954 -0.3826 -1.4647  0.2434
 6752TIP3   OH244450   1.665   6.392   1.516  0.5519  0.7270 -0.1070
 6752TIP3    H144451   1.680   6.414   1.424  0.9218  3.6937  0.5657
 6752TIP3    H244452   1.570   6.384   1.524  0.3767  2.2840 -0.4164
 6753TIP3   OH244453   4.324   4.945   1.864  0.5951  0.1009 -0.0836
 6753TIP3    H144454   4.237   4.930   1.828  0.5609  1.6919 -0.7584
 6753TIP3    H244455   4.370   4.993   1.795  1.3874  0.9206  0.9797
 6754TIP3   OH244456   5.054   3.819   2.901  0.3408 -0.3524 -0.4784
 6754TIP3    H144457   5.010   3.867   2.971  2.0223  0.3870  0.1096
 6754TIP3    H244458   5.000   3.741   2.888 -1.0157  0.4176  0.3474
 6755TIP3   OH244459   4.237   2.818   0.617 -0.1651  0.3737 -0.5221
 6755TIP3    H144460   4.180   2.771   0.555  1.9971 -0.5402 -1.9575
 6755TIP3    H244461   4.216   2.910   0.603 -1.9731  0.0396 -0.2562
 6756TIP3   OH244462   3.616   4.571   1.604 -0.2178 -0.0445 -0.1880
 6756TIP3    H144463   3.600   4.528   1.521 -1.1431  0.6248 -0.3860
 6756TIP3    H244464   3.545   4.540   1.661 -1.6871  2.0577 -0.7028
 6757TIP3   OH244465   2.322   3.693   2.321  0.4368 -0.2056 -0.5701
 6757TIP3    H144466   2.403   3.671   2.274  1.5064 -0.6397  1.3446
 6757TIP3    H244467   2.346   3.766   2.378 -0.5367 -0.2802 -0.0335
 6758TIP3   OH244468   3.220   5.264   2.964  0.4149 -0.1689 -0.1322
 6758TIP3    H144469   3.230   5.205   2.889  0.2547 -0.1122 -0.1992
 6758TIP3    H244470   3.288   5.236   3.025  1.0349  0.2612 -0.6097
 6759TIP3   OH244471   0.220   0.440   2.024  0.4743  0.4388 -0.5348
 6759TIP3    H144472   0.236   0.513   1.964 -0.9113  0.5978 -0.7368
 6759TIP3    H244473   0.152   0.388   1.980  0.6318 -0.3483  0.1376
 6760TIP3   OH244474   6.449   1.179   3.409  1.1269  0.3328 -0.0651
 6760TIP3    H144475   6.517   1.137   3.462  1.4360 -0.4415 -1.0535
 6760TIP3    H244476   6.372   1.182   3.466  1.3985 -0.6533  0.3627
 6761TIP3   OH244477   4.229   5.670   1.903  0.9896 -0.1800  0.0379
 6761TIP3    H144478   4.211   5.746   1.847 -0.5870  0.9979  2.0326
 6761TIP3    H244479   4.300   5.699   1.961 -0.0162  0.0436  1.2000
 6762TIP3   OH244480   2.059   4.949   0.681 -0.4734 -0.2751 -0.3307
 6762TIP3    H144481   2.031   4.998   0.758  0.3290  0.8429 -0.7242
 6762TIP3    H244482   2.153   4.965   0.675 -0.4153 -0.8574 -1.1795
 6763TIP3   OH244483   5.621   4.838   1.470  0.0001 -0.2004  0.0674
 6763TIP3    H144484   5.617   4.745   1.445 -1.4269  0.0192 -0.5653
 6763TIP3    H244485   5.530   4.867   1.469  0.3324  0.9510  1.3020
 6764TIP3   OH244486   4.561   5.959   3.723 -0.1981  0.1045  0.4182
 6764TIP3    H144487   4.542   5.867   3.745  0.1003 -0.3258 -1.0037
 6764TIP3    H244488   4.629   5.985   3.786  1.0355 -1.2464 -0.2862
 6765TIP3   OH244489   2.934   5.199   4.053 -0.0459  0.5884  0.4204
 6765TIP3    H144490   2.905   5.146   3.978  1.4591 -0.3877  0.4772
 6765TIP3    H244491   2.927   5.289   4.022 -0.5400  0.2591 -0.4848
 6766TIP3   OH244492   3.066   0.587   4.168  0.1692  0.1594 -0.2136
 6766TIP3    H144493   3.060   0.566   4.075  0.2622  0.8179 -0.3725
 6766TIP3    H244494   3.089   0.680   4.171 -1.9598  0.7314  0.4758
 6767TIP3   OH244495   3.248   4.774   3.597  0.3971 -0.2700  0.5513
 6767TIP3    H144496   3.153   4.775   3.604  0.4573 -1.2298  1.7890
 6767TIP3    H244497   3.270   4.859   3.557 -1.1396 -1.3183 -2.9111
 6768TIP3   OH244498   1.800   6.210   3.671  0.3440  0.6256  0.1306
 6768TIP3    H144499   1.864   6.276   3.697  0.5077  0.1729  0.8771
 6768TIP3    H244500   1.726   6.261   3.637  1.6451  1.1481 -2.1480
 6769TIP3   OH244501   2.845   4.053   4.546 -0.1436 -0.4771  0.3856
 6769TIP3    H144502   2.888   4.099   4.618 -0.1582  0.2338 -0.0450
 6769TIP3    H244503   2.902   4.069   4.470 -0.8299 -0.0382 -0.0595
 6770TIP3   OH244504   1.013   1.362   2.549 -0.2008  0.4265 -0.8670
 6770TIP3    H144505   0.941   1.352   2.610 -0.9340  1.2466 -1.5806
 6770TIP3    H244506   1.058   1.441   2.577 -1.1372  1.3764 -1.9594
 6771TIP3   OH244507   0.162   1.583   1.332  0.0009 -0.4394  0.2387
 6771TIP3    H144508   0.258   1.588   1.336  0.0647 -0.9865 -0.5150
 6771TIP3    H244509   0.135   1.667   1.293  0.1226 -0.0164  1.0432
 6772TIP3   OH244510   5.265   1.403   1.879 -0.0036 -0.2630 -0.0008
 6772TIP3    H144511   5.289   1.334   1.941 -2.1981 -0.8538  0.2620
 6772TIP3    H244512   5.339   1.464   1.882  0.8249 -1.2721  1.7243
 6773TIP3   OH244513   6.477   5.866   1.419 -0.0793  0.0443  0.3868
 6773TIP3    H144514   6.489   5.813   1.340  1.5045  0.1025  0.5497
 6773TIP3    H244515   6.422   5.939   1.391 -3.0522 -2.0516  0.3624
 6774TIP3   OH244516   1.812   6.628   1.254  0.2816 -0.6478 -0.3673
 6774TIP3    H144517   1.725   6.655   1.282  0.3846 -0.7396  0.0380
 6774TIP3    H244518   1.864   6.709   1.254  0.0438 -0.4869 -1.1927
 6775TIP3   OH244519   0.275   2.143   3.594  0.0994  0.7530 -0.0079
 6775TIP3    H144520   0.326   2.067   3.621 -0.0953  0.6242 -0.0025
 6775TIP3    H244521   0.294   2.209   3.661 -1.3532  0.0300  1.1611
 6776TIP3   OH244522   0.631   6.154   4.236 -0.2109  1.0071  0.4938
 6776TIP3    H144523   0.597   6.243   4.234 -0.6083  0.9280  2.1756
 6776TIP3    H244524   0.635   6.127   4.145 -0.4827  2.5908 -0.0082
 6777TIP3   OH244525   4.451   1.555   4.292 -0.3468 -0.3201 -0.0005
 6777TIP3    H144526   4.507   1.563   4.215  1.0204  0.9480  1.0687
 6777TIP3    H244527   4.464   1.465   4.321  1.4510  0.0293  0.4064
 6778TIP3   OH244528   1.193   6.643   2.677 -0.0920 -0.2317  0.6602
 6778TIP3    H144529   1.214   6.553   2.700  0.5370  0.0641  1.3024
 6778TIP3    H244530   1.107   6.638   2.637  0.7795 -1.3846 -1.2213
 6779TIP3   OH244531   6.300   5.232   2.573  0.1613 -0.0810 -0.1449
 6779TIP3    H144532   6.279   5.313   2.618 -0.7377 -1.5132  2.1857
 6779TIP3    H244533   6.235   5.225   2.503 -1.0347  0.2604  0.8995
 6780TIP3   OH244534   0.158   0.778   1.283 -0.0238 -0.9171 -0.1129
 6780TIP3    H144535   0.241   0.825   1.284 -1.0891  1.1318 -0.9558
 6780TIP3    H244536   0.138   0.764   1.376  0.5883 -0.1441  0.1493
 6781TIP3   OH244537   4.191   3.600   3.839 -0.3460 -0.1844 -0.0928
 6781TIP3    H144538   4.287   3.597   3.832 -0.2846 -0.7957  0.7384
 6781TIP3    H244539   4.169   3.693   3.836  0.2218 -0.0724 -0.8903
 6782TIP3   OH244540   0.763   1.675   1.429  0.4606 -0.4465 -0.8219
 6782TIP3    H144541   0.780   1.604   1.367 -0.1256 -0.6806 -0.7276
 6782TIP3    H244542   0.769   1.633   1.515 -2.6229 -1.0919 -0.7901
 6783TIP3   OH244543   6.794   3.212   2.555 -0.3476  0.1968  0.4506
 6783TIP3    H144544   6.770   3.120   2.563 -1.4309  0.4093 -0.1669
 6783TIP3    H244545   6.816   3.223   2.462 -1.6438  0.8618  0.1958
 6784TIP3   OH244546   4.944   0.255   1.138 -0.6895 -0.0271 -0.4689
 6784TIP3    H144547   4.979   0.249   1.049  1.3660  1.4955  0.1625
 6784TIP3    H244548   4.923   0.347   1.150 -2.3768 -0.4545  0.1542
 6785TIP3   OH244549   2.207   0.337   2.280 -0.0177 -0.3225  0.1532
 6785TIP3    H144550   2.128   0.316   2.230 -0.8121  0.4467  1.0461
 6785TIP3    H244551   2.184   0.316   2.370  1.0300 -0.6691  0.3534
 6786TIP3   OH244552   1.552   2.777   1.284 -0.0644  0.1875  0.2542
 6786TIP3    H144553   1.470   2.815   1.318 -1.5828 -1.7710 -0.9914
 6786TIP3    H244554   1.529   2.747   1.196  2.1928  0.0781 -0.3442
 6787TIP3   OH244555   0.406   5.827   1.237  0.7523 -0.6384  0.3163
 6787TIP3    H144556   0.334   5.884   1.265  0.4655 -0.8843  0.0856
 6787TIP3    H244557   0.374   5.785   1.157 -0.1382 -3.1396  1.8334
 6788TIP3   OH244558   5.350   2.013   2.325 -0.3158 -0.3215 -0.4813
 6788TIP3    H144559   5.339   1.918   2.333  0.2865 -0.5411 -1.9052
 6788TIP3    H244560   5.372   2.042   2.414  0.1383 -1.6151 -0.1427
 6789TIP3   OH244561   0.383   1.226   2.994 -0.5218  0.4163 -0.1885
 6789TIP3    H144562   0.395   1.234   3.088 -1.1429  1.1527 -0.1601
 6789TIP3    H244563   0.467   1.192   2.961 -0.1486  0.5884  0.5721
 6790TIP3   OH244564   1.627   0.596   2.339 -0.3806 -0.4365  0.4181
 6790TIP3    H144565   1.590   0.684   2.339 -0.7887 -0.5906  1.3525
 6790TIP3    H244566   1.607   0.561   2.253  1.8906  1.2180 -0.8901
 6791TIP3   OH244567   4.455   1.292   4.352  0.0395  0.0526 -0.3956
 6791TIP3    H144568   4.516   1.239   4.301 -0.3436 -1.2934  0.4924
 6791TIP3    H244569   4.380   1.235   4.368  0.3004  0.2498  1.9780
 6792TIP3   OH244570   3.351   2.875   4.642 -0.3447  0.0612 -0.2070
 6792TIP3    H144571   3.270   2.846   4.685  0.3108 -0.6460  0.5621
 6792TIP3    H244572   3.357   2.821   4.563 -0.8449  0.4265 -0.5052
 6793TIP3   OH244573   3.561   0.288   3.853 -0.0826 -0.3755 -0.1482
 6793TIP3    H144574   3.599   0.202   3.840  0.3362 -0.3169  0.6575
 6793TIP3    H244575   3.475   0.271   3.891  0.2328 -0.4250  0.5528
 6794TIP3   OH244576   1.937   1.101   1.193  0.5603  0.1674 -0.2739
 6794TIP3    H144577   2.032   1.102   1.193  0.5949 -1.0900 -0.3515
 6794TIP3    H244578   1.913   1.086   1.284  0.5059 -1.1818 -0.4836
 6795TIP3   OH244579   6.674   4.065   2.089 -0.1236 -0.4643 -0.1946
 6795TIP3    H144580   6.684   3.970   2.102 -0.3526 -0.6265 -1.1235
 6795TIP3    H244581   6.758   4.102   2.115  0.2581 -1.0142 -0.6286
 6796TIP3   OH244582   2.703   1.354   0.663 -0.6868 -0.2731  0.8944
 6796TIP3    H144583   2.609   1.367   0.666 -0.4453  1.7800  1.3203
 6796TIP3    H244584   2.724   1.347   0.569 -1.2691 -1.0433  0.8126
 6797TIP3   OH244585   4.267   6.259   0.733  0.2204  0.1928 -0.2190
 6797TIP3    H144586   4.257   6.341   0.782  1.7439  1.9461 -2.6448
 6797TIP3    H244587   4.177   6.232   0.714 -0.3290  0.8018  1.3300
 6798TIP3   OH244588   1.500   4.064   1.340  0.4711 -0.1133 -0.1739
 6798TIP3    H144589   1.470   4.148   1.304 -2.0374 -1.4332 -1.4646
 6798TIP3    H244590   1.545   4.022   1.267 -0.1309 -0.7194 -0.2042
 6799TIP3   OH244591   1.370   0.734   2.886 -0.0829 -0.5301 -0.1274
 6799TIP3    H144592   1.389   0.788   2.809  0.7105  1.4284  1.3500
 6799TIP3    H244593   1.298   0.780   2.930 -0.5930 -1.6752  0.2706
 6800TIP3   OH244594   3.677   1.699   1.101  0.2012 -0.0392  0.1618
 6800TIP3    H144595   3.624   1.747   1.038  1.1352  0.0413 -0.5819
 6800TIP3    H244596   3.649   1.608   1.093  1.4539 -0.3257 -1.6179
 6801TIP3   OH244597   2.953   3.403   2.202 -0.2184  0.1008  0.8412
 6801TIP3    H144598   2.914   3.316   2.189 -0.0755 -0.2218  2.3484
 6801TIP3    H244599   2.881   3.456   2.238 -0.0567  0.3552  0.7905
 6802TIP3   OH244600   5.626   0.361   3.060  0.4425  0.1399 -0.1873
 6802TIP3    H144601   5.703   0.325   3.017  0.4653  0.5265 -0.4656
 6802TIP3    H244602   5.657   0.387   3.147  0.3436 -0.8468  0.1546
 6803TIP3   OH244603   2.485   1.417   1.620 -0.3500  0.0234 -0.4173
 6803TIP3    H144604   2.506   1.511   1.623 -2.7237  0.6169  0.1179
 6803TIP3    H244605   2.431   1.403   1.698 -3.0517 -0.9212 -2.3205
 6804TIP3   OH244606   6.360   6.408   0.440 -0.4496  0.1162 -0.7909
 6804TIP3    H144607   6.443   6.455   0.449 -0.6156  0.3034 -0.1839
 6804TIP3    H244608   6.384   6.315   0.449 -0.1950  0.1176 -1.4546
 6805TIP3   OH244609   4.594   1.485   4.089  0.3349  0.7101 -0.0819
 6805TIP3    H144610   4.656   1.420   4.057  0.9496  0.6061  1.2622
 6805TIP3    H244611   4.529   1.492   4.019  1.8130  0.7861 -1.5270
 6806TIP3   OH244612   4.882   5.479   2.539  0.4908  0.2972  0.1876
 6806TIP3    H144613   4.792   5.451   2.522  0.4655  0.9705 -0.8949
 6806TIP3    H244614   4.875   5.572   2.560  0.9986  0.5701 -0.7709
 6807TIP3   OH244615   4.688   4.556   2.541  0.4859 -0.0355 -0.2001
 6807TIP3    H144616   4.722   4.576   2.454  0.1279 -0.9165 -0.5634
 6807TIP3    H244617   4.593   4.552   2.529  0.5344 -2.0444 -0.2177
 6808TIP3   OH244618   1.133   3.738   3.251 -0.3438 -0.4113  0.5057
 6808TIP3    H144619   1.081   3.818   3.240  0.5246 -0.0474 -1.3114
 6808TIP3    H244620   1.200   3.762   3.315  1.3439  1.1515 -1.6844
 6809TIP3   OH244621   6.241   5.158   1.417  0.6827 -0.6487  1.0474
 6809TIP3    H144622   6.188   5.079   1.430 -1.3095  0.7417  1.8016
 6809TIP3    H244623   6.190   5.213   1.358  1.9539  0.1786  0.6710
 6810TIP3   OH244624   0.781   2.320   2.290 -0.3268 -0.2558 -0.0108
 6810TIP3    H144625   0.822   2.356   2.211  1.4374  0.6930  1.2536
 6810TIP3    H244626   0.733   2.394   2.328  0.7092 -0.0409  0.9475
 6811TIP3   OH244627   2.161   4.102   3.379 -0.0362 -0.2500  0.6396
 6811TIP3    H144628   2.203   4.151   3.449 -1.1661  0.8326  0.5918
 6811TIP3    H244629   2.106   4.038   3.424  2.2139 -2.2709  0.7099
 6812TIP3   OH244630   0.313   1.989   0.899  0.1048 -0.1149  0.0142
 6812TIP3    H144631   0.350   2.054   0.839  2.2972 -0.0073  1.3706
 6812TIP3    H244632   0.388   1.938   0.929 -1.2933 -1.9401  0.5980
 6813TIP3   OH244633   6.626   6.255   2.638 -0.1638  0.0818 -0.3774
 6813TIP3    H144634   6.679   6.275   2.561  0.8280  1.1446  0.5574
 6813TIP3    H244635   6.542   6.227   2.602  1.3675 -2.9699 -1.9414
 6814TIP3   OH244636   1.504   0.626   1.835 -0.0712  0.1527  1.1264
 6814TIP3    H144637   1.575   0.621   1.900  0.5768  0.6439  0.4712
 6814TIP3    H244638   1.479   0.535   1.821 -0.4595  0.0569  2.3161
 6815TIP3   OH244639   3.390   2.946   4.903  0.2021  0.1801 -0.4337
 6815TIP3    H144640   3.305   2.982   4.927 -0.3164 -2.0820  1.5111
 6815TIP3    H244641   3.373   2.898   4.821 -0.2050  0.3889 -0.4769
 6816TIP3   OH244642   3.604   5.877   3.143  0.2335 -0.1794 -0.4502
 6816TIP3    H144643   3.597   5.784   3.119  0.4404  0.5441 -3.6780
 6816TIP3    H244644   3.659   5.915   3.075 -0.7519  2.5407  0.1672
 6817TIP3   OH244645   2.612   2.603   3.953  0.3822  0.1037  0.1131
 6817TIP3    H144646   2.633   2.697   3.960  4.0434 -0.4421 -1.4605
 6817TIP3    H244647   2.619   2.571   4.043 -0.9575  1.2972  0.6788
 6818TIP3   OH244648   2.413   6.332   0.851 -0.2927  1.0356  0.3619
 6818TIP3    H144649   2.433   6.423   0.871  1.6270  0.6280  0.5113
 6818TIP3    H244650   2.499   6.291   0.838 -1.1660 -0.1987 -2.2246
 6819TIP3   OH244651   0.633   5.985   0.382 -0.2519 -0.2118 -0.1586
 6819TIP3    H144652   0.596   5.979   0.293  1.0181  0.4506 -0.7630
 6819TIP3    H244653   0.599   6.067   0.416  0.5540  0.3503 -0.6771
 6820TIP3   OH244654   0.320   0.660   2.229 -0.1884 -0.0748 -0.1184
 6820TIP3    H144655   0.373   0.664   2.150  0.3880  2.2635  0.3018
 6820TIP3    H244656   0.383   0.655   2.301 -0.6022  0.4448  0.2948
 6821TIP3   OH244657   0.371   3.689   3.165  0.1063  0.1750 -0.3693
 6821TIP3    H144658   0.385   3.711   3.257  0.5777  0.5271 -0.5264
 6821TIP3    H244659   0.443   3.631   3.142  1.1620  1.6979 -1.0712
 6822TIP3   OH244660   5.457   0.515   2.895 -0.0995  0.2028 -0.2889
 6822TIP3    H144661   5.511   0.450   2.940 -0.8779 -1.0180 -1.0558
 6822TIP3    H244662   5.503   0.598   2.909  1.8769 -0.7547 -0.7253
 6823TIP3   OH244663   1.671   2.076   2.244 -0.7741  0.3020  0.2353
 6823TIP3    H144664   1.638   2.165   2.256 -4.5417 -0.7838 -0.5257
 6823TIP3    H244665   1.594   2.026   2.217  1.6712 -2.7072 -1.8711
 6824TIP3   OH244666   4.210   2.658   9.593 -0.0454 -0.2139 -0.0923
 6824TIP3    H144667   4.121   2.693   9.588 -0.7973 -2.0224 -0.2131
 6824TIP3    H244668   4.255   2.697   9.519  0.4679  3.6795  2.0080
 6825TIP3   OH244669   3.700   6.384   2.025 -0.3252  0.4788 -0.6250
 6825TIP3    H144670   3.789   6.412   2.046  0.2569 -0.1007 -2.1922
 6825TIP3    H244671   3.647   6.415   2.099  1.3367 -0.1842  0.9133
 6826TIP3   OH244672   2.233   5.505   3.263 -0.2254 -0.0723 -0.3368
 6826TIP3    H144673   2.200   5.459   3.339  0.4014  0.7102  0.4276
 6826TIP3    H244674   2.297   5.446   3.224  0.0743 -0.1275  0.2364
 6827TIP3   OH244675   0.179   5.998   0.865 -0.6820  0.2520 -0.2813
 6827TIP3    H144676   0.132   6.052   0.928  0.4227 -0.7833  1.5282
 6827TIP3    H244677   0.135   6.013   0.782 -1.0928  3.0572  0.3589
 6828TIP3   OH244678   0.740   6.609   3.071  0.0931 -0.8774 -0.4202
 6828TIP3    H144679   0.788   6.646   3.145  0.1788  1.1145 -1.3806
 6828TIP3    H244680   0.790   6.637   2.994 -1.5093 -0.4328 -1.3549
 6829TIP3   OH244681   2.115   2.359   2.731  0.1845 -0.5121 -0.1472
 6829TIP3    H144682   2.106   2.310   2.813  0.7337  0.9036  0.7865
 6829TIP3    H244683   2.051   2.318   2.672 -1.9184 -0.0664  1.7021
 6830TIP3   OH244684   4.149   2.710   1.080  0.1017 -0.2663  0.6689
 6830TIP3    H144685   4.066   2.758   1.071 -0.0608 -0.3401  1.6929
 6830TIP3    H244686   4.213   2.765   1.034 -0.7879 -1.0622 -1.7163
 6831TIP3   OH244687   1.167   3.418   1.593 -0.4388  0.2874 -0.1834
 6831TIP3    H144688   1.246   3.379   1.629  0.7058 -0.6006 -3.3200
 6831TIP3    H244689   1.198   3.496   1.546 -1.5468  0.4270 -0.7208
 6832TIP3   OH244690   2.989   5.321   1.812  0.0332  0.2061 -0.4246
 6832TIP3    H144691   2.912   5.264   1.813 -0.1754  0.4940  0.0834
 6832TIP3    H244692   2.955   5.408   1.832  0.7002  0.0379  1.7104
 6833TIP3   OH244693   3.799   0.110   4.826  0.2158 -0.3801  0.2104
 6833TIP3    H144694   3.863   0.176   4.797  1.1224 -1.3702 -0.1187
 6833TIP3    H244695   3.772   0.066   4.746 -0.5887 -0.2421  0.4009
 6834TIP3   OH244696   4.275   1.345   1.712 -0.8780 -0.1350 -0.4057
 6834TIP3    H144697   4.226   1.402   1.771 -0.5251 -0.0602 -0.1864
 6834TIP3    H244698   4.227   1.262   1.714 -2.1151  0.5053 -1.6825
 6835TIP3   OH244699   2.734   3.448   2.365 -0.1019  0.0224 -0.0575
 6835TIP3    H144700   2.704   3.537   2.350  1.3579  0.4147 -0.8996
 6835TIP3    H244701   2.655   3.394   2.362 -0.7141  0.9060 -2.8774
 6836TIP3   OH244702   1.258   4.405   0.982  0.3885 -0.0806 -0.0610
 6836TIP3    H144703   1.314   4.479   0.955  0.2347 -0.5119 -1.6972
 6836TIP3    H244704   1.215   4.378   0.901  1.3329 -2.7404  0.2277
 6837TIP3   OH244705   4.316   0.986   2.361  0.0590 -0.1348  0.1053
 6837TIP3    H144706   4.352   1.074   2.374  0.9588 -0.4522 -0.2130
 6837TIP3    H244707   4.260   0.995   2.284  0.5365  0.0461 -0.2227
 6838TIP3   OH244708   2.112   2.045   2.634  0.2960  0.2778 -0.5266
 6838TIP3    H144709   2.049   2.110   2.603  0.5664 -0.2951 -2.4264
 6838TIP3    H244710   2.196   2.075   2.599  0.7869  0.0399  0.4141
 6839TIP3   OH244711   4.306   0.540   0.640  0.3049  0.3027  0.1605
 6839TIP3    H144712   4.283   0.604   0.573  0.3539 -1.2170 -1.4006
 6839TIP3    H244713   4.224   0.522   0.686  0.1881  1.0917  0.2708
 6840TIP3   OH244714   2.936   6.192   1.141  0.6271 -0.0414 -0.1885
 6840TIP3    H144715   2.872   6.262   1.130 -0.1592 -0.2365  2.3374
 6840TIP3    H244716   3.020   6.236   1.152 -0.0041  0.6892  2.4409
 6841TIP3   OH244717   4.572   1.091   4.199  0.1333  0.4023  1.2390
 6841TIP3    H144718   4.577   1.084   4.103 -0.6744  2.1685  1.0294
 6841TIP3    H244719   4.483   1.064   4.220  0.3166 -0.0022  1.5025
 6842TIP3   OH244720   0.115   0.315   3.319  0.5493 -0.0648 -0.1171
 6842TIP3    H144721   0.093   0.349   3.406 -0.2004  1.6851 -0.9227
 6842TIP3    H244722   0.142   0.225   3.334 -1.1680 -0.3398  1.7472
 6843TIP3   OH244723   5.868   4.562   2.965  0.0656  0.0087 -0.8187
 6843TIP3    H144724   5.813   4.488   2.941 -0.6483  0.3392 -0.2194
 6843TIP3    H244725   5.872   4.616   2.886 -0.4502 -0.0274 -0.8678
 6844TIP3   OH244726   0.743   4.582   2.669  0.0205 -0.1383  0.6052
 6844TIP3    H144727   0.673   4.619   2.725  0.8333  1.1683  0.8094
 6844TIP3    H244728   0.702   4.573   2.583 -0.6002 -0.0265  0.8775
 6845TIP3   OH244729   5.234   0.764   2.347  0.0697 -0.1600 -0.0610
 6845TIP3    H144730   5.159   0.821   2.361  0.3388  0.2993 -0.4706
 6845TIP3    H244731   5.233   0.745   2.253  0.2491 -0.4535 -0.0051
 6846TIP3   OH244732   1.872   2.286   1.484  0.1885 -0.4415  0.3712
 6846TIP3    H144733   1.961   2.291   1.521  0.8361  0.3681 -1.2091
 6846TIP3    H244734   1.874   2.345   1.409 -1.8832  0.0513  0.6381
 6847TIP3   OH244735   6.486   4.597   2.415  0.2470 -0.0514 -0.1634
 6847TIP3    H144736   6.485   4.598   2.511 -2.2416  1.0004 -0.1288
 6847TIP3    H244737   6.481   4.504   2.392 -1.2918 -0.2559  0.8106
 6848TIP3   OH244738   4.574   0.473   1.391  0.3341 -0.1668  0.1237
 6848TIP3    H144739   4.489   0.451   1.352  0.5610  0.0979 -0.5435
 6848TIP3    H244740   4.611   0.537   1.331  0.9264 -0.1432  0.5145
 6849TIP3   OH244741   2.792   5.300   3.728 -0.5631 -0.3938 -0.7647
 6849TIP3    H144742   2.859   5.232   3.738 -1.6797 -1.4045  0.1278
 6849TIP3    H244743   2.724   5.277   3.792 -0.6979  1.9446  0.0282
 6850TIP3   OH244744   5.526   1.862   1.850 -0.0961  0.4124 -0.1288
 6850TIP3    H144745   5.509   1.864   1.944 -0.1743  3.3955 -0.1188
 6850TIP3    H244746   5.609   1.908   1.839  0.7404 -1.2873 -1.4473
 6851TIP3   OH244747   3.669   6.439   3.831 -0.0063 -0.8907  0.7448
 6851TIP3    H144748   3.755   6.442   3.871  0.2825 -0.9852  0.1410
 6851TIP3    H244749   3.613   6.395   3.895  0.7173 -2.1263  0.5538
 6852TIP3   OH244750   5.011   3.845   3.209  0.3706  0.0783  0.3231
 6852TIP3    H144751   4.968   3.930   3.203  0.2702 -0.0344 -0.8749
 6852TIP3    H244752   5.061   3.849   3.290 -1.6266  0.3234  1.6260
 6853TIP3   OH244753   5.727   6.500   3.020  0.3678 -0.3223  0.4045
 6853TIP3    H144754   5.821   6.517   3.019 -0.1520  3.1996  0.4265
 6853TIP3    H244755   5.714   6.436   2.949  2.7745 -1.3013  0.7568
 6854TIP3   OH244756   4.751   4.669   4.111  0.2881 -0.1129  0.5585
 6854TIP3    H144757   4.842   4.686   4.132  0.0664  0.7266  0.9000
 6854TIP3    H244758   4.705   4.750   4.135 -0.7368 -0.9449  1.5225
 6855TIP3   OH244759   4.726   0.343   1.569  0.1602 -0.2127  0.3573
 6855TIP3    H144760   4.659   0.281   1.599  0.0529 -0.4178 -0.2894
 6855TIP3    H244761   4.687   0.386   1.493 -0.1729  1.4201  1.4091
 6856TIP3   OH244762   0.058   6.789   2.366 -0.2441  0.5756 -0.0333
 6856TIP3    H144763   0.069   6.762   2.275  0.2321  0.2932  0.1047
 6856TIP3    H244764   0.104   6.873   2.371  0.4371  0.2011  0.1374
 6857TIP3   OH244765   1.396   1.344   1.416  0.6656 -0.0936 -0.0369
 6857TIP3    H144766   1.361   1.394   1.490 -0.8332  0.1255 -0.8481
 6857TIP3    H244767   1.467   1.293   1.453 -0.8034 -0.9146  1.8455
 6858TIP3   OH244768   5.261   4.234   4.005 -0.1050 -0.1319  0.3311
 6858TIP3    H144769   5.309   4.218   4.087  0.6889  0.0487 -0.0927
 6858TIP3    H244770   5.241   4.146   3.973  2.4460 -0.3539 -0.9297
 6859TIP3   OH244771   6.180   5.410   1.630 -0.6814  0.4606  0.4543
 6859TIP3    H144772   6.212   5.320   1.634  1.3996  1.1542  0.5739
 6859TIP3    H244773   6.115   5.409   1.559 -1.2420 -1.2616  0.9400
 6860TIP3   OH244774   6.152   6.304   2.903  0.4803 -0.0354 -0.6494
 6860TIP3    H144775   6.190   6.216   2.909  0.8221  0.1394 -0.1532
 6860TIP3    H244776   6.228   6.363   2.905  0.5319  0.2157 -4.0781
 6861TIP3   OH244777   0.652   4.069   2.854 -1.0485  0.1546  0.5272
 6861TIP3    H144778   0.619   4.150   2.815 -2.8964 -0.6824  0.2314
 6861TIP3    H244779   0.579   4.036   2.906 -0.5846 -1.6549  0.0996
 6862TIP3   OH244780   2.025   4.675   2.984 -0.2443 -0.6053 -0.5407
 6862TIP3    H144781   1.953   4.724   2.945 -0.5482 -0.8397 -0.2834
 6862TIP3    H244782   1.984   4.595   3.018  0.2906 -1.1756 -1.2116
 6863TIP3   OH244783   4.440   4.668   0.989  0.4838  0.1906 -0.1518
 6863TIP3    H144784   4.367   4.637   0.937  2.4480  0.9843 -3.7078
 6863TIP3    H244785   4.491   4.590   1.010 -0.2661 -0.1221  0.5420
 6864TIP3   OH244786   2.099   4.210   3.644 -0.2402 -0.1050 -0.1077
 6864TIP3    H144787   2.124   4.167   3.726  0.1058 -0.5526 -0.4382
 6864TIP3    H244788   2.008   4.185   3.630 -0.6259  0.8284  0.6693
 6865TIP3   OH244789   3.759   3.889   4.171 -0.0945  0.5573 -0.0253
 6865TIP3    H144790   3.832   3.875   4.111 -1.0653  0.2895 -1.1971
 6865TIP3    H244791   3.800   3.912   4.254  1.3362 -0.5227 -0.3893
 6866TIP3   OH244792   4.948   4.587   3.285 -0.3930  0.0195  0.1044
 6866TIP3    H144793   5.035   4.550   3.301 -0.2230  0.2081 -0.3755
 6866TIP3    H244794   4.934   4.646   3.360 -0.7005 -1.0468  0.9100
 6867TIP3   OH244795   1.915   1.103   2.123  0.6487  0.1377 -0.1332
 6867TIP3    H144796   1.860   1.036   2.164  1.4782  0.0269  0.8509
 6867TIP3    H244797   1.910   1.084   2.029  1.3364 -1.6903  0.1499
 6868TIP3   OH244798   1.672   1.114   2.615 -0.7349 -0.0035 -0.0993
 6868TIP3    H144799   1.761   1.133   2.645 -0.8407 -0.4328  0.5095
 6868TIP3    H244800   1.671   1.019   2.605 -0.6654  0.1375 -1.6024
 6869TIP3   OH244801   1.507   3.052   2.073 -0.4699  0.5252  0.5511
 6869TIP3    H144802   1.557   3.123   2.112  0.8163  0.0313 -0.1528
 6869TIP3    H244803   1.572   2.985   2.053 -1.6824 -0.9691  1.4216
 6870TIP3   OH244804   2.745   6.755   1.709 -0.1286  0.6398  0.3116
 6870TIP3    H144805   2.757   6.813   1.784 -0.8503  0.1483  0.8161
 6870TIP3    H244806   2.823   6.699   1.710 -1.5854 -1.5547  2.6907
 6871TIP3   OH244807   2.441   3.888   2.479  0.4577  0.2333 -0.7243
 6871TIP3    H144808   2.409   3.945   2.549  0.4301 -1.4282  0.6722
 6871TIP3    H244809   2.520   3.847   2.515 -0.9570 -2.6212 -0.5869
 6872TIP3   OH244810   5.163   2.844   2.117 -0.1706 -0.0565 -0.2536
 6872TIP3    H144811   5.228   2.847   2.187  0.3833  0.9315 -0.7838
 6872TIP3    H244812   5.095   2.905   2.144  0.0452  0.3287 -0.5613
 6873TIP3   OH244813   1.115   2.050   1.920 -0.2005  0.2123 -0.1108
 6873TIP3    H144814   1.021   2.043   1.936 -0.0414  1.5500  1.8010
 6873TIP3    H244815   1.122   2.100   1.839 -1.1253 -0.1545 -0.4295
 6874TIP3   OH244816   0.028   0.187   1.431  0.1102  0.3624  0.7158
 6874TIP3    H144817  -0.057   0.208   1.470 -1.3058  0.3171 -2.0989
 6874TIP3    H244818   0.017   0.100   1.394  0.9100  0.8791 -0.8276
 6875TIP3   OH244819   2.996   1.851   1.608 -0.3093  0.2929 -0.0532
 6875TIP3    H144820   2.951   1.795   1.671  0.0727  0.3221  0.2488
 6875TIP3    H244821   2.947   1.933   1.610 -2.0414 -0.6144 -1.8873
 6876TIP3   OH244822   6.001   2.965   2.770  0.4349 -0.2540 -0.8391
 6876TIP3    H144823   6.046   3.050   2.772  0.2252 -0.0322  3.1564
 6876TIP3    H244824   6.070   2.902   2.747  1.2725  0.7370 -1.1044
 6877TIP3   OH244825   2.558   2.982   2.292  0.3541 -0.6181 -0.1591
 6877TIP3    H144826   2.595   3.069   2.305  0.1837 -0.5268 -0.2781
 6877TIP3    H244827   2.514   2.987   2.207 -2.5766  0.2289  1.2824
 6878TIP3   OH244828   3.817   0.089   3.288 -0.0575 -0.4270 -0.1448
 6878TIP3    H144829   3.787   0.011   3.242  0.7169  0.0895 -1.5951
 6878TIP3    H244830   3.740   0.146   3.291 -0.1808 -0.5684 -0.5955
 6879TIP3   OH244831   6.296   4.735   0.668 -0.0804 -0.1642 -0.9499
 6879TIP3    H144832   6.313   4.820   0.627  1.4203 -0.8587 -1.8593
 6879TIP3    H244833   6.367   4.723   0.730 -1.0412 -0.1805  0.1823
 6880TIP3   OH244834   5.304   1.817   1.466 -0.4816  0.1281 -0.2211
 6880TIP3    H144835   5.321   1.731   1.429 -1.8117 -0.2627  0.0069
 6880TIP3    H244836   5.228   1.850   1.417 -0.7438  0.6374  0.5096
 6881TIP3   OH244837   0.033   4.526   1.316  0.2786  0.1260  0.4411
 6881TIP3    H144838  -0.029   4.571   1.258 -0.3140  0.9157  1.6330
 6881TIP3    H244839  -0.006   4.440   1.330 -0.3713  0.4848  0.8883
 6882TIP3   OH244840   4.387   1.736   1.257 -0.2817 -0.3317 -0.2794
 6882TIP3    H144841   4.445   1.808   1.280 -0.2436 -0.4446 -0.0112
 6882TIP3    H244842   4.305   1.755   1.303 -1.3347  1.1075 -2.5766
 6883TIP3   OH244843   3.051   1.112   1.229 -0.4292 -0.4252  0.0546
 6883TIP3    H144844   3.098   1.102   1.312 -0.3144 -0.4757 -0.0159
 6883TIP3    H244845   3.075   1.035   1.178 -0.1940 -0.2053 -0.1736
 6884TIP3   OH244846   1.263   5.543   1.671 -0.0765 -0.4693  0.0064
 6884TIP3    H144847   1.337   5.599   1.647 -0.7670  0.3167 -0.3395
 6884TIP3    H244848   1.285   5.512   1.759  0.1830  0.6321  0.3573
 6885TIP3   OH244849   2.825   4.482   2.150  0.0178 -0.1585 -0.1498
 6885TIP3    H144850   2.743   4.434   2.137 -0.9763  1.8643 -2.0345
 6885TIP3    H244851   2.801   4.574   2.138  2.1385  0.7244  1.6745
 6886TIP3   OH244852   0.265   1.192   1.327 -0.2699  0.0432 -0.3733
 6886TIP3    H144853   0.294   1.168   1.239 -3.7439 -0.6481 -1.5147
 6886TIP3    H244854   0.170   1.207   1.318 -0.4414  2.0487  2.8597
 6887TIP3   OH244855   4.555   5.466   3.492  0.7294 -0.8422  0.2661
 6887TIP3    H144856   4.608   5.432   3.420  1.3323 -2.7646  1.5433
 6887TIP3    H244857   4.521   5.388   3.535  0.1107  0.2705  1.8801
 6888TIP3   OH244858   3.793   5.674   1.527  0.6489  0.0138 -0.2769
 6888TIP3    H144859   3.738   5.685   1.605  2.0799  0.0392  0.7728
 6888TIP3    H244860   3.882   5.662   1.562  1.1040 -1.6064 -1.8529
 6889TIP3   OH244861   3.776   5.687   1.251  0.2045  0.1821  0.2180
 6889TIP3    H144862   3.796   5.656   1.339  0.0259 -3.3497 -0.8501
 6889TIP3    H244863   3.690   5.651   1.232 -0.0159  1.3837 -1.2129
 6890TIP3   OH244864   2.978   0.827   2.473  0.3686 -0.2266  0.3967
 6890TIP3    H144865   3.057   0.880   2.481 -0.9190  2.2859 -2.0249
 6890TIP3    H244866   2.906   0.889   2.480 -1.3872 -2.2340  1.0788
 6891TIP3   OH244867   6.488   2.193   1.703 -0.2862 -0.9736 -0.0357
 6891TIP3    H144868   6.569   2.189   1.653 -0.5399  0.5310 -0.6371
 6891TIP3    H244869   6.450   2.106   1.695  1.0329 -1.5643 -0.1229
 6892TIP3   OH244870   4.709   5.123   2.655  0.7562 -0.4030  0.4951
 6892TIP3    H144871   4.735   5.199   2.602  0.8636  0.0522  1.1709
 6892TIP3    H244872   4.752   5.049   2.613 -0.5569 -0.3348 -1.0668
 6893TIP3   OH244873   0.938   6.632   2.054  0.3903  0.5719  0.1202
 6893TIP3    H144874   0.912   6.698   1.989  2.3843  2.0258  0.6832
 6893TIP3    H244875   1.008   6.583   2.011  1.4684  1.3000  0.9959
 6894TIP3   OH244876   5.801   0.947   3.024  0.2198 -0.5895  0.4529
 6894TIP3    H144877   5.841   0.860   3.035 -0.8106 -1.0905  0.3159
 6894TIP3    H244878   5.869   1.008   3.053  0.9897 -1.4350  0.4778
 6895TIP3   OH244879   2.060   4.319   1.524 -0.0570  0.0021 -0.4508
 6895TIP3    H144880   2.027   4.364   1.447 -0.3769  1.9177  0.7505
 6895TIP3    H244881   2.154   4.310   1.509  0.5261  3.4446  0.3068
 6896TIP3   OH244882   6.650   5.248   1.963 -0.1802 -0.0538  0.1480
 6896TIP3    H144883   6.690   5.267   1.878 -1.8791 -0.2246 -0.7262
 6896TIP3    H244884   6.565   5.291   1.960 -1.1624 -1.8244  0.9109
 6897TIP3   OH244885   0.535   2.085   2.596 -0.2363  0.0473  0.0255
 6897TIP3    H144886   0.501   2.174   2.604  1.0905  0.4358  2.0227
 6897TIP3    H244887   0.630   2.094   2.600  0.0715 -1.2824 -2.3274
 6898TIP3   OH244888   4.867   4.140   1.409  0.1901  0.8809  0.0799
 6898TIP3    H144889   4.959   4.162   1.393  0.3555  0.0205 -0.2472
 6898TIP3    H244890   4.842   4.087   1.333 -0.1158 -0.2055  0.9128
 6899TIP3   OH244891   3.247   3.113   0.853 -0.1586  0.7685 -0.0889
 6899TIP3    H144892   3.327   3.061   0.856 -0.3952  0.4431  1.2635
 6899TIP3    H244893   3.237   3.148   0.942 -2.1578 -0.2299  0.1360
 6900TIP3   OH244894   4.035   4.864   2.207 -0.4528 -0.0806 -0.1645
 6900TIP3    H144895   3.991   4.889   2.125 -0.5000  0.3002 -0.0242
 6900TIP3    H244896   3.969   4.815   2.256 -0.7811  0.6279  0.1159
 6901TIP3   OH244897   5.603   4.576   1.207 -0.2133 -0.3800  0.7579
 6901TIP3    H144898   5.636   4.514   1.272 -0.2626  0.0152  1.1663
 6901TIP3    H244899   5.508   4.575   1.219 -0.5059 -2.2277 -1.0534
 6902TIP3   OH244900   3.358   5.521   3.559 -0.2586 -0.0568  0.6426
 6902TIP3    H144901   3.432   5.577   3.584  1.6023 -0.5254 -3.0993
 6902TIP3    H244902   3.399   5.446   3.516 -2.8993 -1.2502  0.0467
 6903TIP3   OH244903   3.274   3.741   3.598  0.2188 -0.4203  0.4158
 6903TIP3    H144904   3.271   3.800   3.522  0.1305 -2.0048 -0.8773
 6903TIP3    H244905   3.344   3.776   3.653  0.9273  0.2631 -0.8589
 6904TIP3   OH244906   1.856   0.304   2.858  0.5701  0.6659  0.2361
 6904TIP3    H144907   1.890   0.216   2.873  1.0161  0.6882 -0.6031
 6904TIP3    H244908   1.934   0.359   2.853  0.2797  1.1982  1.2298
 6905TIP3   OH244909   3.745   6.028   2.941 -0.3516 -0.1212  0.1963
 6905TIP3    H144910   3.666   6.083   2.941  0.4763  1.1048  0.0446
 6905TIP3    H244911   3.783   6.041   2.855  1.6099  1.7093  1.2467
 6906TIP3   OH244912   0.659   1.356   3.242 -0.1727  0.9342  0.2195
 6906TIP3    H144913   0.569   1.322   3.245 -0.1063  0.6798 -0.3993
 6906TIP3    H244914   0.710   1.283   3.208  0.3099  1.0092  0.7688
 6907TIP3   OH244915   3.793   0.240   1.230  0.4521  0.1856 -0.4583
 6907TIP3    H144916   3.807   0.278   1.143  0.9497  1.7167  0.2502
 6907TIP3    H244917   3.724   0.175   1.217 -1.5977  2.4133 -1.5080
 6908TIP3   OH244918   1.104   6.474   0.977  0.3616 -0.2343 -0.2903
 6908TIP3    H144919   1.125   6.525   1.055  0.1656 -1.7482  0.7872
 6908TIP3    H244920   1.023   6.428   0.999  0.3305 -0.7419 -1.3758
 6909TIP3   OH244921   0.339   1.328   1.567 -0.5126  0.1204 -0.4105
 6909TIP3    H144922   0.382   1.258   1.617 -3.2424 -0.5501  1.1677
 6909TIP3    H244923   0.353   1.304   1.476  2.4105 -0.0161 -0.0322
 6910TIP3   OH244924   4.831   3.365   0.802 -0.0087  0.0308 -0.0751
 6910TIP3    H144925   4.819   3.272   0.784  0.8488 -0.2199  0.5556
 6910TIP3    H244926   4.787   3.409   0.730 -0.4921 -0.8613 -0.3433
 6911TIP3   OH244927   2.409   3.189   1.074 -0.1354  0.5685  0.4660
 6911TIP3    H144928   2.386   3.225   1.159 -2.5963 -0.2756  0.2405
 6911TIP3    H244929   2.399   3.094   1.084  0.4888  0.3784 -0.5069
 6912TIP3   OH244930   3.759   3.805   3.202  0.1887  0.3163  0.2395
 6912TIP3    H144931   3.801   3.765   3.126  1.2954  0.5115  0.7398
 6912TIP3    H244932   3.793   3.757   3.277 -0.2400  0.6896  0.6863
 6913TIP3   OH244933   3.575   0.064   1.785  0.2425 -0.1849 -0.1541
 6913TIP3    H144934   3.630   0.056   1.863 -2.3710  1.6362  2.0879
 6913TIP3    H244935   3.550  -0.025   1.762  0.9436 -0.7455  1.2004
 6914TIP3   OH244936   6.464   0.572   2.557  0.3876 -0.7638 -0.0416
 6914TIP3    H144937   6.427   0.636   2.496  0.7261 -1.0438 -0.5558
 6914TIP3    H244938   6.548   0.549   2.518  0.6270 -0.9195  0.5628
 6915TIP3   OH244939   4.791   5.577   0.690  0.1523 -0.4093  0.5273
 6915TIP3    H144940   4.791   5.651   0.629 -0.5539 -0.1944  0.7814
 6915TIP3    H244941   4.807   5.501   0.634  0.8310 -0.0841  0.2557
 6916TIP3   OH244942   2.159   0.848   2.417 -0.2404 -0.0633 -0.1202
 6916TIP3    H144943   2.183   0.830   2.508  0.7591  0.6133 -0.2340
 6916TIP3    H244944   2.235   0.895   2.381 -0.5836 -0.4021 -1.3278
 6917TIP3   OH244945   1.928   0.072   1.192 -0.0797 -0.0847  0.7377
 6917TIP3    H144946   1.854   0.084   1.131  1.7300 -1.7273 -1.9957
 6917TIP3    H244947   1.986   0.145   1.173  0.1408 -0.1736  1.0746
 6918TIP3   OH244948   4.037   0.476   2.707  0.2130 -0.0638 -0.1394
 6918TIP3    H144949   4.123   0.455   2.744 -0.1017  0.2222  0.7893
 6918TIP3    H244950   4.055   0.541   2.639  0.8456 -0.8749 -0.7787
 6919TIP3   OH244951   2.074   6.457   4.323 -0.0152 -0.2037 -0.0771
 6919TIP3    H144952   2.050   6.488   4.410 -0.6999  1.0975 -0.6990
 6919TIP3    H244953   2.077   6.361   4.331  0.0976 -0.0936  1.3972
 6920TIP3   OH244954   5.987   3.290   1.487 -0.0926  0.8931  0.2042
 6920TIP3    H144955   6.032   3.295   1.403 -0.8439  2.3701 -0.1579
 6920TIP3    H244956   5.984   3.197   1.508 -0.7951  0.3712 -1.9243
 6921TIP3   OH244957   6.734   4.164   0.737  0.5936 -0.6621  0.1641
 6921TIP3    H144958   6.648   4.203   0.724  0.3684 -0.6431  1.5474
 6921TIP3    H244959   6.769   4.151   0.649 -0.1017  0.9235 -0.3750
 6922TIP3   OH244960   3.030   4.706   4.045  0.3484 -0.5839  0.0361
 6922TIP3    H144961   3.041   4.642   4.115 -0.4918 -2.6930 -1.6620
 6922TIP3    H244962   2.936   4.717   4.036  0.4682  0.5551 -0.0512
 6923TIP3   OH244963   6.225   6.639   3.069  0.0757  0.1159  1.1693
 6923TIP3    H144964   6.268   6.670   3.149  1.6067  0.3228  0.3263
 6923TIP3    H244965   6.298   6.607   3.015 -0.8536  0.4448 -0.3323
 6924TIP3   OH244966   0.638   0.090   2.178 -0.0646 -0.0028 -0.0253
 6924TIP3    H144967   0.576   0.156   2.146  0.3456  0.6255  0.4668
 6924TIP3    H244968   0.712   0.096   2.117  0.0966  0.1908  0.1902
 6925TIP3   OH244969   4.907   4.914   0.784  0.0762  0.0283 -0.1352
 6925TIP3    H144970   4.958   4.885   0.859  0.9247  0.0039 -0.7109
 6925TIP3    H244971   4.834   4.852   0.780  0.7794 -0.8224 -0.1554
 6926TIP3   OH244972   5.173   2.487   1.036  0.3368 -0.2382 -0.0076
 6926TIP3    H144973   5.193   2.396   1.060 -0.7993 -0.4624  0.1577
 6926TIP3    H244974   5.183   2.536   1.118  2.3699  0.0805 -0.3781
 6927TIP3   OH244975   1.956   3.438   0.483 -0.0605 -0.2080 -0.1501
 6927TIP3    H144976   1.956   3.483   0.399  0.1316 -0.5312 -0.3291
 6927TIP3    H244977   2.022   3.484   0.536 -0.3403  0.1334 -0.0987
 6928TIP3   OH244978   6.648   6.719   3.762 -0.0270  0.5038  0.1311
 6928TIP3    H144979   6.656   6.631   3.724 -0.3741 -0.4604  2.1864
 6928TIP3    H244980   6.651   6.778   3.686 -0.1051 -1.2796 -1.3242
 6929TIP3   OH244981   4.477   0.293   1.947  0.1395 -0.5070 -0.0347
 6929TIP3    H144982   4.469   0.221   2.009 -0.6054 -0.8976 -0.5756
 6929TIP3    H244983   4.386   0.316   1.924  0.3039  1.2756  0.9028
 6930TIP3   OH244984   6.796   1.180   1.346  0.3848  0.3913 -0.3723
 6930TIP3    H144985   6.781   1.274   1.361 -0.3572  0.3095 -0.5229
 6930TIP3    H244986   6.767   1.138   1.427 -0.0034  0.2381 -0.5881
 6931TIP3   OH244987   0.567   5.481   2.807 -0.3454  0.6160  1.1061
 6931TIP3    H144988   0.562   5.491   2.712  0.8808 -1.9340  0.6711
 6931TIP3    H244989   0.479   5.502   2.838 -0.5236  2.4130 -0.4466
 6932TIP3   OH244990   2.057   5.326   1.397  0.1548 -0.3139 -0.3212
 6932TIP3    H144991   2.031   5.373   1.318  0.1618  0.7500  0.2875
 6932TIP3    H244992   1.981   5.273   1.420  0.2703 -0.8727 -1.2151
 6933TIP3   OH244993   4.623   6.090   1.829 -0.4505 -0.4728 -0.3472
 6933TIP3    H144994   4.538   6.057   1.859  0.0169 -0.4663  1.0965
 6933TIP3    H244995   4.686   6.022   1.853  0.0541 -0.1020 -0.5912
 6934TIP3   OH244996   1.391   0.700   0.946 -0.2054 -0.1821  0.1555
 6934TIP3    H144997   1.465   0.721   1.003  0.2029 -0.6762 -0.1851
 6934TIP3    H244998   1.357   0.618   0.980 -0.2654 -0.2259 -0.0114
 6935TIP3   OH244999   1.230   3.692   1.498  0.2228 -0.3087  0.4307
 6935TIP3    H145000   1.294   3.712   1.430 -1.6140 -1.0558 -1.6279
 6935TIP3    H245001   1.248   3.756   1.567  3.5718 -0.8992  0.2868
 6936TIP3   OH245002   5.858   4.029   3.023 -0.1229 -0.4091  0.0893
 6936TIP3    H145003   5.891   3.975   3.095 -2.5811 -3.7037 -1.0090
 6936TIP3    H245004   5.933   4.040   2.965  0.7727 -1.7364  0.9310
 6937TIP3   OH245005   1.586   3.935   1.707 -0.0439 -0.8062 -0.1835
 6937TIP3    H145006   1.615   3.859   1.655 -0.4134  1.4257 -4.0493
 6937TIP3    H245007   1.640   4.007   1.674  0.4760  0.7065  3.5312
 6938TIP3   OH245008   2.668   0.392   2.788 -0.0625 -0.0973 -0.1515
 6938TIP3    H145009   2.734   0.407   2.720 -0.2458 -0.0181 -0.3145
 6938TIP3    H245010   2.610   0.468   2.781  0.0240  0.0044  0.2182
 6939TIP3   OH245011   2.213   4.124   1.861 -0.2770  0.3999  0.2824
 6939TIP3    H145012   2.197   4.040   1.903  0.9864 -0.0639 -0.1093
 6939TIP3    H245013   2.307   4.125   1.845 -0.6415  0.7049 -2.1966
 6940TIP3   OH245014   2.981   2.028   3.260  0.3319 -0.4166  0.3877
 6940TIP3    H145015   3.026   1.976   3.193  0.2245  1.2901 -1.0577
 6940TIP3    H245016   2.915   2.077   3.212  0.6401  1.3081  1.6520
 6941TIP3   OH245017   0.389   5.098   0.399  0.0656  0.3426 -0.0839
 6941TIP3    H145018   0.379   5.003   0.402  0.1465  0.3382  0.0399
 6941TIP3    H245019   0.421   5.116   0.310  1.7087  0.0981  0.4225
 6942TIP3   OH245020   4.209   1.309   1.160 -0.4200  0.2709 -0.0856
 6942TIP3    H145021   4.217   1.316   1.255  0.6443  0.8446 -0.1963
 6942TIP3    H245022   4.246   1.392   1.127 -0.7324  0.0599 -0.9960
 6943TIP3   OH245023   3.563   5.060   2.117 -0.1653  0.4095 -0.1693
 6943TIP3    H145024   3.656   5.059   2.143  0.1492 -1.3020 -1.1415
 6943TIP3    H245025   3.523   4.991   2.170 -0.5723  0.2266 -0.7045
 6944TIP3   OH245026   4.223   5.185   1.584 -0.6022  0.3295 -0.1572
 6944TIP3    H145027   4.295   5.122   1.578 -1.4012 -0.7350  0.9279
 6944TIP3    H245028   4.241   5.234   1.665 -0.0304  1.4820 -0.9510
 6945TIP3   OH245029   0.262   4.121   3.292  0.1010  0.3495  0.5233
 6945TIP3    H145030   0.298   4.045   3.336 -2.6170 -1.3058  0.0907
 6945TIP3    H245031   0.179   4.138   3.336  1.0391  3.8057  1.2996
 6946TIP3   OH245032   6.784   0.594   1.183  0.2058  0.3210  0.2954
 6946TIP3    H145033   6.765   0.543   1.262  1.5315 -1.8095 -0.6813
 6946TIP3    H245034   6.853   0.654   1.210 -0.2021  0.4703  1.0486
 6947TIP3   OH245035   2.791   5.210   2.157 -0.0259 -0.2018 -0.2802
 6947TIP3    H145036   2.851   5.269   2.203 -0.4881 -0.2397  0.3838
 6947TIP3    H245037   2.751   5.265   2.089  0.4505 -0.0716 -0.4607
 6948TIP3   OH245038   3.057   5.210   2.462  0.5621  0.1375  0.2404
 6948TIP3    H145039   3.030   5.296   2.493  0.5529 -0.2406  1.3087
 6948TIP3    H245040   2.984   5.152   2.484  0.3740 -0.0835 -0.8712
 6949TIP3   OH245041   1.067   6.564   1.228 -0.3706  0.1355  0.2622
 6949TIP3    H145042   1.108   6.601   1.307  1.9501 -1.6601  0.0194
 6949TIP3    H245043   0.990   6.517   1.260  1.2450 -1.6729  1.7424
 6950TIP3   OH245044   4.497   3.439   0.567  0.4249 -0.4641  0.5061
 6950TIP3    H145045   4.455   3.416   0.484  2.7088 -2.5717 -0.1680
 6950TIP3    H245046   4.481   3.364   0.624  1.0705 -0.1449  1.1160
 6951TIP3   OH245047   5.080   4.436   2.286  0.4497 -0.3934 -0.3627
 6951TIP3    H145048   5.170   4.468   2.291  0.2032  0.5097 -1.4286
 6951TIP3    H245049   5.046   4.473   2.204 -0.3080 -2.2124 -0.9162
 6952TIP3   OH245050   2.916   2.596   1.883 -0.2480 -0.0712 -0.3438
 6952TIP3    H145051   2.967   2.559   1.955 -0.0949  0.9119  0.0661
 6952TIP3    H245052   2.979   2.607   1.812 -0.3239 -0.7073 -0.5164
 6953TIP3   OH245053   0.846   0.515   2.592  0.1180 -0.5220 -0.2170
 6953TIP3    H145054   0.812   0.603   2.610 -0.8718 -1.2954  2.1220
 6953TIP3    H245055   0.914   0.529   2.526  0.7345  2.1344  0.8176
 6954TIP3   OH245056   3.351   6.654   2.049 -0.2331 -0.0571  0.9443
 6954TIP3    H145057   3.306   6.658   2.133 -2.7673  0.6433 -0.3263
 6954TIP3    H245058   3.294   6.598   1.995  0.6343  0.5461 -0.6630
 6955TIP3   OH245059   2.909   5.521   3.644 -0.1445 -0.6108 -0.0841
 6955TIP3    H145060   2.897   5.581   3.717  0.0713  0.3505 -0.8076
 6955TIP3    H245061   2.879   5.436   3.676 -0.4581 -0.1110  0.9662
 6956TIP3   OH245062   2.409   5.313   3.168  0.1646 -0.2631  1.1794
 6956TIP3    H145063   2.369   5.281   3.087  0.1640  1.8720  0.2635
 6956TIP3    H245064   2.502   5.294   3.158  0.2381  0.4352  0.4195
 6957TIP3   OH245065   0.589   5.704   3.833  0.0542  0.1507  0.5720
 6957TIP3    H145066   0.668   5.749   3.863 -0.1147  0.8960 -0.0627
 6957TIP3    H245067   0.610   5.611   3.839  1.0918  0.3437  0.1365
 6958TIP3   OH245068   6.701   5.817   1.825 -0.2052 -0.4654  0.1740
 6958TIP3    H145069   6.692   5.724   1.842  0.5561 -0.2993  1.6013
 6958TIP3    H245070   6.730   5.822   1.734 -4.5540 -1.3929 -1.5087
 6959TIP3   OH245071   5.916   1.975   1.607 -0.3904  0.8336  0.4422
 6959TIP3    H145072   5.933   2.020   1.524  0.9871 -0.0779  0.1834
 6959TIP3    H245073   5.997   1.985   1.657 -0.0548 -1.1925  0.4155
 6960TIP3   OH245074   4.803   6.382   2.356  0.0064  0.1091  0.3238
 6960TIP3    H145075   4.886   6.344   2.325  0.1393  0.5335  0.1474
 6960TIP3    H245076   4.814   6.390   2.450  1.1662  2.4782  0.0560
 6961TIP3   OH245077   5.089   5.300   3.563  0.1070 -0.0288 -0.3297
 6961TIP3    H145078   5.060   5.365   3.627  0.7130 -1.7853  1.8245
 6961TIP3    H245079   5.089   5.217   3.611  2.1336 -1.1791 -2.1701
 6962TIP3   OH245080   4.279   2.867   2.446 -0.1424  0.1231 -0.2449
 6962TIP3    H145081   4.301   2.787   2.398 -1.3738  0.4668 -1.4417
 6962TIP3    H245082   4.190   2.853   2.478 -0.4334  1.0641 -0.6072
 6963TIP3   OH245083   1.772   6.279   2.996  0.6369  0.4530 -0.4366
 6963TIP3    H145084   1.685   6.260   3.030  0.1469 -0.1755 -1.9613
 6963TIP3    H245085   1.765   6.368   2.962  1.3215  1.3529  1.5911
 6964TIP3   OH245086   1.521   6.475   2.984 -0.2766 -0.4534  0.6352
 6964TIP3    H145087   1.482   6.392   2.956  0.9961 -0.9876  0.3607
 6964TIP3    H245088   1.477   6.542   2.932  0.0844 -1.1649 -0.6370
 6965TIP3   OH245089   6.757   3.411   3.621  0.3362 -0.1532  0.3995
 6965TIP3    H145090   6.692   3.452   3.565  1.0488 -0.0500 -0.3786
 6965TIP3    H245091   6.787   3.481   3.679  1.3374  0.3897 -0.7283
 6966TIP3   OH245092   4.926   0.317   2.892  0.8424 -0.2700  0.3272
 6966TIP3    H145093   4.927   0.239   2.947 -0.0600 -0.0479  0.6698
 6966TIP3    H245094   5.017   0.326   2.862  0.4837 -3.2130 -2.2336
 6967TIP3   OH245095   6.749   5.518   0.833 -0.2182 -0.1257  0.0137
 6967TIP3    H145096   6.764   5.428   0.802 -2.9371 -0.8486  0.4937
 6967TIP3    H245097   6.813   5.529   0.904  0.2165 -1.6596 -0.0911
 6968TIP3   OH245098   1.340   4.261   1.895 -0.2066  0.3362 -0.0737
 6968TIP3    H145099   1.272   4.206   1.857  0.2165 -1.0513  1.1152
 6968TIP3    H245100   1.408   4.199   1.924  0.2238  1.4566  1.4299
 6969TIP3   OH245101   4.539   6.408   2.010  0.0357 -0.1316  0.1888
 6969TIP3    H145102   4.561   6.492   1.970 -0.4339  1.0834  2.2875
 6969TIP3    H245103   4.621   6.358   2.008  0.0629 -0.0965 -2.0242
 6970TIP3   OH245104   6.463   1.398   3.230  0.4359  0.1072  0.2139
 6970TIP3    H145105   6.479   1.329   3.294  2.1283 -0.1278 -0.4034
 6970TIP3    H245106   6.548   1.441   3.220  0.9631 -1.3953 -3.5792
 6971TIP3   OH245107   4.412   4.101   0.780 -0.3175  0.0805 -0.4420
 6971TIP3    H145108   4.374   4.017   0.805 -1.6747  0.5244 -0.9431
 6971TIP3    H245109   4.361   4.129   0.704 -0.1752  1.5763 -0.0126
 6972TIP3   OH245110   1.421   4.552   2.492  0.6397  0.6700  0.5378
 6972TIP3    H145111   1.512   4.545   2.462  0.1583  0.5206 -0.9492
 6972TIP3    H245112   1.411   4.645   2.515  1.8084  0.2602  2.9646
 6973TIP3   OH245113   3.422   5.171   1.911 -0.1917 -0.3561 -0.1832
 6973TIP3    H145114   3.446   5.256   1.873 -1.1386  1.4542  2.8563
 6973TIP3    H245115   3.493   5.151   1.971 -0.7207 -0.9373  0.2590
 6974TIP3   OH245116   2.089   1.654   2.841  0.7862 -0.4277  0.7913
 6974TIP3    H145117   2.074   1.742   2.874  0.7338  0.3497 -1.1990
 6974TIP3    H245118   2.140   1.611   2.910  0.1899  0.8970  2.1162
 6975TIP3   OH245119   2.081   4.877   3.866  0.3010 -0.2733  0.0970
 6975TIP3    H145120   2.086   4.797   3.813  0.4461 -0.2725  0.1086
 6975TIP3    H245121   2.049   4.847   3.951  1.4432 -0.5006  0.4669
 6976TIP3   OH245122   6.500   6.690   1.219  0.4108  0.3142  0.4786
 6976TIP3    H145123   6.576   6.688   1.277 -0.6556  0.9870  1.9498
 6976TIP3    H245124   6.515   6.617   1.158  2.5147  0.8131  0.3048
 6977TIP3   OH245125   1.844   4.239   3.365  0.2940 -0.1147 -0.2449
 6977TIP3    H145126   1.818   4.188   3.288 -0.8052 -0.5039  0.3594
 6977TIP3    H245127   1.866   4.172   3.431  0.2116  0.2085  0.1114
 6978TIP3   OH245128   5.482   1.589   1.831  0.1300  0.3005  0.2612
 6978TIP3    H145129   5.489   1.685   1.835  0.9812  0.3133 -1.0370
 6978TIP3    H245130   5.573   1.559   1.827 -0.0927 -0.6363  1.5693
 6979TIP3   OH245131   4.584   3.994   3.481  0.1374  0.2239 -0.0693
 6979TIP3    H145132   4.645   3.986   3.554  0.4935  1.2779 -0.2308
 6979TIP3    H245133   4.517   4.055   3.513  0.0422  0.3217 -0.4483
 6980TIP3   OH245134   6.400   3.592   3.207  0.6498  0.1244 -0.4741
 6980TIP3    H145135   6.434   3.666   3.257  1.7541 -1.2506  0.9278
 6980TIP3    H245136   6.421   3.612   3.116  0.1506  1.8958 -0.2361
 6981TIP3   OH245137   1.323   6.707   2.921 -0.0591 -0.0597 -0.1342
 6981TIP3    H145138   1.356   6.793   2.894  2.0730 -0.5603  0.7074
 6981TIP3    H245139   1.273   6.676   2.845  0.3235  1.3003 -0.9837
 6982TIP3   OH245140   4.484   2.399   0.514  0.2292  0.1241 -0.2122
 6982TIP3    H145141   4.559   2.349   0.547 -0.2577 -0.6938 -0.3131
 6982TIP3    H245142   4.499   2.488   0.545  0.4402 -0.3512  1.1192
 6983TIP3   OH245143   1.004   3.932   1.479 -0.3248  0.2870  0.5446
 6983TIP3    H145144   0.948   4.010   1.485 -0.4048  0.2946 -0.2117
 6983TIP3    H245145   1.093   3.967   1.476 -0.4413  0.5366 -2.3577
 6984TIP3   OH245146   4.188   5.499   3.829 -0.1468 -0.0528 -0.0664
 6984TIP3    H145147   4.094   5.492   3.845  0.0008 -0.5146  0.6720
 6984TIP3    H245148   4.227   5.435   3.889  0.6806  0.6059  0.1129
 6985TIP3   OH245149   5.669   5.745   3.091  0.0531  0.6444 -0.3899
 6985TIP3    H145150   5.643   5.752   3.183  0.1996 -0.8101 -0.2160
 6985TIP3    H245151   5.760   5.714   3.094 -0.8325 -2.2809 -0.9741
 6986TIP3   OH245152   1.689   2.842   1.812  0.2951  0.0200  0.0169
 6986TIP3    H145153   1.659   2.761   1.770  1.1318 -0.5130  0.4246
 6986TIP3    H245154   1.732   2.814   1.892 -0.6966  0.9851  0.9384
 6987TIP3   OH245155   3.523   3.377   3.040  0.3585 -0.2650 -0.0782
 6987TIP3    H145156   3.553   3.289   3.016  1.0580 -0.0710  0.0425
 6987TIP3    H245157   3.582   3.435   2.992 -0.5388  0.1473 -0.7010
 6988TIP3   OH245158   2.268   4.989   1.977 -0.0932 -0.5514  0.5144
 6988TIP3    H145159   2.205   4.926   1.942  0.2471  0.3776 -2.0014
 6988TIP3    H245160   2.271   5.059   1.911  0.2480  1.6535  2.7322
 6989TIP3   OH245161   3.508   2.178   0.848 -0.7165  0.5619 -0.3481
 6989TIP3    H145162   3.476   2.118   0.780  2.3036 -0.2485 -1.2036
 6989TIP3    H245163   3.540   2.122   0.918 -0.5647  1.2901  0.1856
 6990TIP3   OH245164   0.465   3.353   2.556  0.0150  0.1117 -0.0478
 6990TIP3    H145165   0.475   3.437   2.511 -1.1170  0.4133  0.2095
 6990TIP3    H245166   0.486   3.288   2.490  1.1851  0.5974 -0.1719
 6991TIP3   OH245167   0.295   3.451   2.848  0.0197  0.3598 -0.4406
 6991TIP3    H145168   0.372   3.406   2.881 -0.5265 -0.6896 -0.5626
 6991TIP3    H245169   0.235   3.381   2.821 -0.8470  1.1537 -0.6488
 6992TIP3   OH245170   0.293   0.893   3.675  1.1515 -0.5171  0.5006
 6992TIP3    H145171   0.333   0.863   3.756 -1.5184  0.9281  2.4870
 6992TIP3    H245172   0.217   0.836   3.662  3.0323 -2.6626 -2.7319
 6993TIP3   OH245173   4.861   5.456   1.741  0.4163 -0.1198  0.1211
 6993TIP3    H145174   4.910   5.535   1.715 -0.3479 -0.0259 -1.0983
 6993TIP3    H245175   4.811   5.483   1.818 -0.7165  0.9544 -0.9550
 6994TIP3   OH245176   0.913   0.384   2.090 -0.3818 -0.0542 -0.0955
 6994TIP3    H145177   0.965   0.304   2.088 -0.2453  0.0331 -0.0198
 6994TIP3    H245178   0.905   0.406   2.182  0.6081  0.6909 -0.1699
 6995TIP3   OH245179   5.342   6.453   2.105  0.0122 -0.9078 -0.3014
 6995TIP3    H145180   5.370   6.536   2.068  0.1506 -1.4610 -1.4757
 6995TIP3    H245181   5.422   6.414   2.142  0.1167 -0.9174 -0.5390
 6996TIP3   OH245182   6.678   6.240   1.558 -0.7214  0.0165 -0.0452
 6996TIP3    H145183   6.648   6.209   1.472 -1.5000 -1.1934  0.6308
 6996TIP3    H245184   6.749   6.180   1.582  0.2582  1.0433 -0.3204
 6997TIP3   OH245185   6.606   4.458   2.080  0.4820 -0.7759  0.6359
 6997TIP3    H145186   6.653   4.504   2.149  0.9128 -0.6601  0.2706
 6997TIP3    H245187   6.545   4.522   2.045  0.7895 -0.6029  0.4081
 6998TIP3   OH245188   5.726   1.510   0.851  0.0302  0.1484  0.2646
 6998TIP3    H145189   5.664   1.439   0.863  0.1190  0.0454  0.1225
 6998TIP3    H245190   5.753   1.504   0.759  0.9222 -0.3715  0.5405
 6999TIP3   OH245191   3.826   3.072   3.257 -0.0608  0.0161  0.4606
 6999TIP3    H145192   3.750   3.021   3.229 -0.3676  1.2104 -0.9982
 6999TIP3    H245193   3.898   3.041   3.202 -0.1647  0.8484 -0.1727
 7000TIP3   OH245194   4.235   3.658   1.390  0.0306 -0.1045  0.1417
 7000TIP3    H145195   4.167   3.706   1.342  0.2346  1.2659  1.1587
 7000TIP3    H245196   4.311   3.716   1.387  0.6662 -0.9139  0.3887
 7001TIP3   OH245197   3.445   3.748   3.831 -0.1096 -0.1290  0.1280
 7001TIP3    H145198   3.400   3.707   3.905  0.9703  1.5249  1.7877
 7001TIP3    H245199   3.535   3.759   3.860 -0.2041  2.8055 -0.4096
 7002TIP3   OH245200   5.135   1.223   1.710 -0.2555  0.0126  0.0800
 7002TIP3    H145201   5.178   1.294   1.756 -0.4612  0.3276 -0.2076
 7002TIP3    H245202   5.207   1.165   1.682 -0.1690 -0.4497  1.2223
 7003TIP3   OH245203   0.918   2.483   3.449 -0.2471 -0.4822  0.1703
 7003TIP3    H145204   0.899   2.577   3.452  2.8224  0.2179  0.8865
 7003TIP3    H245205   0.841   2.442   3.488 -1.4233  1.7533  0.3904
 7004TIP3   OH245206   0.200   0.082   3.524 -0.0214 -0.3422  0.4941
 7004TIP3    H145207   0.211  -0.012   3.541  1.3126 -0.5426 -1.1700
 7004TIP3    H245208   0.285   0.110   3.490 -0.6175  1.3288  0.2911
 7005TIP3   OH245209   4.002   4.499   4.038  0.7423  0.3700 -0.3497
 7005TIP3    H145210   3.924   4.445   4.023  1.3391 -0.2916 -1.1575
 7005TIP3    H245211   4.072   4.454   3.992  1.5808  1.0513  0.2168
 7006TIP3   OH245212   3.527   4.807   0.726  0.1370 -0.5036  0.1893
 7006TIP3    H145213   3.516   4.788   0.819 -0.6336 -2.0577 -0.1850
 7006TIP3    H245214   3.592   4.878   0.723  0.9222 -1.1083  1.8445
 7007TIP3   OH245215   0.423   0.596   2.889  0.0381  0.4798 -0.1977
 7007TIP3    H145216   0.389   0.511   2.917 -0.0008  0.1649 -1.1584
 7007TIP3    H245217   0.510   0.601   2.929 -0.3874  0.4688  0.7418
 7008TIP3   OH245218   6.337   4.266   1.805  0.3323 -0.0051  0.4353
 7008TIP3    H145219   6.342   4.361   1.796 -0.7829  0.0603  0.3327
 7008TIP3    H245220   6.268   4.251   1.869  0.7410 -0.7466  0.7238
 7009TIP3   OH245221   4.993   3.703   1.139 -0.0464  0.3048 -0.5039
 7009TIP3    H145222   4.940   3.641   1.088  0.3838  0.0099 -0.5959
 7009TIP3    H245223   5.082   3.667   1.136 -0.5191 -1.7036  3.3728
 7010TIP3   OH245224   1.150   0.887   2.964  0.1108 -0.1706 -0.1892
 7010TIP3    H145225   1.103   0.827   2.906  1.0387  0.2189 -1.3683
 7010TIP3    H245226   1.093   0.896   3.040 -0.8808 -1.1171 -0.7966
 7011TIP3   OH245227   6.517   0.641   1.186  0.5375  0.0859 -0.2513
 7011TIP3    H145228   6.487   0.718   1.137  1.2350  0.4815 -0.0764
 7011TIP3    H245229   6.612   0.641   1.174  1.0036  1.2719  2.5521
 7012TIP3   OH245230   4.720   5.098   1.558  0.3275  0.1454 -0.6793
 7012TIP3    H145231   4.709   5.006   1.583 -0.1217 -0.0386 -1.4843
 7012TIP3    H245232   4.795   5.128   1.609  0.4957 -0.6735 -0.4144
 7013TIP3   OH245233   1.000   4.925   3.815 -0.0429 -0.2360 -0.0443
 7013TIP3    H145234   1.089   4.926   3.852  0.6557 -0.3136 -1.6301
 7013TIP3    H245235   0.979   4.832   3.807  0.5524 -0.2891 -1.4263
 7014TIP3   OH245236   2.982   0.229   3.912  0.3267  0.1519  0.5898
 7014TIP3    H145237   2.973   0.146   3.959 -0.5115  0.6009  1.2577
 7014TIP3    H245238   2.893   0.265   3.910 -0.5186 -1.4116 -4.3408
 7015TIP3   OH245239   5.554   1.976   1.462  0.0806 -0.1515 -0.4381
 7015TIP3    H145240   5.511   2.026   1.392 -0.1765 -0.7737 -0.7268
 7015TIP3    H245241   5.484   1.926   1.503  0.3587 -0.3848 -0.2448
 7016TIP3   OH245242   6.495   2.940   1.439  0.0611 -0.0098 -0.4799
 7016TIP3    H145243   6.441   3.006   1.397 -0.5430  0.7806  1.4199
 7016TIP3    H245244   6.457   2.930   1.526  1.6414 -1.0662  0.1369
 7017TIP3   OH245245   3.174   5.899   4.764 -0.0992  0.1796  0.0784
 7017TIP3    H145246   3.200   5.814   4.727  0.2868  0.4048 -0.1747
 7017TIP3    H245247   3.118   5.877   4.838 -0.6531 -0.2892 -0.4665
 7018TIP3   OH245248   1.546   0.190   1.959 -0.0094 -0.9383  0.5273
 7018TIP3    H145249   1.536   0.096   1.947  0.9228 -0.8350 -1.5006
 7018TIP3    H245250   1.484   0.229   1.897 -0.5113 -0.1940  1.4690
 7019TIP3   OH245251   4.272   0.940   3.283  0.1419 -0.8138 -0.2139
 7019TIP3    H145252   4.241   0.917   3.196  1.2081 -1.4053 -0.4534
 7019TIP3    H245253   4.287   0.856   3.327  2.9929 -0.6793 -0.7059
 7020TIP3   OH245254   0.614   4.624   3.471 -0.2388 -1.1114 -0.6006
 7020TIP3    H145255   0.633   4.578   3.553  0.8784  0.2650 -0.0348
 7020TIP3    H245256   0.617   4.556   3.404  0.3035 -2.0329  0.3236
 7021TIP3   OH245257   4.443   1.734   1.684 -0.3641 -0.1705 -0.3234
 7021TIP3    H145258   4.423   1.753   1.776  0.5207 -1.8917  0.2739
 7021TIP3    H245259   4.539   1.740   1.679 -0.3074 -1.2057 -0.8309
 7022TIP3   OH245260   1.743   0.213   2.428  0.5124  0.1154  0.4790
 7022TIP3    H145261   1.807   0.284   2.417  0.0318  0.6034  0.7446
 7022TIP3    H245262   1.659   0.258   2.431  0.1358 -0.5295 -0.0272
 7023TIP3   OH245263   3.730   4.708   0.571 -0.1966 -0.1318  0.1466
 7023TIP3    H145264   3.784   4.785   0.555  0.3184 -0.1953  1.4115
 7023TIP3    H245265   3.642   4.743   0.588  0.0696  0.2137  0.8736
 7024TIP3   OH245266   1.360   1.623   1.088 -0.6566  0.5456  0.1182
 7024TIP3    H145267   1.424   1.556   1.109  0.7786  1.0597 -2.2941
 7024TIP3    H245268   1.303   1.582   1.023 -0.4463  1.3012 -0.5471
 7025TIP3   OH245269   3.518   0.671   2.856  0.3735  0.1458  0.6983
 7025TIP3    H145270   3.527   0.679   2.951  1.2262  0.3938  0.6102
 7025TIP3    H245271   3.554   0.585   2.835  0.2830  0.1338  0.5910
 7026TIP3   OH245272   1.183   4.835   2.335  0.3073  0.1264  0.4008
 7026TIP3    H145273   1.230   4.795   2.262  0.0153 -0.3357  0.4633
 7026TIP3    H245274   1.125   4.900   2.294  0.0695 -0.2019  0.2096
 7027TIP3   OH245275   4.128   2.334   1.972 -0.1120 -0.3687 -0.2745
 7027TIP3    H145276   4.148   2.404   1.910  1.0214 -0.0078  0.4797
 7027TIP3    H245277   4.173   2.359   2.053 -1.6566 -0.7662  0.7635
 7028TIP3   OH245278   2.646   0.806   1.605  0.0411 -0.1982 -0.0457
 7028TIP3    H145279   2.712   0.848   1.660 -1.0224  0.4126  0.8030
 7028TIP3    H245280   2.686   0.722   1.579  0.8478 -0.1650  1.0368
 7029TIP3   OH245281   2.744   0.405   0.953 -0.1477  0.4569 -0.8320
 7029TIP3    H145282   2.740   0.435   1.044 -1.9299  2.1973 -1.3938
 7029TIP3    H245283   2.733   0.310   0.958 -2.0452  0.6952  0.7100
 7030TIP3   OH245284   2.459   6.245   3.338 -0.2990  0.0740 -0.9355
 7030TIP3    H145285   2.537   6.230   3.391 -0.3961  0.7681 -0.5940
 7030TIP3    H245286   2.422   6.157   3.325  0.4514 -0.2413 -0.9806
 7031TIP3   OH245287   4.250   0.143   1.625  0.4811 -0.4783 -0.4476
 7031TIP3    H145288   4.239   0.171   1.534 -1.2864  0.0820 -0.1001
 7031TIP3    H245289   4.201   0.061   1.632  0.9502 -0.7352 -0.0968
 7032TIP3   OH245290   5.290   2.776   1.889 -0.5597 -0.4362  0.7482
 7032TIP3    H145291   5.347   2.710   1.927 -0.1035 -0.5735 -0.1604
 7032TIP3    H245292   5.241   2.811   1.964 -0.6803 -1.6619  1.2665
 7033TIP3   OH245293   4.113   4.616   2.629  0.0710 -0.2918 -0.1055
 7033TIP3    H145294   4.038   4.575   2.672  0.0513 -2.2409 -1.8140
 7033TIP3    H245295   4.088   4.708   2.620 -1.3939 -0.5603  0.8620
 7034TIP3   OH245296   4.723   1.740   1.743  0.3046 -0.3899  0.7007
 7034TIP3    H145297   4.709   1.692   1.661 -1.0280  0.3398  0.4688
 7034TIP3    H245298   4.813   1.773   1.736  0.6628 -1.4307  0.1329
 7035TIP3   OH245299   1.815   6.759   3.212 -0.4456  0.3403 -0.6958
 7035TIP3    H145300   1.754   6.828   3.186  0.5634  1.1884 -0.8953
 7035TIP3    H245301   1.863   6.738   3.131 -0.8702 -0.7532 -0.6863
 7036TIP3   OH245302   1.409   5.291   2.514  0.1058  0.4133 -0.1551
 7036TIP3    H145303   1.454   5.293   2.429  1.0676  0.7803  0.3358
 7036TIP3    H245304   1.404   5.198   2.537 -1.5207  0.1896 -1.2858
 7037TIP3   OH245305   0.063   5.022   4.223  0.1881 -0.1629  0.1242
 7037TIP3    H145306   0.089   4.952   4.164 -1.1137 -0.0070 -0.6540
 7037TIP3    H245307   0.093   5.103   4.180 -0.2746 -0.0862 -0.0520
 7038TIP3   OH245308   3.096   5.121  11.035 -0.5919 -0.4226 -0.2986
 7038TIP3    H145309   3.001   5.119  11.023 -0.9562 -1.0757  2.1292
 7038TIP3    H245310   3.127   5.188  10.975 -2.8613  1.3022  0.3533
 7039TIP3   OH245311   2.452   6.198   1.655  0.0779  0.4001  0.5084
 7039TIP3    H145312   2.510   6.156   1.592 -0.4386  1.1727 -0.5026
 7039TIP3    H245313   2.375   6.141   1.658 -0.3300  0.8887 -0.3445
 7040TIP3   OH245314   5.886   4.348   3.441  0.5543 -0.3263  0.5645
 7040TIP3    H145315   5.834   4.280   3.484 -0.2712  0.8510  1.4957
 7040TIP3    H245316   5.920   4.306   3.362 -2.6325 -0.9137 -0.6561
 7041TIP3   OH245317   4.032   0.377   3.544  0.0445  0.6235  0.4216
 7041TIP3    H145318   4.020   0.392   3.451  0.8878  1.0189  0.3575
 7041TIP3    H245319   4.074   0.458   3.575 -0.8343  0.7723  1.2740
 7042TIP3   OH245320   1.813   0.967   2.336  0.0717 -0.5711 -0.9446
 7042TIP3    H145321   1.718   0.954   2.337 -0.0023 -0.2071  1.6570
 7042TIP3    H245322   1.849   0.887   2.372  0.5189  0.4634  1.0368
 7043TIP3   OH245323   3.948   4.072   3.070  0.5120 -0.1371 -0.5252
 7043TIP3    H145324   3.983   3.987   3.095 -2.1071 -0.7564  1.3833
 7043TIP3    H245325   3.989   4.134   3.130  1.0397 -0.2987 -0.7152
 7044TIP3   OH245326   6.091   3.733   2.421  0.1430 -0.3510 -0.1812
 7044TIP3    H145327   6.144   3.772   2.352  0.3110 -0.8475 -0.3406
 7044TIP3    H245328   6.007   3.779   2.416  0.6732  0.7012  0.3195
 7045TIP3   OH245329   2.764   3.509   1.899  0.4327 -0.9386  0.0693
 7045TIP3    H145330   2.692   3.566   1.925  0.6368  0.7852 -2.6652
 7045TIP3    H245331   2.843   3.557   1.923  0.6045 -0.0779 -1.9735
 7046TIP3   OH245332   2.472   0.086   1.377 -0.2652  0.2131  0.3741
 7046TIP3    H145333   2.505   0.117   1.293  0.8996 -0.6789  0.4625
 7046TIP3    H245334   2.386   0.049   1.358  0.3832 -0.8495 -0.6449
 7047TIP3   OH245335   0.296   2.859   0.836  0.1778 -0.1259 -0.2817
 7047TIP3    H145336   0.241   2.822   0.766  0.7349  0.7864 -1.2365
 7047TIP3    H245337   0.249   2.938   0.864  1.7308  1.6482 -2.3100
 7048TIP3   OH245338   5.980   2.723   1.813 -0.1597 -0.5216 -0.8800
 7048TIP3    H145339   5.885   2.720   1.805 -0.4118 -4.3337  1.1614
 7048TIP3    H245340   6.012   2.667   1.741  0.4766 -0.1579 -0.8911
 7049TIP3   OH245341   4.270   2.571   0.749  0.3586 -0.0503  0.1161
 7049TIP3    H145342   4.335   2.534   0.809 -0.1029  0.1065  0.7200
 7049TIP3    H245343   4.286   2.665   0.751 -0.4006  0.0641  0.8786
 7050TIP3   OH245344   6.367   1.271   1.324  0.2439  0.4209 -0.1355
 7050TIP3    H145345   6.363   1.302   1.415  0.5092  1.8537 -0.5935
 7050TIP3    H245346   6.275   1.265   1.297  0.2014  2.5714 -0.5907
 7051TIP3   OH245347   0.334   5.298   0.566  0.4381 -0.5140 -0.7488
 7051TIP3    H145348   0.338   5.233   0.496 -1.2241  0.8644 -2.2184
 7051TIP3    H245349   0.407   5.357   0.548  1.0459 -1.1004 -0.2795
 7052TIP3   OH245350   5.978   4.311   1.290  0.2204  0.0353  0.0484
 7052TIP3    H145351   5.929   4.229   1.281  0.3369  0.1991 -3.0811
 7052TIP3    H245352   6.048   4.290   1.352 -0.5952 -1.7829  0.4228
 7053TIP3   OH245353   2.975   2.506   2.376 -0.0352 -0.2767 -0.1896
 7053TIP3    H145354   2.899   2.488   2.432  1.0381 -0.3421  1.3002
 7053TIP3    H245355   2.945   2.575   2.317 -1.4375 -0.7383 -0.0602
 7054TIP3   OH245356   6.688   4.102   3.655 -0.2489  0.5835  0.2059
 7054TIP3    H145357   6.626   4.122   3.725 -0.6867  0.0995 -0.0304
 7054TIP3    H245358   6.648   4.028   3.609  0.5685  0.1844  0.1232
 7055TIP3   OH245359   3.306   0.831   3.998 -0.0047 -0.0625 -0.0697
 7055TIP3    H145360   3.212   0.833   4.016 -0.2918 -1.5325 -1.2658
 7055TIP3    H245361   3.346   0.872   4.075 -1.5895  0.2159  0.6349
 7056TIP3   OH245362   3.252   3.851   2.974 -0.4419 -0.5240 -0.0366
 7056TIP3    H145363   3.177   3.903   3.003  0.8167  1.8386 -0.7484
 7056TIP3    H245364   3.289   3.814   3.054 -2.3221 -1.7315  0.3251
 7057TIP3   OH245365   2.906   3.269   3.364  0.2663 -0.1152  0.1006
 7057TIP3    H145366   2.944   3.266   3.277  0.2734  1.3737  0.0337
 7057TIP3    H245367   2.925   3.357   3.396 -1.5738  0.1014  0.7500
 7058TIP3   OH245368   6.486   5.366   2.835  0.0030  0.2126 -0.6900
 7058TIP3    H145369   6.549   5.438   2.824 -0.7645  1.3348  1.6582
 7058TIP3    H245370   6.533   5.302   2.888  0.0564 -0.1987 -1.2248
 7059TIP3   OH245371   4.296   5.898   0.903  0.0348  0.0499 -0.1025
 7059TIP3    H145372   4.340   5.919   0.820  0.0541  0.6456  0.0590
 7059TIP3    H245373   4.205   5.923   0.889 -0.2715 -1.1817 -0.4343
 7060TIP3   OH245374   0.843   1.016   2.899  0.1115 -0.3679 -0.5387
 7060TIP3    H145375   0.860   0.927   2.930  1.0677 -0.3103 -0.8828
 7060TIP3    H245376   0.893   1.024   2.818 -0.1274  0.4186 -0.6224
 7061TIP3   OH245377   5.275   6.381   0.701 -0.6694  0.1456 -0.2895
 7061TIP3    H145378   5.322   6.373   0.784  1.8096  2.3208 -1.3366
 7061TIP3    H245379   5.212   6.452   0.717 -0.1090  0.6494 -0.2481
 7062TIP3   OH245380   3.572   0.318   1.734  0.0057  0.4416  0.2528
 7062TIP3    H145381   3.560   0.231   1.773 -1.6875  0.6546  0.2802
 7062TIP3    H245382   3.616   0.301   1.651 -0.8674 -0.5059 -0.0333
 7063TIP3   OH245383   1.955   6.329   3.419  0.0787 -0.0206 -0.1381
 7063TIP3    H145384   1.964   6.395   3.488  0.2404  0.9469 -1.0632
 7063TIP3    H245385   2.043   6.324   3.380  0.4396 -1.7952  0.7919
 7064TIP3   OH245386   2.513   2.795   1.299 -0.0916 -0.4014 -0.2415
 7064TIP3    H145387   2.548   2.707   1.287  1.3255  0.1953 -0.6172
 7064TIP3    H245388   2.577   2.853   1.259 -1.2954  0.7815 -0.5388
 7065TIP3   OH245389   5.649   4.150   3.115  0.4315  0.2164 -0.1436
 7065TIP3    H145390   5.740   4.146   3.084  0.6498  1.7877  0.1808
 7065TIP3    H245391   5.649   4.101   3.197  1.1794  0.7862  0.2125
 7066TIP3   OH245392   5.449   4.292   2.577 -0.5586  0.6373  0.6334
 7066TIP3    H145393   5.477   4.215   2.626  0.8460  1.5674  1.3819
 7066TIP3    H245394   5.389   4.338   2.636  0.1132  1.0880  0.9776
 7067TIP3   OH245395   2.489   5.070   4.202  0.2009  0.1675 -0.1050
 7067TIP3    H145396   2.507   4.996   4.144 -1.4446  0.8258 -1.5333
 7067TIP3    H245397   2.424   5.036   4.264  0.3359  0.0928 -0.0025
 7068TIP3   OH245398   0.030   1.486   2.819  0.0714  0.6032 -0.4843
 7068TIP3    H145399   0.047   1.443   2.903 -0.4356 -0.4691 -0.9082
 7068TIP3    H245400   0.109   1.536   2.801  0.1666  0.8946  0.6572
 7069TIP3   OH245401   1.668   0.175   3.054  0.2583 -0.0475 -0.5358
 7069TIP3    H145402   1.720   0.254   3.043 -0.5091  0.1637 -3.4001
 7069TIP3    H245403   1.703   0.114   2.989 -1.2809 -0.8675 -0.6462
 7070TIP3   OH245404   5.771   1.824   1.348  0.2998  0.5176  0.0177
 7070TIP3    H145405   5.841   1.774   1.391  0.1871  0.6762  0.3892
 7070TIP3    H245406   5.710   1.846   1.419 -2.0307 -2.6513 -0.7491
 7071TIP3   OH245407   4.982   5.495   2.217 -0.1798  0.0901  0.1488
 7071TIP3    H145408   4.967   5.564   2.282  1.8104 -0.0513  0.8308
 7071TIP3    H245409   5.039   5.535   2.151 -0.8322 -0.2566 -0.6432
 7072TIP3   OH245410   0.525   3.607   0.723 -0.5167  0.3352  0.1468
 7072TIP3    H145411   0.577   3.677   0.763 -0.1867 -0.6912  1.6081
 7072TIP3    H245412   0.549   3.528   0.772  1.1684 -1.4283 -3.1588
 7073TIP3   OH245413   4.862   6.505   3.428  0.1920 -0.1195 -0.3483
 7073TIP3    H145414   4.811   6.456   3.364  0.9235  0.5478 -1.4626
 7073TIP3    H245415   4.803   6.576   3.456 -1.3632 -2.2156  2.2270
 7074TIP3   OH245416   0.979   1.849   1.472  0.1943  0.2102 -0.8154
 7074TIP3    H145417   0.894   1.806   1.464 -0.2238  0.8558 -0.0172
 7074TIP3    H245418   1.001   1.839   1.565  1.3978 -0.6912 -1.1728
 7075TIP3   OH245419   0.973   3.933   3.104 -0.1284  0.1292  0.3772
 7075TIP3    H145420   1.043   3.956   3.043 -1.0873  4.2659  0.5756
 7075TIP3    H245421   0.893   3.950   3.055 -1.0478 -1.8416  1.0786
 7076TIP3   OH245422   1.011   1.214   2.189  0.3472  0.1743  0.2010
 7076TIP3    H145423   1.073   1.156   2.233  0.8107  0.6127  0.1329
 7076TIP3    H245424   1.062   1.291   2.165 -0.7196  1.5928  2.1976
 7077TIP3   OH245425   3.332   1.590   1.096 -0.3708  0.3834 -0.0693
 7077TIP3    H145426   3.286   1.671   1.117 -1.3248 -0.2433  0.3349
 7077TIP3    H245427   3.306   1.571   1.005 -0.3173  0.4234 -0.0928
 7078TIP3   OH245428   5.024   4.786   1.619  0.7984 -0.0320  0.3379
 7078TIP3    H145429   5.109   4.798   1.662  1.0191 -0.6626  0.0809
 7078TIP3    H245430   5.006   4.692   1.627 -0.1172  0.1725  0.8428
 7079TIP3   OH245431   2.097   6.618   1.090  0.2062  0.1951  0.1156
 7079TIP3    H145432   2.094   6.548   1.024 -0.0021  1.1294 -0.9019
 7079TIP3    H245433   2.026   6.677   1.064  2.5222  2.6333 -1.1917
 7080TIP3   OH245434   3.658   6.082   2.029  0.2263 -0.2645  0.4856
 7080TIP3    H145435   3.711   6.069   1.951 -0.3290 -0.3059  0.1130
 7080TIP3    H245436   3.648   6.177   2.037  0.4606 -0.2513  0.6285
 7081TIP3   OH245437   5.864   1.248   3.378  0.3128  0.3358 -0.2424
 7081TIP3    H145438   5.934   1.263   3.313  0.5741  2.1039  0.3876
 7081TIP3    H245439   5.873   1.321   3.439 -1.3732 -0.0539  0.5097
 7082TIP3   OH245440   4.166   2.258   0.816  0.1239  0.0120 -0.1588
 7082TIP3    H145441   4.110   2.334   0.827 -0.5668 -0.5149  0.0148
 7082TIP3    H245442   4.196   2.263   0.725 -0.8379 -0.1227 -0.4915
 7083TIP3   OH245443   5.973   2.096   0.732  0.8158  0.2508 -0.2721
 7083TIP3    H145444   5.991   2.091   0.826 -0.9109  1.2842  0.1497
 7083TIP3    H245445   5.884   2.130   0.726  0.8856  0.1939 -2.2940
 7084TIP3   OH245446   3.424   5.267   3.488 -0.1077  0.2878 -0.4682
 7084TIP3    H145447   3.486   5.275   3.415  3.0879  3.0319  2.2430
 7084TIP3    H245448   3.470   5.213   3.552 -0.5542  2.1707  1.5305
 7085TIP3   OH245449   0.929   6.006   1.266 -0.0436  0.0489  0.2062
 7085TIP3    H145450   0.864   6.019   1.197  1.8845  0.7764 -1.5484
 7085TIP3    H245451   0.907   5.920   1.302 -2.5973  0.6968  0.4385
 7086TIP3   OH245452   5.184   1.188   2.054 -0.3381 -0.2690 -0.1450
 7086TIP3    H145453   5.195   1.190   2.149  2.2083  0.3622 -0.3885
 7086TIP3    H245454   5.128   1.263   2.035 -0.6769 -0.2555  0.8257
 7087TIP3   OH245455   1.988   6.060   1.132 -0.1923  0.3263  0.0956
 7087TIP3    H145456   1.953   5.973   1.147 -0.4395  0.0861 -1.5914
 7087TIP3    H245457   2.083   6.050   1.137 -0.1686 -0.3081 -1.2131
 7088TIP3   OH245458   1.236   2.858   2.464  0.0837  0.2862 -0.6175
 7088TIP3    H145459   1.242   2.859   2.368 -0.3734 -1.0394 -0.6838
 7088TIP3    H245460   1.266   2.771   2.489  0.1354  0.5996  0.4466
 7089TIP3   OH245461   0.836   5.606   2.660  0.0096  0.1259 -0.2170
 7089TIP3    H145462   0.826   5.651   2.743 -0.0373  2.8782 -1.6100
 7089TIP3    H245463   0.746   5.594   2.628 -0.1122 -2.7475  0.9343
 7090TIP3   OH245464   3.606   3.358   4.478  0.2521  0.2543  0.2297
 7090TIP3    H145465   3.514   3.384   4.467  0.2983 -0.3485 -2.1260
 7090TIP3    H245466   3.608   3.313   4.563 -1.4041  1.1119  0.7856
 7091TIP3   OH245467   3.103   2.128   1.926 -0.0778  0.7726 -0.1753
 7091TIP3    H145468   3.020   2.174   1.922  0.3811  1.5180 -1.4163
 7091TIP3    H245469   3.157   2.168   1.858  0.5235 -1.2271 -0.9436
 7092TIP3   OH245470   4.655   2.219   2.682 -1.0964 -0.1959 -0.3179
 7092TIP3    H145471   4.706   2.298   2.664 -1.5081 -0.1200 -1.1951
 7092TIP3    H245472   4.576   2.251   2.724 -0.5713 -0.2920  0.7973
 7093TIP3   OH245473   5.514   6.340   1.424 -0.0978  0.1352  0.5061
 7093TIP3    H145474   5.449   6.310   1.488 -0.9316  2.0168  0.6136
 7093TIP3    H245475   5.553   6.417   1.465  1.8756 -0.6664  0.2137
 7094TIP3   OH245476   1.277   4.475   1.460 -0.8336  0.8891 -0.3117
 7094TIP3    H145477   1.214   4.510   1.524  1.1497  1.1504  1.6253
 7094TIP3    H245478   1.334   4.418   1.512  2.0096  2.5153 -1.4095
 7095TIP3   OH245479   6.628   2.213   2.462 -0.9917  0.0800 -0.0156
 7095TIP3    H145480   6.686   2.281   2.429  1.2729 -1.6251  0.2222
 7095TIP3    H245481   6.607   2.159   2.385 -2.0439  0.4818 -0.0351
 7096TIP3   OH245482   6.772   3.815   1.721  0.2517 -0.1882  0.3550
 7096TIP3    H145483   6.813   3.824   1.635  0.1040 -1.0312  0.1887
 7096TIP3    H245484   6.768   3.905   1.755 -0.8120  0.3236 -1.0335
 7097TIP3   OH245485   3.690   5.047   0.706  0.1779  0.0351  0.2919
 7097TIP3    H145486   3.694   5.141   0.727  1.2568  0.2681 -0.8456
 7097TIP3    H245487   3.781   5.022   0.693 -0.2533 -0.4845 -2.2394
 7098TIP3   OH245488   0.915   0.859   1.432 -0.0338 -0.2029 -0.9188
 7098TIP3    H145489   0.890   0.934   1.378  0.3706  0.3834 -0.3037
 7098TIP3    H245490   0.862   0.786   1.398  0.2441  0.1374 -2.1187
 7099TIP3   OH245491   6.346   6.194   2.518  0.3085  0.3921 -0.5843
 7099TIP3    H145492   6.342   6.144   2.436 -0.3540 -0.8893  0.1889
 7099TIP3    H245493   6.275   6.257   2.511 -1.3760 -1.3340 -0.0438
 7100TIP3   OH245494   5.441   4.032   1.171  0.1550  0.1142 -0.4366
 7100TIP3    H145495   5.498   3.971   1.125 -0.4082 -1.0918  0.4298
 7100TIP3    H245496   5.361   3.983   1.188 -0.5207  1.2607 -0.1705
 7101TIP3   OH245497   3.656   4.321   0.576  0.4600 -0.1036  0.0341
 7101TIP3    H145498   3.653   4.286   0.487  0.4519 -0.9954  0.3747
 7101TIP3    H245499   3.619   4.252   0.631  1.5830 -0.0720  0.8853
 7102TIP3   OH245500   5.443   4.245   2.301  0.2755  0.8240  0.4027
 7102TIP3    H145501   5.501   4.172   2.322 -0.1501 -0.0344 -1.2556
 7102TIP3    H245502   5.404   4.269   2.385  2.0164  0.5812  1.3412
 7103TIP3   OH245503   1.188   4.567   1.693  0.4524 -0.1631 -0.1659
 7103TIP3    H145504   1.131   4.639   1.719  1.2196 -0.2599  1.9435
 7103TIP3    H245505   1.235   4.542   1.773  1.8479 -1.5335 -1.3295
 7104TIP3   OH245506   2.500   1.371   1.958 -0.9886 -0.1758  0.6626
 7104TIP3    H145507   2.514   1.458   1.921 -0.5235 -1.5123 -2.5505
 7104TIP3    H245508   2.433   1.331   1.903 -0.6102 -2.1459  1.5366
 7105TIP3   OH245509   5.216   3.148   1.582 -0.0522  0.4340 -0.3454
 7105TIP3    H145510   5.194   3.057   1.564  0.3966 -0.0102  1.1664
 7105TIP3    H245511   5.304   3.159   1.545 -0.3671  0.4699 -1.1120
 7106TIP3   OH245512   5.539   3.824   0.919  0.1606  0.6174 -0.0342
 7106TIP3    H145513   5.577   3.785   0.840 -0.9030 -0.4154 -0.0733
 7106TIP3    H245514   5.452   3.854   0.892 -0.2750  0.1189  0.7616
 7107TIP3   OH245515   6.209   5.325   3.553  0.1126 -0.4699 -0.1042
 7107TIP3    H145516   6.249   5.243   3.582 -0.5931 -0.8843 -0.2675
 7107TIP3    H245517   6.136   5.339   3.613  0.9671  0.7143  0.7110
 7108TIP3   OH245518   3.167   3.094   2.945 -0.1679 -0.5819 -0.3504
 7108TIP3    H145519   3.235   3.028   2.955  0.2000 -0.6303 -2.5669
 7108TIP3    H245520   3.165   3.112   2.851 -2.7360 -0.0692 -0.2772
 7109TIP3   OH245521   5.113   1.423   3.386 -0.4174  0.1190  0.6179
 7109TIP3    H145522   5.203   1.432   3.354  0.1680 -0.6325  1.9307
 7109TIP3    H245523   5.095   1.505   3.431 -0.9804  0.8890 -0.9565
 7110TIP3   OH245524   3.822   5.086   2.201  0.4809 -0.4697  0.2195
 7110TIP3    H145525   3.869   5.014   2.158 -0.1825 -1.8798  1.7569
 7110TIP3    H245526   3.868   5.097   2.285 -0.3991 -0.1754  0.6691
 7111TIP3   OH245527   0.650   0.916   3.819  0.2331 -0.2771  0.3950
 7111TIP3    H145528   0.655   1.004   3.858 -0.2294 -0.1551  0.1885
 7111TIP3    H245529   0.578   0.874   3.867 -1.6261  0.5120 -1.5520
 7112TIP3   OH245530   5.837   5.373   3.137  0.2245 -0.7455 -0.2702
 7112TIP3    H145531   5.782   5.313   3.186  0.3590 -2.4261 -2.0202
 7112TIP3    H245532   5.910   5.319   3.106  1.7355  0.9184  0.1633
 7113TIP3   OH245533   6.057   0.585   1.458  0.5183 -0.1723  0.4446
 7113TIP3    H145534   6.107   0.637   1.395 -2.5451  0.3390 -1.7902
 7113TIP3    H245535   6.023   0.648   1.521  0.5533 -0.1476  0.4388
 7114TIP3   OH245536   3.587   5.257   2.951 -0.3795 -0.1344 -0.1243
 7114TIP3    H145537   3.522   5.191   2.925 -0.9299  0.1159  0.5752
 7114TIP3    H245538   3.544   5.341   2.935 -0.3666  0.0288  0.6600
 7115TIP3   OH245539   1.636   6.329   0.960  0.1688 -0.5515  0.2594
 7115TIP3    H145540   1.576   6.283   0.901 -1.0502  0.7723  0.3880
 7115TIP3    H245541   1.723   6.305   0.929 -0.4336 -0.7935 -1.3788
 7116TIP3   OH245542   2.398   3.419   1.779 -0.2503 -0.0714 -0.6796
 7116TIP3    H145543   2.482   3.456   1.752 -1.0492  2.6151  0.2433
 7116TIP3    H245544   2.341   3.431   1.703 -0.8017  1.6990 -0.0232
 7117TIP3   OH245545   6.579   1.116   1.179 -0.5825  0.5180 -0.1169
 7117TIP3    H145546   6.662   1.152   1.209 -0.2351 -1.2322  1.1863
 7117TIP3    H245547   6.513   1.162   1.230 -0.3054  0.7075  0.0717
 7118TIP3   OH245548   1.380   0.220   2.968 -0.6230  0.2484  0.2361
 7118TIP3    H145549   1.418   0.179   3.046  1.4973  0.5234 -0.6071
 7118TIP3    H245550   1.446   0.282   2.939 -1.4767  0.3161 -1.6777
 7119TIP3   OH245551   0.820   4.456   0.901 -0.2693 -0.0865  0.7318
 7119TIP3    H145552   0.738   4.407   0.906  0.1916 -0.7999  1.5125
 7119TIP3    H245553   0.874   4.418   0.970  1.3308 -0.7695 -0.8342
 7120TIP3   OH245554   5.758   6.504   1.393 -0.6441  0.1579 -0.1341
 7120TIP3    H145555   5.794   6.592   1.404  1.7975 -0.7324 -0.3943
 7120TIP3    H245556   5.752   6.492   1.299  0.8431 -0.5769 -0.1687
 7121TIP3   OH245557   3.657   1.649   3.047  0.4919  0.1749 -0.3533
 7121TIP3    H145558   3.707   1.583   2.999 -1.8080 -1.6937 -0.3925
 7121TIP3    H245559   3.706   1.661   3.129  1.9577 -0.1268 -1.1471
 7122TIP3   OH245560   2.924   4.342   3.891 -0.2538 -0.1070 -0.5631
 7122TIP3    H145561   2.858   4.277   3.869 -0.4305 -0.1432  0.0757
 7122TIP3    H245562   2.960   4.314   3.975  1.2327 -0.5974 -1.3190
 7123TIP3   OH245563   5.826   5.153   1.339  0.1880 -0.0402 -0.2644
 7123TIP3    H145564   5.794   5.154   1.430 -0.9769 -0.1466 -0.6543
 7123TIP3    H245565   5.783   5.228   1.298  0.4521 -0.1837 -0.8051
 7124TIP3   OH245566   2.944   3.754   0.622 -0.0989 -0.2240  0.3917
 7124TIP3    H145567   2.859   3.796   0.620 -0.0787 -0.1425  1.0586
 7124TIP3    H245568   2.931   3.675   0.675  0.2486 -0.1891  0.5329
 7125TIP3   OH245569   3.200   6.307   1.249  0.8345 -0.5623 -0.6236
 7125TIP3    H145570   3.234   6.234   1.196 -0.3049 -1.9821  0.5112
 7125TIP3    H245571   3.218   6.282   1.339  2.1975  1.5415 -0.2519
 7126TIP3   OH245572   0.310   1.887   3.158 -0.0629 -0.9024 -0.1743
 7126TIP3    H145573   0.289   1.921   3.071 -2.2457  0.8069  0.9178
 7126TIP3    H245574   0.261   1.943   3.218  2.1399 -1.3955  2.2612
 7127TIP3   OH245575   1.524   2.206   1.310 -0.8179 -0.2445 -0.0383
 7127TIP3    H145576   1.467   2.269   1.353 -0.5734 -0.2557  0.3089
 7127TIP3    H245577   1.507   2.123   1.354 -0.2968 -0.1804  0.2955
 7128TIP3   OH245578   4.372   3.845   1.643 -0.3965  0.2801 -1.1480
 7128TIP3    H145579   4.452   3.836   1.695 -1.2843  1.2633  0.4521
 7128TIP3    H245580   4.403   3.869   1.555  1.0998 -0.7814 -0.9525
 7129TIP3   OH245581   5.508   0.622   3.673 -0.7932  0.2820 -0.3119
 7129TIP3    H145582   5.446   0.549   3.672 -0.8151  0.2595  1.1902
 7129TIP3    H245583   5.594   0.580   3.682 -0.8545  0.4266  1.2676
 7130TIP3   OH245584   0.100   2.670   1.871  0.3354  0.1165 -0.2093
 7130TIP3    H145585   0.025   2.619   1.839 -0.2033  0.4967  0.4274
 7130TIP3    H245586   0.167   2.604   1.890 -0.5537 -0.4322  1.1405
 7131TIP3   OH245587   5.403   1.257   3.148  0.3119 -0.8174  0.0788
 7131TIP3    H145588   5.488   1.220   3.171 -0.1080 -2.4143 -0.8199
 7131TIP3    H245589   5.412   1.284   3.057 -0.0515 -0.7348  0.0656
 7132TIP3   OH245590   2.486   5.357   3.575 -0.3825  0.2992 -0.0224
 7132TIP3    H145591   2.581   5.362   3.565 -0.3884  0.2683 -0.1001
 7132TIP3    H245592   2.471   5.269   3.611 -0.3276  0.5768  0.6851
 7133TIP3   OH245593   2.915   4.439   3.398  0.0393  0.5099 -0.1953
 7133TIP3    H145594   2.869   4.518   3.372  0.0817  0.6440  0.1284
 7133TIP3    H245595   2.978   4.423   3.328  0.2287  0.9242 -0.1221
 7134TIP3   OH245596   2.327   6.744   1.126 -0.1616 -0.0861  0.2869
 7134TIP3    H145597   2.257   6.678   1.126 -0.8749  0.6644  0.5200
 7134TIP3    H245598   2.381   6.721   1.050 -2.3055  1.0486 -1.6876
 7135TIP3   OH245599   2.905   2.038   3.691  0.1752  1.0302 -0.4783
 7135TIP3    H145600   2.867   2.068   3.608 -1.0526 -0.9557 -0.6946
 7135TIP3    H245601   2.843   2.068   3.757  0.0145  0.7341 -0.4946
 7136TIP3   OH245602   1.016   4.129   0.605  0.0977  0.2069  0.1790
 7136TIP3    H145603   0.962   4.137   0.527 -0.2949  2.0774  0.6045
 7136TIP3    H245604   1.039   4.036   0.609 -1.3871 -0.2514 -1.1324
 7137TIP3   OH245605   4.184   0.634   3.537 -0.0723 -0.6808 -0.3648
 7137TIP3    H145606   4.227   0.653   3.453  0.3551 -1.9389 -0.4530
 7137TIP3    H245607   4.245   0.667   3.603 -1.2441  2.0267 -0.5165
 7138TIP3   OH245608   2.361   0.281   3.322  0.2572  0.0127 -0.1406
 7138TIP3    H145609   2.451   0.301   3.348  0.4586  0.7027 -1.3070
 7138TIP3    H245610   2.307   0.340   3.375  0.5743  0.4382 -0.2878
 7139TIP3   OH245611   5.954   2.539   2.770 -0.1980 -0.2159  0.2430
 7139TIP3    H145612   5.872   2.488   2.772 -0.5979  0.3125 -1.5574
 7139TIP3    H245613   5.955   2.579   2.684  3.0325 -1.9336 -0.6605
 7140TIP3   OH245614   2.802   0.801   0.317  0.1187  0.2929 -0.3351
 7140TIP3    H145615   2.853   0.881   0.331  0.6933 -0.2297  0.6410
 7140TIP3    H245616   2.775   0.774   0.404  1.3120 -1.4740 -0.4689
 7141TIP3   OH245617   4.607   5.339   3.006 -0.3116  0.0103 -0.6258
 7141TIP3    H145618   4.529   5.283   3.009 -1.3845  1.4682 -0.3334
 7141TIP3    H245619   4.606   5.377   2.918  0.3879 -0.3745 -0.8079
 7142TIP3   OH245620   1.257   2.857   2.195 -0.2944  0.3219  0.3895
 7142TIP3    H145621   1.287   2.803   2.122 -0.5150  0.5819  0.1014
 7142TIP3    H245622   1.190   2.913   2.156 -0.6693  0.2154  0.8708
 7143TIP3   OH245623   4.793   5.127   0.602 -0.0997 -0.3904  0.4091
 7143TIP3    H145624   4.793   5.113   0.696 -2.5120 -1.1599  0.3407
 7143TIP3    H245625   4.778   5.040   0.564  0.2876 -0.0077 -0.6766
 7144TIP3   OH245626   2.784   2.329   3.131  0.3830 -0.3104 -0.1483
 7144TIP3    H145627   2.818   2.409   3.173 -1.3265 -0.3708  1.4239
 7144TIP3    H245628   2.737   2.362   3.054  1.4260  0.0015 -0.6781
 7145TIP3   OH245629   3.945   4.982   0.751 -0.3201 -0.2942 -0.1063
 7145TIP3    H145630   4.008   4.939   0.692  0.6499  0.7781  0.1113
 7145TIP3    H245631   3.971   4.954   0.838 -1.4748 -1.5123 -0.1105
 7146TIP3   OH245632   2.900   6.264   2.693 -0.5487 -0.2947  0.1257
 7146TIP3    H145633   2.851   6.229   2.767 -1.8196 -1.4588 -1.1955
 7146TIP3    H245634   2.850   6.237   2.616  0.6807  0.9284 -1.1744
 7147TIP3   OH245635   3.836   5.086   1.244  0.4492  0.6786 -0.1116
 7147TIP3    H145636   3.910   5.052   1.193  0.5204  0.4159  0.1686
 7147TIP3    H245637   3.875   5.117   1.325 -0.1314 -2.4819  1.5039
 7148TIP3   OH245638   2.175   1.928   2.267  0.3798  0.1026 -0.2803
 7148TIP3    H145639   2.212   2.013   2.245 -0.5129  0.9956  1.4592
 7148TIP3    H245640   2.250   1.877   2.298  0.7096  0.7336 -0.0148
 7149TIP3   OH245641   3.076   1.655   2.099  0.1317  0.1805 -0.3111
 7149TIP3    H145642   3.039   1.744   2.096 -0.8268 -0.1448  0.7941
 7149TIP3    H245643   3.141   1.660   2.169 -0.1137 -0.0499 -0.0656
 7150TIP3   OH245644   3.357   6.263   2.576  0.2107 -0.6956 -0.4043
 7150TIP3    H145645   3.261   6.269   2.575  0.2604  0.9629  0.2439
 7150TIP3    H245646   3.381   6.303   2.660  1.4310 -2.1221 -0.0513
 7151TIP3   OH245647   5.923   2.271   0.489  0.2390 -0.1607  0.2554
 7151TIP3    H145648   5.989   2.203   0.500 -0.8385 -0.8963  3.1360
 7151TIP3    H245649   5.968   2.352   0.509  0.9332 -0.2902 -0.7160
 7152TIP3   OH245650   5.720   1.002   2.619 -0.1260 -0.0426 -0.0991
 7152TIP3    H145651   5.719   0.947   2.541  0.0467 -0.2569  0.0504
 7152TIP3    H245652   5.812   1.023   2.632 -0.2613  0.9639 -0.6337
 7153TIP3   OH245653   3.599   3.391   3.764  0.2847  0.3400 -0.5384
 7153TIP3    H145654   3.567   3.369   3.676 -1.9208 -1.8058  0.6891
 7153TIP3    H245655   3.647   3.313   3.792  0.0980  0.5950  0.5354
 7154TIP3   OH245656   2.802   0.032   4.055 -0.2733 -0.4841  0.1651
 7154TIP3    H145657   2.740   0.100   4.079  0.4708  0.6133 -0.8871
 7154TIP3    H245658   2.772   0.001   3.970  1.1948  0.8552 -0.8988
 7155TIP3   OH245659   5.682   6.209   3.149  0.6123  0.4543 -0.1047
 7155TIP3    H145660   5.770   6.246   3.139  0.3229  1.3289  0.5222
 7155TIP3    H245661   5.678   6.139   3.083  2.5274 -1.0621  1.2636
 7156TIP3   OH245662   4.743   1.969   3.226  0.0418 -0.2647 -0.1507
 7156TIP3    H145663   4.823   1.951   3.178 -0.3616 -1.5465 -0.3845
 7156TIP3    H245664   4.771   2.019   3.303  1.2279 -1.6903  0.3752
 7157TIP3   OH245665   1.688   5.000   1.820  0.5653 -0.4995  0.0478
 7157TIP3    H145666   1.600   5.035   1.807  1.0592  0.3116 -1.1909
 7157TIP3    H245667   1.708   5.020   1.912  0.3746  1.4544 -0.2947
 7158TIP3   OH245668   4.637   4.272   0.642  0.8937  0.6439  0.3915
 7158TIP3    H145669   4.648   4.226   0.559  2.2815  1.7929 -0.0947
 7158TIP3    H245670   4.579   4.215   0.693 -0.7776  0.3825 -1.6803
 7159TIP3   OH245671   2.084   0.054   1.866  0.6786  0.4572 -0.3387
 7159TIP3    H145672   2.074  -0.039   1.886  0.1349  0.0725 -2.2128
 7159TIP3    H245673   2.041   0.065   1.781  0.9359  2.3815 -0.2609
 7160TIP3   OH245674   3.705   4.977   1.819  0.2507 -0.4281  0.7372
 7160TIP3    H145675   3.709   4.940   1.731  0.4890 -1.4295  1.1543
 7160TIP3    H245676   3.614   5.005   1.829  0.7197  1.7944 -0.6353
 7161TIP3   OH245677   5.980   6.600   2.983  0.0322  0.0089  0.0092
 7161TIP3    H145678   6.059   6.591   3.035 -0.3962 -0.2719  0.6179
 7161TIP3    H245679   6.011   6.600   2.892  0.7404  0.0932  0.2463
 7162TIP3   OH245680   3.912   5.667   4.006 -0.1757 -0.1644 -0.2098
 7162TIP3    H145681   4.000   5.695   4.028 -0.2712  1.6324 -1.8063
 7162TIP3    H245682   3.871   5.645   4.090  1.0596  1.2091  0.7876
 7163TIP3   OH245683   2.715   3.355   1.591  0.1167 -0.2314 -0.0340
 7163TIP3    H145684   2.674   3.271   1.570  1.7352 -1.4764  1.4966
 7163TIP3    H245685   2.791   3.361   1.533 -0.1639  0.3296 -0.3523
 7164TIP3   OH245686   4.550   0.464   0.737 -0.0682 -0.3712 -0.1694
 7164TIP3    H145687   4.523   0.418   0.817 -0.3068 -0.6708 -0.4235
 7164TIP3    H245688   4.471   0.510   0.708  0.5957  1.7577  1.1151
 7165TIP3   OH245689   3.007   4.388   1.598  0.3229 -0.3713  0.1452
 7165TIP3    H145690   3.024   4.468   1.648 -3.5153  0.5880  0.2383
 7165TIP3    H245691   3.039   4.408   1.510  0.8712  0.6450  0.5566
 7166TIP3   OH245692   5.331   2.558   1.254 -0.0441  0.2865  0.2969
 7166TIP3    H145693   5.420   2.589   1.273 -0.5360  1.0568  1.4408
 7166TIP3    H245694   5.310   2.500   1.327 -0.4816  0.0905  0.0176
 7167TIP3   OH245695   1.560   0.903   2.309 -0.8212  1.1257 -0.2116
 7167TIP3    H145696   1.503   0.843   2.261 -1.8330 -0.2909  2.5111
 7167TIP3    H245697   1.526   0.990   2.289 -2.1094  0.4909 -0.9388
 7168TIP3   OH245698   1.691   4.914   3.682  0.6541  0.2852  0.2438
 7168TIP3    H145699   1.734   4.907   3.597  1.5972 -0.5141  0.7781
 7168TIP3    H245700   1.706   4.830   3.724 -0.6798  0.3029  0.8124
 7169TIP3   OH245701   4.455   1.729   2.325  0.2576  0.6739  0.1545
 7169TIP3    H145702   4.541   1.694   2.348  0.4745 -0.1498 -1.7619
 7169TIP3    H245703   4.395   1.686   2.386  0.8626 -0.9774 -0.3573
 7170TIP3   OH245704   3.439   6.112   1.469  0.3438  0.1509 -0.2552
 7170TIP3    H145705   3.347   6.133   1.486  0.7538  2.2504 -0.2668
 7170TIP3    H245706   3.455   6.032   1.518 -0.6442  1.5364  2.5785
 7171TIP3   OH245707   6.406   5.914   1.680  0.3227  0.0595  0.1077
 7171TIP3    H145708   6.488   5.887   1.721  0.0950 -0.1599  0.4352
 7171TIP3    H245709   6.420   5.900   1.587  0.9825  0.9276  0.0648
 7172TIP3   OH245710   3.120   1.236   2.666 -0.3244  0.0446  0.7707
 7172TIP3    H145711   3.168   1.260   2.586 -0.5938  0.0499  0.6089
 7172TIP3    H245712   3.039   1.197   2.634 -0.2718 -0.2917  1.0428
 7173TIP3   OH245713   3.077   5.003   2.989 -0.0628 -1.1097  0.0139
 7173TIP3    H145714   3.042   4.975   2.905 -1.1306 -1.8392  0.6810
 7173TIP3    H245715   3.006   4.989   3.051 -0.1633  1.6426  0.6774
 7174TIP3   OH245716   6.665   0.776   2.775 -0.4308  0.6927  0.4188
 7174TIP3    H145717   6.665   0.865   2.740 -0.9434  0.4094 -0.3458
 7174TIP3    H245718   6.710   0.782   2.859  1.4352  1.2936 -0.5790
 7175TIP3   OH245719   3.988   6.363   2.178  0.0627  0.0332  0.1212
 7175TIP3    H145720   4.059   6.423   2.155 -0.4477  0.8070  0.5214
 7175TIP3    H245721   3.985   6.300   2.106 -0.0567  1.0900 -0.8263
 7176TIP3   OH245722   2.700   4.270   2.778 -0.2044 -0.5481  0.2664
 7176TIP3    H145723   2.749   4.244   2.701 -0.1594 -1.7763  0.6929
 7176TIP3    H245724   2.757   4.332   2.823 -0.0546 -0.1529 -0.4552
 7177TIP3   OH245725   5.473   0.531   1.232  0.6246  0.8100 -0.0868
 7177TIP3    H145726   5.485   0.585   1.154 -0.3441  1.2283  0.0466
 7177TIP3    H245727   5.536   0.460   1.221  0.5347  0.8881 -1.2258
 7178TIP3   OH245728   1.308   3.199   1.891 -0.0065  0.2303 -0.1197
 7178TIP3    H145729   1.222   3.162   1.913  0.2626  0.7664  2.0266
 7178TIP3    H245730   1.370   3.150   1.946  0.9182  0.6600 -0.7618
 7179TIP3   OH245731   2.739   2.529   1.643 -0.1590  0.2622  0.2325
 7179TIP3    H145732   2.687   2.530   1.724  1.1825  0.2146  1.1194
 7179TIP3    H245733   2.822   2.489   1.669  0.4616  0.6731 -1.0729
 7180TIP3   OH245734   6.090   0.237   1.527 -0.0595 -0.0041  0.1436
 7180TIP3    H145735   6.182   0.248   1.506  0.5194 -1.1366  1.8214
 7180TIP3    H245736   6.043   0.290   1.463  1.7959  1.4041 -0.1075
 7181TIP3   OH245737   3.368   0.516   3.769 -0.5232 -0.4668  0.7114
 7181TIP3    H145738   3.323   0.470   3.698 -1.7874  1.4095  0.1924
 7181TIP3    H245739   3.313   0.502   3.846 -1.4721  0.8980  0.3288
 7182TIP3   OH245740   4.973   2.317   0.513 -0.4296 -0.0056 -0.2131
 7182TIP3    H145741   5.066   2.328   0.535 -0.1769  3.7300 -2.3395
 7182TIP3    H245742   4.974   2.251   0.443  0.8180  0.9308 -1.1243
 7183TIP3   OH245743   1.146   6.497   2.993  0.2652  0.2592  0.2051
 7183TIP3    H145744   1.203   6.572   2.977  0.4641  0.1767  0.5111
 7183TIP3    H245745   1.064   6.518   2.948  0.5062  0.4192 -0.1621
 7184TIP3   OH245746   6.530   6.294   3.417 -0.1016  0.2568  0.2626
 7184TIP3    H145747   6.535   6.344   3.335 -0.7003 -0.8774 -0.4865
 7184TIP3    H245748   6.614   6.248   3.423 -0.8769 -1.4126 -0.9038
 7185TIP3   OH245749   6.523   1.446   3.664 -0.1746  0.0123 -0.1941
 7185TIP3    H145750   6.460   1.516   3.648 -0.2846 -0.0932 -0.2250
 7185TIP3    H245751   6.474   1.365   3.649  0.1020 -0.0670 -0.7247
 7186TIP3   OH245752   6.596   3.479   2.998 -0.1553 -0.0650 -0.2879
 7186TIP3    H145753   6.631   3.448   2.915  2.1867  2.5233 -0.4537
 7186TIP3    H245754   6.523   3.536   2.975 -0.5625 -0.6522 -0.4430
 7187TIP3   OH245755   5.013   4.456   2.892  0.0630  0.0216  0.9398
 7187TIP3    H145756   5.034   4.364   2.902  0.3513 -0.2110 -1.2872
 7187TIP3    H245757   5.062   4.500   2.961 -0.2390 -1.4709  2.1719
 7188TIP3   OH245758   2.423   0.534   2.322  0.4848 -0.3548 -0.0986
 7188TIP3    H145759   2.512   0.517   2.355  0.5057 -0.1753 -0.0632
 7188TIP3    H245760   2.395   0.450   2.284  0.0056 -0.9391  1.4389
 7189TIP3   OH245761   5.397   3.711   2.936 -0.2097 -0.1484 -0.2257
 7189TIP3    H145762   5.491   3.697   2.922 -0.1696 -0.6638  0.4963
 7189TIP3    H245763   5.371   3.773   2.867  0.4135 -0.8893 -1.1486
 7190TIP3   OH245764   5.320   6.489   1.232 -0.1196  0.4851 -0.1875
 7190TIP3    H145765   5.363   6.441   1.303  0.1246  1.0635  0.0655
 7190TIP3    H245766   5.236   6.517   1.269 -0.8855 -0.9343 -0.7917
 7191TIP3   OH245767   2.908   0.150   1.079 -0.3049 -0.3569 -0.3069
 7191TIP3    H145768   2.872   0.125   0.994 -1.5445 -2.0729  0.6490
 7191TIP3    H245769   2.999   0.119   1.076 -0.5286 -0.9894 -0.7817
 7192TIP3   OH245770   6.494   2.597   3.124  0.3779 -0.2759  0.2757
 7192TIP3    H145771   6.517   2.685   3.154  0.6969 -0.3356  0.1986
 7192TIP3    H245772   6.435   2.564   3.192  2.0816 -0.8926  1.5044
 7193TIP3   OH245773   5.685   2.628   0.795  0.0530 -0.2856 -0.3341
 7193TIP3    H145774   5.648   2.622   0.883  1.0616 -4.6455  0.0340
 7193TIP3    H245775   5.780   2.631   0.809  0.4045 -3.6612 -1.0510
 7194TIP3   OH245776   4.516   1.553   0.766 -0.2937  0.9234  0.1003
 7194TIP3    H145777   4.511   1.647   0.784 -0.0898  0.9444  0.0526
 7194TIP3    H245778   4.429   1.530   0.734 -0.5846  0.9312  0.8649
 7195TIP3   OH245779   3.274   3.348   2.451  0.0509 -0.0411 -0.0978
 7195TIP3    H145780   3.240   3.413   2.390  0.0150 -0.5168 -0.5866
 7195TIP3    H245781   3.274   3.393   2.536  0.7914  0.8627 -0.5660
 7196TIP3   OH245782   3.288   4.020   2.750  0.1570  0.0598 -0.0060
 7196TIP3    H145783   3.358   4.043   2.689  0.7479  0.7190  0.8832
 7196TIP3    H245784   3.318   3.940   2.793 -0.4680 -0.6664 -0.8749
 7197TIP3   OH245785   5.421   1.486   1.085 -0.0048  0.3571 -0.0215
 7197TIP3    H145786   5.354   1.430   1.047 -0.0603  0.1010  0.4526
 7197TIP3    H245787   5.482   1.426   1.128 -0.7729  0.7077  1.6322
 7198TIP3   OH245788   4.448   6.388   1.441  0.2105  0.2775  0.2150
 7198TIP3    H145789   4.503   6.422   1.512 -0.4796  1.9211  0.0124
 7198TIP3    H245790   4.463   6.449   1.368  2.3621 -2.3875 -1.7874
 7199TIP3   OH245791   3.040   2.919   3.773 -1.0573  0.2946  0.3756
 7199TIP3    H145792   3.061   2.935   3.680  0.0219  2.4561  0.9190
 7199TIP3    H245793   2.952   2.955   3.784 -1.9251 -1.5664 -0.1560
 7200TIP3   OH245794   4.120   3.555   1.088 -0.0774 -0.1496 -0.5099
 7200TIP3    H145795   4.173   3.633   1.107 -0.2821 -0.1969  0.2543
 7200TIP3    H245796   4.184   3.485   1.074  0.0653 -0.4356  1.3889
 7201TIP3   OH245797   4.914   3.575   2.850 -0.5123 -0.4203 -0.1294
 7201TIP3    H145798   4.846   3.633   2.813 -1.0207  0.8068  2.5062
 7201TIP3    H245799   4.865   3.502   2.887 -0.2415 -0.3425  0.3781
 7202TIP3   OH245800   2.684   5.646   1.381  0.7819  0.1693 -0.3303
 7202TIP3    H145801   2.681   5.679   1.291 -0.4250  0.0862 -0.3434
 7202TIP3    H245802   2.594   5.619   1.399  1.4140 -1.8771  0.1335
 7203TIP3   OH245803   4.408   6.402   0.534  0.2317 -0.0226  0.3965
 7203TIP3    H145804   4.493   6.358   0.538 -1.1364 -2.8285  1.4895
 7203TIP3    H245805   4.355   6.356   0.599 -2.2131  1.4697 -0.4322
 7204TIP3   OH245806   5.886   6.115   1.623  0.1121  0.0926 -0.2557
 7204TIP3    H145807   5.850   6.200   1.595 -3.4012 -0.9724  0.5776
 7204TIP3    H245808   5.931   6.135   1.705 -0.3605  1.2056 -0.2376
 7205TIP3   OH245809   1.952   1.017   0.749  0.0289 -0.7019  0.1545
 7205TIP3    H145810   1.996   0.932   0.756 -0.1415 -0.9737 -1.6212
 7205TIP3    H245811   1.994   1.060   0.674 -1.5235 -0.2466 -0.4937
 7206TIP3   OH245812   5.400   2.209   0.925  0.1336  0.1414 -0.1006
 7206TIP3    H145813   5.388   2.292   0.879  0.5688 -0.9266 -2.2511
 7206TIP3    H245814   5.462   2.229   0.995 -1.0070  1.9458  0.4623
 7207TIP3   OH245815   0.873   3.615   0.627  0.3935  0.2719 -0.1990
 7207TIP3    H145816   0.879   3.643   0.536 -1.3813  1.8283  0.1130
 7207TIP3    H245817   0.828   3.530   0.624  0.5926  0.1867 -0.7797
 7208TIP3   OH245818   4.799   2.367   1.853 -0.2864  0.2627  0.5733
 7208TIP3    H145819   4.812   2.273   1.860 -1.3410  0.1998  1.9386
 7208TIP3    H245820   4.876   2.405   1.896  0.2985  0.0483 -0.2591
 7209TIP3   OH245821   3.059   3.341   1.617 -0.3873  0.2227  0.4014
 7209TIP3    H145822   3.059   3.248   1.641  1.4978 -0.4491 -1.8389
 7209TIP3    H245823   2.976   3.354   1.571 -1.4554  0.1378  2.2280
 7210TIP3   OH245824   0.389   2.106   1.181  0.6426 -0.1318 -0.0154
 7210TIP3    H145825   0.389   2.029   1.238 -2.5219 -0.9474 -0.9229
 7210TIP3    H245826   0.392   2.181   1.241 -1.7036 -0.9795  1.2816
 7211TIP3   OH245827   3.487   4.367   2.820  0.5429 -0.5711  0.4240
 7211TIP3    H145828   3.541   4.435   2.859  0.4750  0.0106 -0.4768
 7211TIP3    H245829   3.478   4.301   2.890  2.0122 -0.4715  0.7426
 7212TIP3   OH245830   0.573   2.817   3.068  0.2229  0.1669  0.1121
 7212TIP3    H145831   0.614   2.815   3.154  0.8575 -0.5385 -0.1898
 7212TIP3    H245832   0.563   2.724   3.044 -1.0063  0.3314 -0.0834
 7213TIP3   OH245833   3.254   2.507   0.472  0.1253  0.2229  0.8148
 7213TIP3    H145834   3.203   2.582   0.500 -0.3064 -0.6855  2.5903
 7213TIP3    H245835   3.303   2.480   0.550  0.0915 -1.4744  0.2984
 7214TIP3   OH245836   4.139   1.962   3.549  0.7086  0.4528 -0.4002
 7214TIP3    H145837   4.151   2.007   3.466  3.6959 -2.3134 -1.6620
 7214TIP3    H245838   4.045   1.945   3.554  0.0528  3.1229 -1.7433
 7215TIP3   OH245839   3.951   6.381   2.868 -0.9832 -0.4461 -0.2281
 7215TIP3    H145840   3.971   6.408   2.957  0.1886 -2.2667  0.1112
 7215TIP3    H245841   3.927   6.288   2.876 -1.4806 -0.4755 -1.7317
 7216TIP3   OH245842   5.068   2.851   2.474  0.8686 -0.1156  0.2643
 7216TIP3    H145843   5.123   2.855   2.553 -1.1265  0.8727  1.6745
 7216TIP3    H245844   5.005   2.782   2.493  0.8166 -0.3749 -0.8090
 7217TIP3   OH245845   6.583   4.612   3.201  0.5412  0.3720  0.2529
 7217TIP3    H145846   6.528   4.637   3.275  1.3895  0.5761  0.8180
 7217TIP3    H245847   6.594   4.518   3.209 -1.5702 -0.0765 -1.1433
 7218TIP3   OH245848   4.213   1.891   3.934 -0.7244 -0.1135 -0.0534
 7218TIP3    H145849   4.234   1.979   3.965 -0.1661 -0.5247  0.7700
 7218TIP3    H245850   4.296   1.858   3.900 -0.7855 -0.5654  0.2399
 7219TIP3   OH245851   6.303   6.328   3.584 -0.6627 -0.0310 -0.5159
 7219TIP3    H145852   6.275   6.237   3.594 -0.2001 -0.0420  0.7542
 7219TIP3    H245853   6.383   6.323   3.531 -0.2661 -0.4204  0.1175
 7220TIP3   OH245854   1.130   4.527   3.233 -0.6783 -0.6961 -0.5844
 7220TIP3    H145855   1.133   4.579   3.313  1.8060 -1.0849 -0.3439
 7220TIP3    H245856   1.060   4.463   3.248 -0.9932 -0.0612  0.8126
 7221TIP3   OH245857   2.327   4.507   2.127  0.1964  0.2355  0.3163
 7221TIP3    H145858   2.331   4.539   2.037  1.4100  0.9538  0.6008
 7221TIP3    H245859   2.289   4.579   2.177  0.2278  0.1271  0.4968
 7222TIP3   OH245860   5.882   0.262   4.126  0.3670  0.1022 -0.2677
 7222TIP3    H145861   5.817   0.305   4.072  0.1394 -0.7673 -0.6991
 7222TIP3    H245862   5.929   0.334   4.169  1.2125  0.8671 -2.3558
 7223TIP3   OH245863   2.711   2.631   0.830 -0.3439 -0.3849 -0.7308
 7223TIP3    H145864   2.804   2.637   0.851 -0.5886 -0.4761  0.4289
 7223TIP3    H245865   2.709   2.607   0.737  0.7632  2.3136 -1.5634
 7224TIP3   OH245866   1.321   0.212   1.004 -0.1456 -0.0817 -0.0839
 7224TIP3    H145867   1.355   0.162   0.930  0.1071  0.6508 -0.4722
 7224TIP3    H245868   1.226   0.212   0.991 -0.2106 -1.0875  0.3292
 7225TIP3   OH245869   0.016   3.287   1.830 -0.0407 -0.4940 -0.0383
 7225TIP3    H145870   0.028   3.220   1.763 -1.9942  0.1316 -1.0781
 7225TIP3    H245871  -0.074   3.275   1.861  0.5701 -0.2928  1.9990
 7226TIP3   OH245872   2.304   1.826   3.762 -0.4684 -0.2903 -0.0647
 7226TIP3    H145873   2.234   1.890   3.752 -0.7728 -0.1454  2.2799
 7226TIP3    H245874   2.383   1.879   3.778 -0.7436 -0.4103  2.0052
 7227TIP3   OH245875   2.670   2.503   4.203 -0.3604  0.2650 -0.0100
 7227TIP3    H145876   2.693   2.414   4.177 -0.1977 -0.1003  1.3259
 7227TIP3    H245877   2.752   2.552   4.196 -0.0990 -0.0544  0.6947
 7228TIP3   OH245878   3.159   2.935   1.316 -0.1782  0.3659  0.6301
 7228TIP3    H145879   3.234   2.984   1.283 -0.9281  1.8716  1.0718
 7228TIP3    H245880   3.181   2.914   1.407  0.4999 -0.9115  0.1982
 7229TIP3   OH245881   1.341   4.323   3.908  0.4518 -0.0213  0.0877
 7229TIP3    H145882   1.431   4.308   3.880  1.1627  1.0099  1.6439
 7229TIP3    H245883   1.332   4.419   3.909  0.0073 -0.0482  1.8179
 7230TIP3   OH245884   2.072   6.173   1.965  0.3643  0.1484 -0.0588
 7230TIP3    H145885   2.137   6.225   1.918 -0.0778 -0.3303 -1.2319
 7230TIP3    H245886   2.122   6.121   2.027  1.0055  0.4503 -0.3202
 7231TIP3   OH245887   3.972   2.255   0.520  0.2256 -0.3093 -0.6256
 7231TIP3    H145888   4.050   2.308   0.537 -1.1577  1.2412  1.2575
 7231TIP3    H245889   3.911   2.314   0.477 -0.4510 -1.0954 -0.7779
 7232TIP3   OH245890   4.791   6.667   2.205 -0.5747  0.0920 -0.4982
 7232TIP3    H145891   4.877   6.697   2.174  0.7170 -0.6185  2.0718
 7232TIP3    H245892   4.802   6.572   2.215 -0.6265  0.3071  2.5134
 7233TIP3   OH245893   3.842   2.546   0.437  0.0229 -0.1423 -0.2658
 7233TIP3    H145894   3.748   2.548   0.456  0.5906  1.4564  3.1523
 7233TIP3    H245895   3.874   2.631   0.468  2.3885  0.1234 -3.0577
 7234TIP3   OH245896   5.538   6.408   4.050 -0.2588  0.2007  0.2387
 7234TIP3    H145897   5.476   6.475   4.081  0.6869  0.1429  2.4517
 7234TIP3    H245898   5.497   6.325   4.074 -0.3708  0.0621 -0.4168
 7235TIP3   OH245899   6.233   0.439   1.992 -0.1074  0.4521 -0.5074
 7235TIP3    H145900   6.183   0.381   1.934  2.3170 -2.7169  0.3179
 7235TIP3    H245901   6.315   0.455   1.945  0.0397  1.7085  0.1292
 7236TIP3   OH245902   1.150   4.612   0.799  0.0957  0.0713  0.0749
 7236TIP3    H145903   1.084   4.668   0.757  0.5068  1.3697  1.0869
 7236TIP3    H245904   1.111   4.525   0.797 -1.8642  0.8485  0.9851
 7237TIP3   OH245905   0.993   6.643   1.729 -0.4122 -0.2343  0.5662
 7237TIP3    H145906   0.939   6.585   1.674 -0.3354 -0.6480  0.9174
 7237TIP3    H245907   0.947   6.726   1.729  0.2686  0.1791 -1.2161
 7238TIP3   OH245908   4.516   3.707   3.649 -0.0318  0.1969  0.5242
 7238TIP3    H145909   4.477   3.793   3.663 -0.7016 -0.1844  1.0829
 7238TIP3    H245910   4.459   3.664   3.586 -0.0939 -0.0904  0.7737
 7239TIP3   OH245911   0.290   5.496   1.974  0.0800 -0.3470  0.5276
 7239TIP3    H145912   0.316   5.506   1.882  1.6655  0.9853  1.0804
 7239TIP3    H245913   0.253   5.407   1.979 -1.2630  0.0125 -1.6469
 7240TIP3   OH245914   0.490   0.123   1.542 -0.7718  0.8388  0.2600
 7240TIP3    H145915   0.451   0.096   1.459  0.0617 -3.5932  1.0541
 7240TIP3    H245916   0.572   0.165   1.518 -0.1880 -1.0107 -1.2508
 7241TIP3   OH245917   5.819   6.380   1.649 -0.0744  0.1995  0.3519
 7241TIP3    H145918   5.774   6.406   1.569  1.0999  0.8511 -0.1230
 7241TIP3    H245919   5.850   6.463   1.687  0.5540 -0.2115  0.7625
 7242TIP3   OH245920   5.398   3.078   1.178  0.2181  0.1488  0.2259
 7242TIP3    H145921   5.351   3.131   1.114  1.1441  0.7478  0.0086
 7242TIP3    H245922   5.367   2.989   1.164 -2.2345  0.7342  1.3648
 7243TIP3   OH245923   4.987   0.765   1.137  0.6107  0.7072  0.4882
 7243TIP3    H145924   5.071   0.719   1.142  1.0071  1.1886 -1.2385
 7243TIP3    H245925   4.972   0.797   1.226  1.2037 -1.1777  1.3169
 7244TIP3   OH245926   0.757   3.644   2.700 -0.0016  0.0474  0.4593
 7244TIP3    H145927   0.711   3.683   2.626  1.7690  0.1328 -0.6625
 7244TIP3    H245928   0.700   3.573   2.729  0.9799 -2.8068 -3.6976
 7245TIP3   OH245929   0.242   0.230   0.367 -0.3670  0.0307 -0.5959
 7245TIP3    H145930   0.250   0.312   0.416 -0.8244 -0.3956  0.2134
 7245TIP3    H245931   0.331   0.195   0.364 -0.2022  0.4533 -0.7784
 7246TIP3   OH245932   6.086   5.274   0.933 -0.4318  0.0262 -0.6463
 7246TIP3    H145933   6.170   5.315   0.912 -0.7147  0.2256 -1.4235
 7246TIP3    H245934   6.106   5.180   0.938  0.4661  0.2938  2.3854
 7247TIP3   OH245935   0.028   6.234   3.037  0.2713 -0.4946  0.2021
 7247TIP3    H145936   0.017   6.151   2.991 -0.9457  0.6992 -1.7876
 7247TIP3    H245937   0.020   6.212   3.130  1.9735 -2.8575 -0.1255
 7248TIP3   OH245938   3.742   0.288   2.201 -0.5352  0.0520  0.2921
 7248TIP3    H145939   3.660   0.301   2.153  0.0963 -0.5800 -1.0280
 7248TIP3    H245940   3.798   0.360   2.170 -0.2678 -0.0987  0.4328
 7249TIP3   OH245941   5.062   2.981   0.670  0.2233  0.3624 -0.4618
 7249TIP3    H145942   5.088   3.071   0.691 -1.1187  0.8552 -0.8277
 7249TIP3    H245943   5.145   2.935   0.658  0.9482  1.3899  0.3588
 7250TIP3   OH245944   2.160   4.195   1.069  0.8146  0.1594  0.1125
 7250TIP3    H145945   2.104   4.210   1.145  1.6418 -2.4055  1.3242
 7250TIP3    H245946   2.240   4.243   1.088  0.2468  1.2616 -0.1753
 7251TIP3   OH245947   6.056   5.567   1.791 -0.4738  0.4275  0.2556
 7251TIP3    H145948   6.078   5.475   1.810 -0.3395  0.8769  2.5945
 7251TIP3    H245949   6.079   5.578   1.699  1.1479 -1.4302  0.3621
 7252TIP3   OH245950   1.802   1.355   2.161  0.4065 -0.5410 -0.4218
 7252TIP3    H145951   1.745   1.329   2.233  0.1715  1.1445  0.0335
 7252TIP3    H245952   1.849   1.275   2.137 -1.5969 -1.8109 -0.3207
 7253TIP3   OH245953   0.606   0.320   2.857 -0.0232  0.3535  0.6599
 7253TIP3    H145954   0.581   0.390   2.917 -0.1939 -0.7655  1.9634
 7253TIP3    H245955   0.700   0.329   2.847  0.0300  0.4765  1.2187
 7254TIP3   OH245956   2.086   6.285   2.617  0.2199  0.4771  0.1934
 7254TIP3    H145957   1.991   6.289   2.622  0.1090 -1.8637  1.1864
 7254TIP3    H245958   2.108   6.331   2.536 -2.0366 -1.7754 -1.8725
 7255TIP3   OH245959   0.403   3.262   1.137  0.4351  0.2877  0.6082
 7255TIP3    H145960   0.403   3.221   1.224  0.6110 -2.1185 -0.4512
 7255TIP3    H245961   0.390   3.189   1.076 -1.4707  2.0950 -1.3336
 7256TIP3   OH245962   0.879   0.322   2.358  0.4464  0.5515  0.3257
 7256TIP3    H145963   0.836   0.246   2.321  0.0792  0.7034  0.4413
 7256TIP3    H245964   0.827   0.346   2.434  1.7690 -0.3741  1.5752
 7257TIP3   OH245965   0.724   5.116   2.103 -0.0655  0.7433  0.2482
 7257TIP3    H145966   0.774   5.196   2.119 -0.9672  1.1861  0.9257
 7257TIP3    H245967   0.704   5.082   2.191 -1.0765  0.6598 -0.0055
 7258TIP3   OH245968   4.784   3.484   2.440  0.0351  0.5970 -0.4825
 7258TIP3    H145969   4.842   3.560   2.440  0.6276  0.1931  1.0718
 7258TIP3    H245970   4.780   3.457   2.348  0.0946  2.2681 -1.0110
 7259TIP3   OH245971   3.113   5.866   4.000  0.0338  0.2112 -0.7341
 7259TIP3    H145972   3.107   5.918   4.080  0.8174  1.7241 -1.5997
 7259TIP3    H245973   3.175   5.796   4.022 -0.4410  0.0802  0.2375
 7260TIP3   OH245974   3.933   6.622   1.756 -0.0936 -0.0335 -0.0929
 7260TIP3    H145975   3.915   6.672   1.835 -0.4709 -0.3039 -0.0024
 7260TIP3    H245976   3.860   6.643   1.697  1.0043  1.4275 -1.0079
 7261TIP3   OH245977   3.774   0.270   2.912  0.1020 -0.2875  0.0639
 7261TIP3    H145978   3.764   0.175   2.908  2.1343 -0.6341  1.6467
 7261TIP3    H245979   3.748   0.293   3.001  1.8800  0.2811  0.4684
 7262TIP3   OH245980   6.628   2.903   2.940  0.5476  0.4354 -0.3646
 7262TIP3    H145981   6.549   2.852   2.922 -0.6522  1.1491  2.2775
 7262TIP3    H245982   6.677   2.851   3.003  0.9529  1.0926 -0.1190
 7263TIP3   OH245983   6.008   3.028   1.837 -0.0030  0.1818  0.3039
 7263TIP3    H145984   6.033   2.935   1.841  1.3751  0.3466 -2.2414
 7263TIP3    H245985   5.912   3.027   1.836 -0.0279 -1.3800 -1.3871
 7264TIP3   OH245986   0.117   0.826   1.567  0.4355  0.2407  0.0366
 7264TIP3    H145987   0.040   0.883   1.576 -0.1114 -0.4555 -0.1613
 7264TIP3    H245988   0.093   0.745   1.612 -0.0022 -0.9891 -2.2679
 7265TIP3   OH245989   0.392   5.501   8.924  0.3678  0.3917  0.4562
 7265TIP3    H145990   0.308   5.492   8.969  1.4861  0.9954  2.8256
 7265TIP3    H245991   0.412   5.414   8.891 -0.9066  0.1191  0.3567
 7266TIP3   OH245992   1.454   6.457   3.273  0.3259  0.6186  0.2106
 7266TIP3    H145993   1.549   6.457   3.283  0.4368 -2.3821  0.0307
 7266TIP3    H245994   1.439   6.436   3.180 -0.5518  1.9799  0.0120
 7267TIP3   OH245995   1.146   0.840   3.553 -0.3910 -0.1819 -0.5232
 7267TIP3    H145996   1.226   0.888   3.573  0.6495 -1.9705 -0.1272
 7267TIP3    H245997   1.159   0.809   3.464  0.4657 -2.3992  0.2942
 7268TIP3   OH245998   1.571   5.037   2.624  0.7270  0.4292  0.1459
 7268TIP3    H145999   1.591   4.965   2.564 -0.6893  0.8396 -0.8442
 7268TIP3    H246000   1.636   5.104   2.604  1.1180  0.0243  0.0385
 7269TIP3   OH246001   0.243   3.757   0.538 -0.7427 -0.3396  0.0852
 7269TIP3    H146002   0.236   3.678   0.593 -1.1156 -0.1766  0.2798
 7269TIP3    H246003   0.232   3.829   0.600 -0.3997 -0.1342 -0.0931
 7270TIP3   OH246004   5.284   5.593   3.432 -0.6152  0.0908  0.2057
 7270TIP3    H146005   5.321   5.675   3.464 -1.8252  0.7214  0.0179
 7270TIP3    H246006   5.320   5.526   3.491  1.2900  0.5824 -0.3298
 7271TIP3   OH246007   1.596   0.270   1.574  0.1524  0.0538  0.3563
 7271TIP3    H146008   1.655   0.316   1.515 -1.0867 -0.9407 -1.8006
 7271TIP3    H246009   1.544   0.339   1.616 -0.2702  0.7403 -1.2312
 7272TIP3   OH246010   2.868   0.754   1.913  0.4268 -0.0287 -0.3441
 7272TIP3    H146011   2.937   0.739   1.849  0.3086  0.3180 -0.5605
 7272TIP3    H246012   2.888   0.840   1.951  1.0288 -0.6494  0.7828
 7273TIP3   OH246013   2.702   5.376   1.945 -0.3612  0.2182  0.0525
 7273TIP3    H146014   2.648   5.416   2.013  0.2625 -0.4306  0.9599
 7273TIP3    H246015   2.758   5.447   1.914 -2.3383  1.1700 -1.6195
 7274TIP3   OH246016   3.043   0.564   3.197  0.4094 -0.3736  0.5883
 7274TIP3    H146017   3.017   0.525   3.113 -0.6528  1.2176  0.1327
 7274TIP3    H246018   3.060   0.489   3.254 -1.0073 -1.5156 -0.4006
 7275TIP3   OH246019   1.662   4.867   4.467  0.2151 -0.0991  0.0269
 7275TIP3    H146020   1.651   4.776   4.439 -0.0446 -0.0858  0.0875
 7275TIP3    H246021   1.746   4.867   4.514  0.3080 -0.2669 -0.1349
 7276TIP3   OH246022   6.175   4.303   3.025 -0.4575  0.8109  0.4352
 7276TIP3    H146023   6.268   4.324   3.014 -0.5461  1.9022  1.5961
 7276TIP3    H246024   6.132   4.343   2.950  0.0268  0.0502 -0.2684
 7277TIP3   OH246025   1.104   0.687   3.766  0.1477 -0.4151  0.3755
 7277TIP3    H146026   1.099   0.747   3.691 -1.2170 -0.9949 -0.0310
 7277TIP3    H246027   1.048   0.614   3.742 -1.0198 -0.2370  2.3078
 7278TIP3   OH246028   2.359   4.760   2.660  0.6687  0.3996  0.8562
 7278TIP3    H146029   2.442   4.715   2.679  1.1086  0.4432 -0.8580
 7278TIP3    H246030   2.385   4.841   2.616 -0.2757  0.6444  0.7311
 7279TIP3   OH246031   4.188   4.701   3.354 -0.1772  0.4815  0.1953
 7279TIP3    H146032   4.160   4.644   3.282 -0.1092  0.7788 -0.0678
 7279TIP3    H246033   4.269   4.662   3.386  0.5445  1.1311 -0.8054
 7280TIP3   OH246034   3.785   0.355   3.602 -0.1978  0.5449 -0.3244
 7280TIP3    H146035   3.769   0.261   3.601 -0.5345  0.6071 -0.7719
 7280TIP3    H246036   3.880   0.363   3.591  0.0455  0.2152  1.3380
 7281TIP3   OH246037   2.450   4.150   2.684 -0.2014 -0.2520  0.1064
 7281TIP3    H146038   2.381   4.217   2.679  0.2532  0.3134  1.0506
 7281TIP3    H246039   2.518   4.191   2.738  0.3124 -1.2842  0.2539
 7282TIP3   OH246040   3.797   4.283   3.259  0.0334 -0.6112 -0.4562
 7282TIP3    H146041   3.702   4.274   3.250 -0.6762  1.4915  2.8353
 7282TIP3    H246042   3.820   4.353   3.198 -0.8591 -0.0103 -0.1252
 7283TIP3   OH246043   5.143   3.495   2.729  0.3203  0.1019  1.0146
 7283TIP3    H146044   5.058   3.535   2.751 -0.0149  0.9645 -1.5309
 7283TIP3    H246045   5.148   3.417   2.784 -2.2452 -0.0961  1.0817
 7284TIP3   OH246046   0.722   1.934   1.389  0.1898 -0.0187  0.6650
 7284TIP3    H146047   0.762   1.982   1.317  1.3181  0.7876  1.7936
 7284TIP3    H246048   0.750   1.843   1.376  1.9389  0.4202  1.0710
 7285TIP3   OH246049   6.356   2.337   2.365 -0.0231  0.4933 -0.3620
 7285TIP3    H146050   6.380   2.325   2.272  1.4955 -0.6603  0.1269
 7285TIP3    H246051   6.351   2.248   2.400 -1.5388  0.8788  0.4667
 7286TIP3   OH246052   3.507   2.476   1.083  0.3342 -0.5607  0.1654
 7286TIP3    H146053   3.500   2.504   1.175 -1.1043 -1.8789  0.4907
 7286TIP3    H246054   3.599   2.491   1.061 -0.1046  3.9176  0.4254
 7287TIP3   OH246055   1.484   5.707   2.667 -0.0442  0.6001 -0.1919
 7287TIP3    H146056   1.542   5.632   2.680 -0.6126  0.2811  0.5506
 7287TIP3    H246057   1.457   5.700   2.575 -1.1139 -0.8589  0.2059
 7288TIP3   OH246058   4.835   6.145   1.237 -0.0843 -0.2693  0.0166
 7288TIP3    H146059   4.809   6.055   1.257  2.0321 -0.3368  3.2259
 7288TIP3    H246060   4.843   6.187   1.323 -1.2120  3.1109 -1.3710
 7289TIP3   OH246061   6.303   2.343   3.055  0.2159  1.0583  0.4105
 7289TIP3    H146062   6.267   2.398   2.986 -0.5623  0.8232  0.6251
 7289TIP3    H246063   6.398   2.344   3.040  0.1044  1.5293 -0.2649
 7290TIP3   OH246064   2.941   1.826   3.474 -0.4778 -0.1347  0.3711
 7290TIP3    H146065   2.954   1.839   3.568 -1.2419  1.6127  0.2661
 7290TIP3    H246066   3.030   1.830   3.437 -0.1648 -0.9168  1.0050
 7291TIP3   OH246067   1.216   3.656   3.003  0.1947 -0.5656  0.0200
 7291TIP3    H146068   1.202   3.681   3.094  0.5226  1.4204 -0.4299
 7291TIP3    H246069   1.128   3.647   2.966  0.0307  1.1031 -0.0661
 7292TIP3   OH246070   1.746   4.540   2.445 -0.9018  0.1021 -0.6326
 7292TIP3    H146071   1.790   4.527   2.529  1.2977 -2.1074 -1.9730
 7292TIP3    H246072   1.726   4.633   2.442  0.5001  0.5471  1.6194
 7293TIP3   OH246073   3.508   4.848   3.116  0.7044  0.4029  0.3257
 7293TIP3    H146074   3.533   4.879   3.203  0.9821  2.9829 -0.5852
 7293TIP3    H246075   3.570   4.892   3.057 -0.8900  0.5032 -1.3397
 7294TIP3   OH246076   4.118   2.749   2.025 -0.2180  0.0542 -0.1440
 7294TIP3    H146077   4.104   2.768   1.932  3.7258 -1.1017 -1.1935
 7294TIP3    H246078   4.169   2.668   2.025 -0.0545  0.0408  3.0603
 7295TIP3   OH246079   0.222   0.988   2.085 -0.3561  0.4090  0.0238
 7295TIP3    H146080   0.224   0.894   2.067  0.0293  0.6236 -1.1239
 7295TIP3    H246081   0.192   0.994   2.176  0.1932 -0.8418  0.3074
 7296TIP3   OH246082   4.417   0.641   3.682 -0.0702  0.8901 -0.1371
 7296TIP3    H146083   4.472   0.671   3.754  0.3214  0.9232 -0.4440
 7296TIP3    H246084   4.466   0.666   3.603 -0.7260  1.2987 -0.4179
 7297TIP3   OH246085   4.977   2.068   2.488  0.1608  0.5792  0.0518
 7297TIP3    H146086   4.963   1.975   2.471  1.8251  0.5733 -1.6738
 7297TIP3    H246087   4.957   2.111   2.405  2.3751  1.3463 -0.1623
 7298TIP3   OH246088   0.981   4.855   2.868  0.2687 -0.6572 -0.2002
 7298TIP3    H146089   0.893   4.847   2.830  1.2525 -1.7066 -2.4624
 7298TIP3    H246090   1.035   4.797   2.814  2.4554  0.3307  0.8141
 7299TIP3   OH246091   4.829   0.911   3.926  0.5653 -0.3950 -0.3076
 7299TIP3    H146092   4.844   0.833   3.979 -0.3552  0.7094  1.7083
 7299TIP3    H246093   4.885   0.978   3.966  0.8750  0.1363 -1.6033
 7300TIP3   OH246094   3.584   0.347   0.884  1.2023 -0.2899 -0.2577
 7300TIP3    H146095   3.556   0.256   0.881  0.2770 -0.0326  0.2521
 7300TIP3    H246096   3.504   0.397   0.897  1.7178  0.5887 -0.3431
 7301TIP3   OH246097   4.139   0.589   2.315  0.3494 -0.3387  0.3337
 7301TIP3    H146098   4.066   0.650   2.315  0.4061 -0.2458  1.9560
 7301TIP3    H246099   4.162   0.580   2.222 -2.5910 -1.4462 -0.4002
 7302TIP3   OH246100   0.628   5.647   1.676  0.0917 -0.2344 -0.2792
 7302TIP3    H146101   0.619   5.552   1.677 -0.8481 -0.1688  0.7065
 7302TIP3    H246102   0.664   5.668   1.590  2.4422 -1.6304  0.3047
 7303TIP3   OH246103   2.903   2.991   2.960 -0.0638 -0.2750  0.2665
 7303TIP3    H146104   2.911   2.911   2.907  1.0857  1.0618 -1.7387
 7303TIP3    H246105   2.994   3.016   2.978 -0.4058  0.5892  0.8406
 7304TIP3   OH246106   2.270   1.145   3.260  0.2846 -0.0089 -0.0216
 7304TIP3    H146107   2.177   1.166   3.264  0.4016  0.3846  0.8656
 7304TIP3    H246108   2.312   1.209   3.318  1.2202  0.4233 -1.1071
 7305TIP3   OH246109   4.105   5.010   1.122 -0.1366 -0.1466 -0.5503
 7305TIP3    H146110   4.187   5.016   1.074  1.4849 -3.8178  1.3538
 7305TIP3    H246111   4.115   5.072   1.194  1.2106 -0.7846 -0.1462
 7306TIP3   OH246112   0.651   3.253   1.640  0.3388  0.2171 -0.3802
 7306TIP3    H146113   0.701   3.266   1.720 -0.7143 -0.5197  0.4412
 7306TIP3    H246114   0.697   3.304   1.573  0.8268  1.4415  0.8538
 7307TIP3   OH246115   4.300   5.255   1.866 -0.9773 -0.8061 -0.1623
 7307TIP3    H146116   4.353   5.329   1.834 -0.9781 -0.9323 -0.4577
 7307TIP3    H246117   4.308   5.260   1.961 -1.3625 -0.1372 -0.1528
 7308TIP3   OH246118   3.877   2.074   0.797 -0.4122  0.2641 -0.8010
 7308TIP3    H146119   3.917   1.996   0.835 -0.7225  0.8551  0.7940
 7308TIP3    H246120   3.946   2.140   0.799 -1.5435  1.5166  2.6793
 7309TIP3   OH246121   6.430   5.382   1.352 -0.5913  0.5566  0.5072
 7309TIP3    H146122   6.502   5.329   1.318 -2.6458  0.0184 -3.7790
 7309TIP3    H246123   6.374   5.320   1.398 -2.5414 -1.2310 -3.7354
 7310TIP3   OH246124   5.761   0.456   2.467 -0.0660 -0.4057 -0.4262
 7310TIP3    H146125   5.667   0.453   2.488  0.2350 -1.0525  0.9783
 7310TIP3    H246126   5.798   0.381   2.515  0.9333 -1.1630 -2.2925
 7311TIP3   OH246127   4.004   1.713   3.891 -0.6151 -0.0256 -0.5116
 7311TIP3    H146128   4.011   1.674   3.804  0.5812  0.8171 -0.8280
 7311TIP3    H246129   4.076   1.777   3.894 -1.4441  0.8987  0.6016
 7312TIP3   OH246130   4.010   1.286   0.897  0.3371  0.1846 -0.2002
 7312TIP3    H146131   4.044   1.305   0.984  0.1038  0.0699 -0.0845
 7312TIP3    H246132   3.949   1.214   0.910  0.6289 -0.1256 -0.5231
 7313TIP3   OH246133   0.103   4.231   0.484  0.2053  0.0539 -0.2310
 7313TIP3    H146134   0.118   4.168   0.413 -0.0035  0.8973 -1.0466
 7313TIP3    H246135   0.021   4.275   0.460 -0.9731 -1.0326  1.5794
 7314TIP3   OH246136   2.248   1.628   0.814  0.0498 -0.0733 -0.5956
 7314TIP3    H146137   2.159   1.616   0.780  0.3749  0.8377 -1.8381
 7314TIP3    H246138   2.288   1.541   0.808 -1.1574 -0.8353  1.3169
 7315TIP3   OH246139   6.391   4.473   2.920  0.0743  0.2968 -0.4151
 7315TIP3    H146140   6.404   4.557   2.963  1.3394  1.6122 -3.1635
 7315TIP3    H246141   6.460   4.417   2.955 -1.4743 -0.0610  2.2959
 7316TIP3   OH246142   4.197   4.073   1.642  0.3024 -0.7710 -0.4106
 7316TIP3    H146143   4.261   4.004   1.658  1.5557 -0.0484 -1.9888
 7316TIP3    H246144   4.248   4.154   1.649 -0.8139 -0.0857 -0.0560
 7317TIP3   OH246145   3.420   1.740   3.192  0.7712  0.3681 -0.0683
 7317TIP3    H146146   3.440   1.652   3.160  0.4031  0.3499 -0.2533
 7317TIP3    H246147   3.488   1.796   3.155  0.3353  0.3519 -0.9074
 7318TIP3   OH246148   5.799   2.447   3.213  0.0490 -0.2222  0.2871
 7318TIP3    H146149   5.805   2.506   3.138  2.2719 -1.3746 -0.5393
 7318TIP3    H246150   5.855   2.487   3.280 -0.5833 -0.0651  0.7373
 7319TIP3   OH246151   2.336   0.784   3.798 -0.6099  0.2403 -0.3887
 7319TIP3    H146152   2.344   0.693   3.827 -0.8717  0.9202  2.0415
 7319TIP3    H246153   2.331   0.779   3.703  0.1259 -2.2224 -0.3514
 7320TIP3   OH246154   6.257   6.470   1.764 -0.6965 -0.1163  0.7730
 7320TIP3    H146155   6.316   6.400   1.735  1.0144  1.3129  0.5852
 7320TIP3    H246156   6.292   6.497   1.848  0.2602  2.1406 -0.2648
 7321TIP3   OH246157   5.306   5.552   2.553  0.5491 -0.2847  0.3256
 7321TIP3    H146158   5.358   5.471   2.556 -1.5352 -1.7267  0.1387
 7321TIP3    H246159   5.356   5.610   2.496  1.2675 -2.1319 -1.0570
 7322TIP3   OH246160   1.253   6.746   2.107 -0.2514 -0.0362 -0.3038
 7322TIP3    H146161   1.347   6.751   2.090 -0.3239  3.2773 -0.3043
 7322TIP3    H246162   1.224   6.668   2.058  2.1386  0.0874 -2.0854
 7323TIP3   OH246163   3.146   5.702   3.580 -0.4891  0.7965 -0.2662
 7323TIP3    H146164   3.228   5.653   3.571  1.3390  3.5422  0.2019
 7323TIP3    H246165   3.088   5.642   3.628  1.5739 -0.8946  0.3138
 7324TIP3   OH246166   1.625   4.606   1.583  0.0852  0.0530  0.6755
 7324TIP3    H146167   1.713   4.633   1.611  1.0181 -0.5295 -1.5461
 7324TIP3    H246168   1.628   4.511   1.582 -0.0764  0.0412 -0.7908
 7325TIP3   OH246169   4.823   2.807   2.143 -0.4059  0.1682 -0.2670
 7325TIP3    H146170   4.898   2.823   2.200 -1.6432  0.5289  1.3419
 7325TIP3    H246171   4.823   2.712   2.129 -0.0945  0.0765  0.3486
 7326TIP3   OH246172   0.344   6.521   1.962 -0.2665 -0.0483 -0.3277
 7326TIP3    H146173   0.354   6.569   1.880  1.1187 -0.6435 -0.5464
 7326TIP3    H246174   0.274   6.458   1.945 -0.5013  0.3350 -0.8026
 7327TIP3   OH246175   0.484   6.602   1.725 -0.0780  0.0033 -0.0802
 7327TIP3    H146176   0.501   6.511   1.703  3.1167  0.6219 -0.6502
 7327TIP3    H246177   0.447   6.639   1.645  0.3716 -0.3917 -0.4763
 7328TIP3   OH246178   4.409   3.055   2.622  0.2995 -0.0108  0.1401
 7328TIP3    H146179   4.364   2.990   2.567  0.6554 -0.2842  0.1708
 7328TIP3    H246180   4.360   3.136   2.609 -0.3086 -0.3458  0.2981
 7329TIP3   OH246181   0.756   1.460   1.682 -0.4412 -0.1587 -0.0161
 7329TIP3    H146182   0.686   1.483   1.742 -1.3677 -3.6199  0.4643
 7329TIP3    H246183   0.836   1.466   1.735 -0.8444  0.0157  0.5770
 7330TIP3   OH246184   4.369   5.039   3.558 -0.3372  0.1508  0.3218
 7330TIP3    H146185   4.299   5.090   3.520  0.8850  2.0425  0.4877
 7330TIP3    H246186   4.434   5.103   3.587  0.9726 -1.4507  1.1748
 7331TIP3   OH246187   0.916   6.711   3.501 -0.2119  0.3270  0.2144
 7331TIP3    H146188   0.938   6.714   3.594 -0.7519  0.5103  0.3442
 7331TIP3    H246189   0.820   6.703   3.500 -0.1408 -0.6565 -0.3108
 7332TIP3   OH246190   2.218   4.672   3.722  0.0843  0.0852  0.2625
 7332TIP3    H146191   2.299   4.647   3.678  0.0595  0.3242  0.0839
 7332TIP3    H246192   2.149   4.626   3.673  0.0396  0.4929 -0.0604
 7333TIP3   OH246193   1.763   5.282   1.915  0.3551 -0.4019  0.1212
 7333TIP3    H146194   1.839   5.266   1.858 -0.6323 -0.5890 -1.1819
 7333TIP3    H246195   1.730   5.367   1.887 -0.3530 -0.6583  0.1741
 7334TIP3   OH246196   3.528   6.768   3.524 -0.5740  0.6013  0.0482
 7334TIP3    H146197   3.490   6.684   3.495 -0.8344  0.9266 -0.5764
 7334TIP3    H246198   3.459   6.809   3.575  0.3629 -0.6029  2.4682
 7335TIP3   OH246199   4.193   4.662   0.861 -0.2228  0.3999  0.2459
 7335TIP3    H146200   4.163   4.677   0.950 -1.2138 -0.1671  0.0340
 7335TIP3    H246201   4.216   4.569   0.858 -1.6614  0.0348 -0.4602
 7336TIP3   OH246202   6.058   0.177   2.360  0.2780  0.4607 -0.9301
 7336TIP3    H146203   6.034   0.268   2.343 -0.1779  0.6675  0.7246
 7336TIP3    H246204   5.991   0.145   2.420  0.5399 -0.9314 -1.3419
 7337TIP3   OH246205   4.685   5.729   2.844 -0.1369 -0.5956 -0.0808
 7337TIP3    H146206   4.660   5.748   2.935 -0.6586 -0.0408 -0.3307
 7337TIP3    H246207   4.779   5.717   2.847  0.1862  1.5632  0.2082
 7338TIP3   OH246208   4.342   6.535   4.225 -0.6930 -0.4191 -0.1714
 7338TIP3    H146209   4.423   6.555   4.179 -1.2240  0.3361 -0.8083
 7338TIP3    H246210   4.334   6.603   4.291 -0.9850 -0.2837 -0.3439
 7339TIP3   OH246211   3.924   4.757   3.432 -0.0262  0.1105  0.0307
 7339TIP3    H146212   3.915   4.849   3.408  2.7914  0.1585 -1.2197
 7339TIP3    H246213   4.017   4.738   3.421 -0.3047 -2.5944  1.4410
 7340TIP3   OH246214   2.164   4.945   1.293  0.4709 -0.1241  0.5660
 7340TIP3    H146215   2.169   4.966   1.386  0.0884 -1.6684  0.9655
 7340TIP3    H246216   2.072   4.956   1.271  0.5979  0.4549  0.3039
 7341TIP3   OH246217   3.061   3.067   1.709  0.0753  0.2448 -0.4604
 7341TIP3    H146218   3.018   3.002   1.764  0.5330  0.7548  0.5239
 7341TIP3    H246219   3.109   3.016   1.643 -0.3229 -0.3768 -0.2680
 7342TIP3   OH246220   1.273   5.851   3.050 -0.2206 -0.4396  0.4336
 7342TIP3    H146221   1.200   5.799   3.018  0.6338 -1.7012  0.4623
 7342TIP3    H246222   1.276   5.927   2.992 -1.0644 -0.7571 -0.0437
 7343TIP3   OH246223   6.601   4.825   1.362  0.0430 -0.2580  0.4756
 7343TIP3    H146224   6.556   4.881   1.425 -0.0375  0.4353 -0.1862
 7343TIP3    H246225   6.691   4.818   1.396  0.7515  2.2946 -0.6538
 7344TIP3   OH246226   1.591   2.931   2.755 -0.4311  0.0918 -0.4905
 7344TIP3    H146227   1.648   2.895   2.687 -0.2752 -1.2518  0.3221
 7344TIP3    H246228   1.528   2.985   2.706  0.3073 -0.0065 -1.5909
 7345TIP3   OH246229   6.284   3.559   1.865 -0.5936 -0.4390  0.5036
 7345TIP3    H146230   6.241   3.642   1.843 -0.3848 -0.5476 -0.3518
 7345TIP3    H246231   6.214   3.494   1.860 -0.2733 -0.6917 -1.3780
 7346TIP3   OH246232   5.592   5.689   3.358  0.3206 -0.7540  0.1624
 7346TIP3    H146233   5.532   5.758   3.384  1.0784 -1.2275  3.5495
 7346TIP3    H246234   5.619   5.648   3.440  2.1816 -3.1641 -1.5162
 7347TIP3   OH246235   2.701   2.946   1.850 -0.3628 -0.0511 -0.2810
 7347TIP3    H146236   2.769   2.915   1.910  2.5561  2.1617 -2.0944
 7347TIP3    H246237   2.712   3.041   1.849 -3.3033  0.3820 -1.0175
 7348TIP3   OH246238   3.437   5.342   1.606 -0.2088  0.0415  0.4611
 7348TIP3    H146239   3.379   5.379   1.673 -0.5710  0.8567 -0.2839
 7348TIP3    H246240   3.500   5.412   1.588 -0.8217  0.2785 -0.8781
 7349TIP3   OH246241   2.746   4.602   3.219  0.3630  0.3185 -0.5108
 7349TIP3    H146242   2.766   4.602   3.126 -0.5975  0.3226 -0.7325
 7349TIP3    H246243   2.675   4.538   3.229  0.1999  0.5849  0.1504
 7350TIP3   OH246244   2.971   5.561   1.537 -0.3417 -0.2824  0.0166
 7350TIP3    H146245   2.979   5.549   1.442 -0.0516  1.4909 -0.2007
 7350TIP3    H246246   2.887   5.519   1.558 -1.1954  0.6685 -1.2951
 7351TIP3   OH246247   4.203   1.196   4.176 -0.1290 -0.6385  0.4109
 7351TIP3    H146248   4.209   1.109   4.216 -1.0974 -0.2981  1.3585
 7351TIP3    H246249   4.248   1.187   4.093 -0.4612 -2.1339  0.3525
 7352TIP3   OH246250   5.268   5.404   0.365 -0.2672  0.0191 -0.1013
 7352TIP3    H146251   5.199   5.471   0.363  0.0596  0.3597  0.0094
 7352TIP3    H246252   5.227   5.328   0.406 -1.0948 -0.3532 -1.5409
 7353TIP3   OH246253   2.675   1.077   1.773  0.1972 -0.3317  0.1248
 7353TIP3    H146254   2.697   1.147   1.834 -1.4976  0.4097 -0.0485
 7353TIP3    H246255   2.754   1.066   1.719  0.4407  1.5884  0.0304
 7354TIP3   OH246256   0.717   0.118   2.446 -0.5206 -0.3925 -0.2256
 7354TIP3    H146257   0.759   0.038   2.477  0.3341 -0.0398 -0.4463
 7354TIP3    H246258   0.673   0.091   2.365 -1.0392 -0.8457  0.1966
 7355TIP3   OH246259   3.040   4.918   1.498  0.5051 -0.2978  0.5039
 7355TIP3    H146260   3.091   4.995   1.522 -0.7083  0.6935 -0.0104
 7355TIP3    H246261   2.956   4.952   1.467 -0.4267 -1.8647  1.1483
 7356TIP3   OH246262   2.410   1.780   2.115 -0.3326  0.0864  0.5694
 7356TIP3    H146263   2.356   1.703   2.093  0.4675 -0.2198 -0.4137
 7356TIP3    H246264   2.389   1.843   2.046  0.3695  0.0559  0.3257
 7357TIP3   OH246265   3.734   6.566   2.764  0.2817  0.3338 -0.5110
 7357TIP3    H146266   3.792   6.510   2.815  1.4050  1.1604 -0.8361
 7357TIP3    H246267   3.775   6.571   2.678  0.7414  2.3408 -0.2438
 7358TIP3   OH246268   0.141   0.461   0.707  0.3153  0.2584  0.3268
 7358TIP3    H146269   0.165   0.506   0.788 -0.1794  2.0803 -0.4817
 7358TIP3    H246270   0.141   0.368   0.731 -1.8874  0.7901  3.0315
 7359TIP3   OH246271   2.116   0.049   0.899 -0.9546  0.1838  0.1290
 7359TIP3    H146272   2.035   0.035   0.851 -0.5221  1.6893 -1.1375
 7359TIP3    H246273   2.175  -0.020   0.868 -1.1792  0.1973 -0.3392
 7360TIP3   OH246274   5.390   6.049   2.925  0.3730 -0.0068  0.3584
 7360TIP3    H146275   5.354   5.961   2.939 -0.8865  0.5745  0.8804
 7360TIP3    H246276   5.368   6.070   2.834 -0.1201  0.1352  0.5131
 7361TIP3   OH246277   6.241   1.233   3.598  0.0497 -0.3803 -0.4079
 7361TIP3    H146278   6.187   1.279   3.534  0.0869 -0.7701 -0.7212
 7361TIP3    H246279   6.182   1.214   3.671 -0.7390 -2.4382 -1.5182
 7362TIP3   OH246280   4.346   4.714   0.517 -0.8215 -0.6269 -0.4755
 7362TIP3    H146281   4.395   4.782   0.471 -0.0662  0.0159  1.1999
 7362TIP3    H246282   4.413   4.657   0.554 -1.3806 -0.6189  0.5652
 7363TIP3   OH246283   0.307   4.554   3.126  0.4375  0.0640 -0.0292
 7363TIP3    H146284   0.330   4.498   3.200  0.0465  0.1953  0.1955
 7363TIP3    H246285   0.279   4.493   3.057 -0.6134 -0.0017  0.4344
 7364TIP3   OH246286   5.558   0.774   2.990 -0.3060  0.2892 -0.1692
 7364TIP3    H146287   5.621   0.730   3.048  0.1594  0.7155 -0.3454
 7364TIP3    H246288   5.530   0.851   3.040 -1.2448 -0.2796  0.2082
 7365TIP3   OH246289   2.060   3.666   2.397  0.0876 -0.7630 -0.2746
 7365TIP3    H146290   2.150   3.648   2.370 -0.3249 -0.8403 -1.6548
 7365TIP3    H246291   2.065   3.752   2.439  0.4996  0.1606 -2.1235
 7366TIP3   OH246292   1.077   0.060   0.685  0.4975  0.5819 -0.4100
 7366TIP3    H146293   1.048  -0.016   0.635 -0.6996  0.7170  0.0401
 7366TIP3    H246294   1.130   0.024   0.756 -1.0024  0.0213  0.4885
 7367TIP3   OH246295   0.046   5.068   1.444  0.0020  0.3202 -0.1232
 7367TIP3    H146296   0.051   4.979   1.479 -0.1928  0.8506  1.3239
 7367TIP3    H246297   0.128   5.079   1.395 -0.9868 -1.4261 -2.3349
 7368TIP3   OH246298   4.560   2.482   1.835  0.1562  0.6157  0.2367
 7368TIP3    H146299   4.647   2.448   1.816  0.3770  1.1134  0.3445
 7368TIP3    H246300   4.552   2.560   1.781  0.4803  1.5894  1.5424
 7369TIP3   OH246301   5.663   3.637   2.918  0.7319 -0.1189 -0.5135
 7369TIP3    H146302   5.709   3.562   2.954  0.0126  0.4963  1.8499
 7369TIP3    H246303   5.732   3.697   2.889  1.3934 -0.3318  0.5635
 7370TIP3   OH246304   2.990   0.622   0.408 -0.0042 -0.2905 -0.6248
 7370TIP3    H146305   2.921   0.659   0.354 -0.9661 -0.2857  0.5701
 7370TIP3    H246306   3.058   0.690   0.409 -1.8911  1.8053  1.8415
 7371TIP3   OH246307   3.506   6.250   2.352  0.4476  0.4710  0.0202
 7371TIP3    H146308   3.593   6.245   2.391  0.3312 -0.0983  0.2166
 7371TIP3    H246309   3.446   6.244   2.426  0.2101 -1.5069 -0.2838
 7372TIP3   OH246310   0.435   0.872   2.790  0.8611  0.3570 -0.2574
 7372TIP3    H146311   0.439   0.783   2.824  1.7550  0.8077  0.8531
 7372TIP3    H246312   0.349   0.877   2.748 -0.1639 -0.3265  1.6501
 7373TIP3   OH246313   5.535   3.271   1.668 -0.5742 -0.9155 -0.6436
 7373TIP3    H146314   5.507   3.202   1.608 -1.4957 -1.1790  0.0666
 7373TIP3    H246315   5.568   3.341   1.611  0.0616 -1.7906 -1.3807
 7374TIP3   OH246316   4.998   4.787   2.024 -0.3648  0.0075  0.0492
 7374TIP3    H146317   5.089   4.798   2.051 -0.4920 -0.5191  0.6893
 7374TIP3    H246318   4.991   4.842   1.946 -0.3684  2.6959  1.8070
 7375TIP3   OH246319   5.544   5.103   1.840 -0.2590  0.2605 -0.8286
 7375TIP3    H146320   5.529   5.193   1.870 -0.1305 -0.1176  0.4304
 7375TIP3    H246321   5.497   5.098   1.757 -1.5277  1.0660 -0.2113
 7376TIP3   OH246322   1.828   6.294   2.334  0.2073  0.2659  0.3690
 7376TIP3    H146323   1.884   6.350   2.281 -0.3607  0.5920  0.1020
 7376TIP3    H246324   1.781   6.355   2.391  1.3479 -0.1361  1.7755
 7377TIP3   OH246325   3.730   1.976   2.175 -0.6104 -0.2135  0.4640
 7377TIP3    H146326   3.776   2.059   2.184 -1.8786  0.8746 -1.9135
 7377TIP3    H246327   3.781   1.927   2.110 -0.5968 -0.7226  0.8576
 7378TIP3   OH246328   3.659   1.199   3.169  0.1767 -0.2795  0.0433
 7378TIP3    H146329   3.631   1.270   3.113  1.0959 -0.1332 -0.2524
 7378TIP3    H246330   3.675   1.125   3.109  1.1188 -0.1345  0.0905
 7379TIP3   OH246331   6.304   4.116   2.662  0.2394 -0.5800 -0.3567
 7379TIP3    H146332   6.384   4.105   2.611  0.1377 -0.8978 -0.4519
 7379TIP3    H246333   6.331   4.106   2.753  0.3801 -0.2614 -0.3641
 7380TIP3   OH246334   2.321   5.016   0.709 -0.5645  0.0167 -0.5658
 7380TIP3    H146335   2.322   5.047   0.799 -0.8299  1.5741 -1.0856
 7380TIP3    H246336   2.394   5.061   0.667  0.2807 -1.5501 -0.8913
 7381TIP3   OH246337   3.813   2.828   1.623  0.2088  0.3577 -0.0867
 7381TIP3    H146338   3.732   2.870   1.653 -0.5665 -0.4386 -0.9805
 7381TIP3    H246339   3.844   2.885   1.552  0.3880  0.6158  0.1970
 7382TIP3   OH246340   1.548   3.045   1.681 -0.3073 -0.0945  0.0859
 7382TIP3    H146341   1.539   3.115   1.746 -1.1294 -0.3841  0.3080
 7382TIP3    H246342   1.614   2.986   1.718 -0.9054 -0.3548  0.7653
 7383TIP3   OH246343   3.943   3.587   3.684  0.0892  0.1871  0.9161
 7383TIP3    H146344   3.927   3.496   3.709 -1.0816 -0.5112 -2.0154
 7383TIP3    H246345   4.036   3.600   3.703 -0.1132 -0.9859  3.0730
 7384TIP3   OH246346   1.901   0.750   2.479 -0.3580  0.7247 -0.2586
 7384TIP3    H146347   1.941   0.683   2.535 -1.1832  0.3413 -0.1194
 7384TIP3    H246348   1.976   0.794   2.438  0.2133 -1.1478 -1.3720
 7385TIP3   OH246349   5.185   2.187   1.615  0.4667 -0.1079  0.4338
 7385TIP3    H146350   5.152   2.129   1.546 -0.1821 -0.7377  1.2352
 7385TIP3    H246351   5.258   2.139   1.653  1.5664  0.7536 -0.5521
 7386TIP3   OH246352   1.469   1.890   2.169 -0.6218 -0.2206 -0.0594
 7386TIP3    H146353   1.467   1.908   2.075 -3.2161 -2.0961 -0.4587
 7386TIP3    H246354   1.506   1.802   2.176  0.5934  0.3294  0.8185
 7387TIP3   OH246355   5.393   6.207   3.147 -0.2467  0.4665 -0.7081
 7387TIP3    H146356   5.393   6.158   3.065  1.5632 -0.6476 -0.1181
 7387TIP3    H246357   5.486   6.219   3.167 -0.6497  2.6943  0.0471
 7388TIP3   OH246358   4.129   5.952   2.526 -0.3561 -0.3306  0.5180
 7388TIP3    H146359   4.085   6.029   2.489 -0.6835 -0.3322  0.8976
 7388TIP3    H246360   4.220   5.960   2.497 -0.8758 -1.0611 -1.4696
 7389TIP3   OH246361   6.307   0.713   2.386 -0.0024 -0.2353 -0.1196
 7389TIP3    H146362   6.220   0.694   2.420  0.2266 -1.4923 -0.1576
 7389TIP3    H246363   6.292   0.769   2.310 -0.5929  1.6931  1.3441
 7390TIP3   OH246364   4.585   3.279   3.613 -0.2305  0.3891  0.2617
 7390TIP3    H146365   4.653   3.212   3.603  0.0930  0.7063  0.3016
 7390TIP3    H246366   4.508   3.242   3.569 -0.1628 -0.1600  0.5979
 7391TIP3   OH246367   5.422   5.324   2.464  0.3295 -0.6699 -0.5594
 7391TIP3    H146368   5.363   5.285   2.399  1.8668 -0.0734 -2.4187
 7391TIP3    H246369   5.488   5.256   2.479  0.5119 -0.4508 -0.3629
 7392TIP3   OH246370   4.140   1.436   2.151 -0.4210 -0.3248 -0.2293
 7392TIP3    H146371   4.089   1.358   2.129  0.1937 -0.2988 -1.8756
 7392TIP3    H246372   4.131   1.444   2.246 -1.4467 -1.7249 -0.1710
 7393TIP3   OH246373   1.110   4.932   2.012 -0.6569  0.7295 -0.4419
 7393TIP3    H146374   1.124   5.024   1.990 -1.3569  1.1671  0.8115
 7393TIP3    H246375   1.059   4.934   2.093  0.7885 -0.7507  0.5770
 7394TIP3   OH246376   4.726   1.977   0.757 -0.4089  0.3249 -0.7731
 7394TIP3    H146377   4.701   2.068   0.741  0.0634  0.5537 -0.2379
 7394TIP3    H246378   4.798   1.961   0.696  2.1809  1.5594  1.7534
 7395TIP3   OH246379   3.890   3.715   3.438  0.2006 -0.2904 -0.4210
 7395TIP3    H146380   3.903   3.700   3.532  3.1117  2.1792 -0.2895
 7395TIP3    H246381   3.952   3.655   3.396  0.9357  0.5762 -0.5952
 7396TIP3   OH246382   2.093   6.483   2.818  0.0874  0.0448 -0.1529
 7396TIP3    H146383   2.019   6.520   2.770 -1.6119 -2.4774  0.3178
 7396TIP3    H246384   2.131   6.418   2.759  0.0504 -0.7523  0.6648
 7397TIP3   OH246385   6.436   3.705   2.958  0.6892 -0.1601  0.0911
 7397TIP3    H146386   6.465   3.709   2.867 -0.1121  0.8766 -0.1316
 7397TIP3    H246387   6.342   3.724   2.955 -0.1059 -3.3630  0.7941
 7398TIP3   OH246388   6.567   2.822   2.152 -0.2462  0.5401  0.1222
 7398TIP3    H146389   6.645   2.839   2.098  1.2037 -1.6575  1.3506
 7398TIP3    H246390   6.568   2.728   2.166 -1.9679  0.7326  1.9489
 7399TIP3   OH246391   4.836   3.860   2.148  0.0852 -0.4389  0.3797
 7399TIP3    H146392   4.913   3.913   2.125 -0.9044  0.8903 -0.0015
 7399TIP3    H246393   4.829   3.797   2.076 -0.8703  1.3678 -1.2306
 7400TIP3   OH246394   4.836   6.493   1.817  0.3099  0.0874  0.7958
 7400TIP3    H146395   4.832   6.584   1.849 -0.3283 -0.2226  1.6515
 7400TIP3    H246396   4.784   6.494   1.737 -1.2215  0.1247  1.7532
 7401TIP3   OH246397   0.474   2.178   1.670 -0.1101 -0.2521 -0.4698
 7401TIP3    H146398   0.413   2.164   1.742 -1.3744  1.2655 -1.2091
 7401TIP3    H246399   0.477   2.094   1.625 -0.5833 -0.7347  0.3654
 7402TIP3   OH246400   4.173   5.895   3.358 -0.2893  0.0744 -0.0619
 7402TIP3    H146401   4.210   5.912   3.445 -1.9306 -0.2475  0.7299
 7402TIP3    H246402   4.179   5.800   3.348  0.2065  0.1431 -0.4610
 7403TIP3   OH246403   1.526   0.649   0.706 -0.1128  0.1821  0.4397
 7403TIP3    H146404   1.451   0.635   0.763 -0.4482 -0.6545 -0.1905
 7403TIP3    H246405   1.600   0.610   0.753 -0.1733  0.5030  0.8056
 7404TIP3   OH246406   4.305   5.740   3.842 -0.1658  0.2538 -0.1308
 7404TIP3    H146407   4.252   5.666   3.813 -0.0683 -0.2535  0.9187
 7404TIP3    H246408   4.395   5.709   3.837 -0.1248  0.2936  0.3076
 7405TIP3   OH246409   5.198   1.050   3.996 -0.1292 -0.2583 -0.0748
 7405TIP3    H146410   5.236   0.972   4.036  0.0348 -0.3171 -0.3417
 7405TIP3    H246411   5.197   1.031   3.903  1.4437  0.6957 -0.3287
 7406TIP3   OH246412   4.877   0.514   1.105  0.4323  0.0662  0.3534
 7406TIP3    H146413   4.782   0.517   1.096  0.6050  0.3091 -1.8910
 7406TIP3    H246414   4.902   0.604   1.126  0.2897  0.3867 -0.8057
 7407TIP3   OH246415   1.908   4.120   2.320 -0.4297 -0.2013 -0.0333
 7407TIP3    H146416   1.838   4.067   2.359 -0.1250  0.7607  1.9208
 7407TIP3    H246417   1.950   4.061   2.257 -1.8434 -1.3724  0.0598
 7408TIP3   OH246418   1.214   4.919   3.092 -0.3386 -0.6593  0.1351
 7408TIP3    H146419   1.147   4.927   3.024  2.1886  1.5553 -2.2962
 7408TIP3    H246420   1.282   4.866   3.053  0.5239 -0.6531  1.5502
 7409TIP3   OH246421   3.469   4.042   3.790 -0.2269  0.3779 -0.3080
 7409TIP3    H146422   3.473   3.951   3.818  1.7002  0.4433 -0.2383
 7409TIP3    H246423   3.515   4.091   3.859 -2.1051  1.5722  0.1722
 7410TIP3   OH246424   1.939   1.037   2.663 -0.0829  0.1209  0.0849
 7410TIP3    H146425   1.971   1.082   2.585 -0.1249  4.0460  2.1118
 7410TIP3    H246426   2.012   0.981   2.690 -0.3576 -2.0287 -3.0610
 7411TIP3   OH246427   3.280   2.263   1.493  0.3751  0.2306  0.1203
 7411TIP3    H146428   3.364   2.219   1.485  1.1754  1.5217  1.0820
 7411TIP3    H246429   3.276   2.292   1.584 -0.1077  2.1361 -0.4583
 7412TIP3   OH246430   3.477   6.088   3.907 -0.0701 -0.3996  0.3401
 7412TIP3    H146431   3.400   6.104   3.963 -0.3126  0.6953 -0.2666
 7412TIP3    H246432   3.541   6.048   3.966  0.0625  1.6386  1.7108
 7413TIP3   OH246433   1.584   1.834   2.585 -0.0024 -0.6720 -0.0297
 7413TIP3    H146434   1.642   1.805   2.655  0.1036 -0.8410 -0.1834
 7413TIP3    H246435   1.623   1.797   2.505  1.2098  1.4302 -0.4909
 7414TIP3   OH246436   2.315   5.352   1.316  0.2457 -0.2445  0.2388
 7414TIP3    H146437   2.341   5.427   1.368 -0.2760 -1.1023  1.7796
 7414TIP3    H246438   2.221   5.341   1.333  0.2394 -1.0423 -0.2280
 7415TIP3   OH246439   4.465   5.743   2.072 -0.0548 -0.2634 -0.2253
 7415TIP3    H146440   4.426   5.779   1.993  2.4210 -1.3916 -2.0788
 7415TIP3    H246441   4.507   5.818   2.115 -1.8564  0.4534  0.4132
 7416TIP3   OH246442   5.652   5.276   0.549 -0.5069 -0.2543 -0.1512
 7416TIP3    H146443   5.725   5.292   0.489 -0.2526 -0.7123  0.0246
 7416TIP3    H246444   5.673   5.191   0.589 -0.8863 -0.1540  0.2665
 7417TIP3   OH246445   5.340   1.980   1.695 -0.1623  0.2010  0.3249
 7417TIP3    H146446   5.382   1.925   1.761  2.1171 -0.1680 -1.3237
 7417TIP3    H246447   5.300   1.917   1.634 -0.9991  0.5057  0.5426
 7418TIP3   OH246448   4.554   5.997   2.175 -0.3460 -0.0143 -0.5096
 7418TIP3    H146449   4.641   5.995   2.135 -0.6804 -2.5070 -1.2885
 7418TIP3    H246450   4.570   5.982   2.269  0.2112  2.5404 -0.1360
 7419TIP3   OH246451   6.073   4.866   2.526  0.2200 -0.5755  0.1963
 7419TIP3    H146452   6.086   4.895   2.436  1.8604 -2.1188 -0.1350
 7419TIP3    H246453   6.000   4.803   2.520  0.6529 -1.0530 -0.1593
 7420TIP3   OH246454   1.633   1.578   2.929  0.5031 -0.2987 -0.2102
 7420TIP3    H146455   1.543   1.566   2.959 -0.5728  0.9930 -2.6652
 7420TIP3    H246456   1.676   1.623   3.002 -1.5882  1.4731  0.0282
 7421TIP3   OH246457   2.343   4.112   0.811  0.2419 -0.3321  0.4231
 7421TIP3    H146458   2.303   4.197   0.826  0.0045  0.0834 -2.0746
 7421TIP3    H246459   2.286   4.050   0.858 -1.7210  0.5546 -0.6315
 7422TIP3   OH246460   1.665   1.650   0.573  0.6425 -0.5620  0.8129
 7422TIP3    H146461   1.596   1.675   0.634  0.4134  1.6609 -0.2603
 7422TIP3    H246462   1.746   1.681   0.613  0.7393 -1.0186  0.9710
 7423TIP3   OH246463   2.120   0.490   4.017 -0.1754 -0.5574  0.6859
 7423TIP3    H146464   2.211   0.467   3.996 -0.7067 -0.9855 -1.3149
 7423TIP3    H246465   2.083   0.410   4.055 -0.4048 -1.2724 -0.9376
 7424TIP3   OH246466   1.584   6.336   1.795 -0.3741 -0.6430 -1.0039
 7424TIP3    H146467   1.629   6.347   1.712  0.3790 -2.3002 -0.8570
 7424TIP3    H246468   1.532   6.416   1.806 -0.0037 -0.1381 -2.7467
 7425TIP3   OH246469   3.873   0.508   2.100  0.0522 -0.4422 -0.5736
 7425TIP3    H146470   3.949   0.563   2.080 -0.5071 -0.2951 -2.4713
 7425TIP3    H246471   3.798   0.559   2.071 -0.6355 -1.3620 -0.4584
 7426TIP3   OH246472   4.676   3.750   0.866 -0.4970 -0.1912  0.5376
 7426TIP3    H146473   4.676   3.713   0.778 -1.7139  0.7482  0.1061
 7426TIP3    H246474   4.654   3.842   0.853  0.9211  0.3478  1.7004
 7427TIP3   OH246475   6.267   4.854   2.069  0.0412 -0.3703  0.4110
 7427TIP3    H146476   6.285   4.911   1.995 -1.9721 -0.5908 -0.3333
 7427TIP3    H246477   6.322   4.886   2.139 -0.5473  2.0882 -0.1663
 7428TIP3   OH246478   2.913   3.151   0.991 -0.0380 -0.6392 -0.0647
 7428TIP3    H146479   2.948   3.066   0.965  1.2489 -0.5893  1.3251
 7428TIP3    H246480   2.922   3.152   1.087 -2.3486  0.0905  0.1990
 7429TIP3   OH246481   0.533   5.787   0.545  0.8287 -0.4729 -0.6221
 7429TIP3    H146482   0.566   5.831   0.624  0.4861  0.2284 -0.8578
 7429TIP3    H246483   0.536   5.854   0.477 -1.3652 -0.2345 -0.5797
 7430TIP3   OH246484   6.441   1.560   1.296  0.9012  0.1149  0.4302
 7430TIP3    H146485   6.496   1.563   1.375  1.7719 -0.7991 -0.1171
 7430TIP3    H246486   6.430   1.467   1.278  0.9615  0.3105 -0.6930
 7431TIP3   OH246487   6.746   4.535   2.618  0.6494  0.4207 -0.2614
 7431TIP3    H146488   6.736   4.601   2.687 -2.2849 -0.1531 -0.0160
 7431TIP3    H246489   6.746   4.451   2.665  0.4662  0.0942 -0.8407
 7432TIP3   OH246490   4.288   2.971   4.198 -0.5557  0.0554  0.5904
 7432TIP3    H146491   4.334   2.887   4.200  0.9116  0.8165 -0.1582
 7432TIP3    H246492   4.201   2.949   4.165  0.9348 -0.7078 -3.3564
 7433TIP3   OH246493   0.822   4.148   1.382  0.0502  0.7169 -0.2159
 7433TIP3    H146494   0.730   4.177   1.375  0.3489  1.7160 -0.2117
 7433TIP3    H246495   0.836   4.095   1.304 -0.6121  0.3214 -0.0732
 7434TIP3   OH246496   1.486   0.962   0.827  0.3622 -0.0756  0.5002
 7434TIP3    H146497   1.438   1.019   0.768  0.4151  0.8566  1.3336
 7434TIP3    H246498   1.423   0.893   0.849  0.1940 -0.1719 -0.2677
 7435TIP3   OH246499   3.890   3.676   2.971  0.4729  0.0085  0.5346
 7435TIP3    H146500   3.974   3.709   2.941 -0.2001  2.7772  1.4016
 7435TIP3    H246501   3.850   3.636   2.894  2.2373 -0.7126 -0.0502
 7436TIP3   OH246502   2.144   3.035   1.349 -0.0395  0.6255  0.2140
 7436TIP3    H146503   2.072   3.098   1.361 -0.7040 -0.0428 -0.1867
 7436TIP3    H246504   2.122   2.963   1.408  0.5194  0.5864  0.3812
 7437TIP3   OH246505   2.741   3.464   2.979 -0.0743  0.0619  0.3292
 7437TIP3    H146506   2.820   3.457   2.925 -0.8985  0.2149 -0.9564
 7437TIP3    H246507   2.672   3.425   2.925 -1.0873  0.9171  0.9595
 7438TIP3   OH246508   6.446   4.214   2.160 -0.0592 -0.1065 -0.0572
 7438TIP3    H146509   6.489   4.286   2.115 -0.4663  1.4017  1.8104
 7438TIP3    H246510   6.506   4.141   2.152  2.2799  1.5425  1.3181
 7439TIP3   OH246511   3.638   2.843   3.252 -0.3679  0.2078 -0.1173
 7439TIP3    H146512   3.557   2.847   3.303 -0.7335  0.0794 -0.6858
 7439TIP3    H246513   3.625   2.769   3.193  0.4668 -0.2797  0.3025
 7440TIP3   OH246514   1.769   3.973   1.418 -0.0108  0.0227  0.1098
 7440TIP3    H146515   1.821   3.982   1.498  0.4744 -1.5731  0.0062
 7440TIP3    H246516   1.709   4.048   1.420  2.3332  1.9925  0.1769
 7441TIP3   OH246517   2.149   0.994   0.373 -0.5527  0.3730  0.3216
 7441TIP3    H146518   2.151   0.949   0.457  1.7796 -0.8968 -0.3259
 7441TIP3    H246519   2.075   0.955   0.327 -0.8457 -0.0896  1.1678
 7442TIP3   OH246520   4.899   0.433   1.932 -0.2548  0.0857  0.2463
 7442TIP3    H146521   4.988   0.467   1.945 -0.5178  1.6855 -1.6120
 7442TIP3    H246522   4.880   0.452   1.840 -2.0336 -1.4621  0.2351
 7443TIP3   OH246523   5.111   6.562   0.825  0.0164 -1.1748 -0.3597
 7443TIP3    H146524   5.154   6.631   0.774 -0.4749 -0.5943 -0.0169
 7443TIP3    H246525   5.052   6.610   0.884  1.3634 -1.7474  1.5440
 7444TIP3   OH246526   4.799   6.301   2.035 -0.2926  0.0266 -0.0560
 7444TIP3    H146527   4.804   6.369   1.968  1.5324  0.2753  0.2756
 7444TIP3    H246528   4.885   6.302   2.077 -1.6122  0.4647  2.8959
 7445TIP3   OH246529   4.159   4.878   3.102  0.4571  0.1343  0.2500
 7445TIP3    H146530   4.219   4.870   3.176 -1.0701  0.3449  1.5728
 7445TIP3    H246531   4.107   4.956   3.121 -1.7400 -1.2653  0.3353
 7446TIP3   OH246532   4.594   6.691   0.719 -0.1588  0.4093 -0.1918
 7446TIP3    H146533   4.640   6.626   0.773  0.7829  0.8320 -0.4801
 7446TIP3    H246534   4.654   6.710   0.648 -0.7589  1.0281 -0.5387
 7447TIP3   OH246535   6.582   3.212   1.143  0.1009  0.4863 -0.4026
 7447TIP3    H146536   6.677   3.217   1.134  0.1627 -1.1529 -0.9475
 7447TIP3    H246537   6.561   3.276   1.211  1.7242  0.0548  0.5491
 7448TIP3   OH246538   3.218   6.423   1.951 -0.1427  0.3234  0.0543
 7448TIP3    H146539   3.246   6.381   2.032 -0.6039  0.0530  0.0807
 7448TIP3    H246540   3.259   6.372   1.882 -3.1991 -2.2881 -0.0802
 7449TIP3   OH246541   0.976   6.641   0.533  0.0519 -0.3176  0.0724
 7449TIP3    H146542   1.012   6.554   0.554 -0.6187 -0.8551 -0.9335
 7449TIP3    H246543   0.882   6.631   0.542 -0.0165  0.3769  0.1649
 7450TIP3   OH246544   3.749   5.413   2.165 -0.0237  0.0687  0.2957
 7450TIP3    H146545   3.695   5.365   2.228 -0.1299  1.6247  1.4514
 7450TIP3    H246546   3.831   5.365   2.163 -0.0675 -0.1033  1.5343
 7451TIP3   OH246547   6.316   1.635   3.623 -0.4296 -0.3769  0.5141
 7451TIP3    H146548   6.377   1.705   3.602 -0.1863 -0.0600  2.1136
 7451TIP3    H246549   6.256   1.674   3.687 -0.3552 -1.5560  1.3448
 7452TIP3   OH246550   1.470   6.598   1.876  0.4003  0.1268 -0.0455
 7452TIP3    H146551   1.466   6.609   1.971 -1.4734  0.7846 -0.1622
 7452TIP3    H246552   1.545   6.651   1.849 -1.2316  3.0046  0.7238
 7453TIP3   OH246553   1.406   0.068   1.486 -0.0584 -0.2891 -0.4858
 7453TIP3    H146554   1.485   0.120   1.505 -0.6105  0.3453  0.1173
 7453TIP3    H246555   1.377   0.036   1.571 -0.0402 -1.1377 -0.7954
 7454TIP3   OH246556   3.273   1.931   2.458  0.5416 -0.3239 -0.2566
 7454TIP3    H146557   3.278   1.836   2.445  0.2040 -0.4966  0.7816
 7454TIP3    H246558   3.269   1.942   2.553 -0.4232  0.6812 -0.3925
 7455TIP3   OH246559   3.714   1.033   2.391  0.3734 -0.9257  0.7934
 7455TIP3    H146560   3.644   0.978   2.428 -0.7468 -0.1826 -0.1672
 7455TIP3    H246561   3.697   1.120   2.428  1.2865 -0.9053  1.1820
 7456TIP3   OH246562   5.427   6.134   1.008  0.0912  0.2298  0.1514
 7456TIP3    H146563   5.420   6.085   1.090 -0.0342  0.5161  0.3174
 7456TIP3    H246564   5.383   6.217   1.027 -1.1468 -0.2133 -0.6134
 7457TIP3   OH246565   4.805   0.582   2.871  0.1620 -0.1709  0.3201
 7457TIP3    H146566   4.861   0.614   2.800 -2.2747 -1.3333 -2.3643
 7457TIP3    H246567   4.844   0.499   2.898  1.0444  0.2116  0.2222
 7458TIP3   OH246568   3.687   6.640   3.214  0.0766  0.2411  0.5624
 7458TIP3    H146569   3.654   6.618   3.301 -1.8987 -1.8440 -0.5980
 7458TIP3    H246570   3.710   6.556   3.175 -1.3019  0.8264 -1.7262
 7459TIP3   OH246571   6.253   1.696   1.164  0.0618  0.0043 -0.0875
 7459TIP3    H146572   6.289   1.784   1.171  1.1229 -0.2669 -1.6804
 7459TIP3    H246573   6.318   1.640   1.206  0.4640 -0.2449 -1.0187
 7460TIP3   OH246574   2.412   3.041   1.397 -0.0385  0.5377  0.3456
 7460TIP3    H146575   2.433   2.957   1.356  0.3168  0.7956 -0.0016
 7460TIP3    H246576   2.316   3.046   1.394 -0.1422 -0.3457  1.3508
 7461TIP3   OH246577   4.950   0.542   0.772 -0.4785  0.0157  0.1644
 7461TIP3    H146578   4.895   0.591   0.832 -0.3885  1.5769 -0.9929
 7461TIP3    H246579   4.899   0.464   0.751 -1.5837  0.6856  0.2986
 7462TIP3   OH246580   2.027   5.920   1.561 -0.2013 -0.0361  0.5203
 7462TIP3    H146581   1.975   5.982   1.612 -0.5635 -0.0289  0.1486
 7462TIP3    H246582   1.974   5.902   1.483 -0.3252 -1.1883  0.8511
 7463TIP3   OH246583   6.038   4.177   4.005 -0.2074 -0.1925  0.0124
 7463TIP3    H146584   5.989   4.162   3.924  0.1414  0.7468 -0.3774
 7463TIP3    H246585   6.085   4.095   4.020  0.0552 -0.2286 -0.9609
 7464TIP3   OH246586   4.746   2.867   1.662 -0.1389 -0.5131  0.0443
 7464TIP3    H146587   4.815   2.818   1.707 -0.9010 -1.2150  0.4757
 7464TIP3    H246588   4.786   2.953   1.644  0.9569 -1.0158 -0.0339
 7465TIP3   OH246589   4.140   4.311   1.993 -0.1919  0.2553  0.3083
 7465TIP3    H146590   4.154   4.279   2.083  0.6095 -0.2487  0.0209
 7465TIP3    H246591   4.091   4.392   2.004  0.2557  0.4186  1.2363
 7466TIP3   OH246592   4.095   6.277   1.187  0.5274 -0.0157 -0.6408
 7466TIP3    H146593   4.091   6.370   1.209  1.9051 -0.5014  1.9216
 7466TIP3    H246594   4.188   6.255   1.190  0.1807 -1.6092 -0.6962
 7467TIP3   OH246595   1.624   4.356   1.331  0.3365  0.1715  0.1489
 7467TIP3    H146596   1.652   4.424   1.269  0.8410  0.6510  0.9000
 7467TIP3    H246597   1.532   4.340   1.308  0.3974  0.6448 -0.4530
 7468TIP3   OH246598   0.808   0.564   3.843 -0.5109  0.2287  0.0927
 7468TIP3    H146599   0.712   0.559   3.845 -0.4959  0.2277  1.7391
 7468TIP3    H246600   0.835   0.540   3.931  1.0539 -0.3918 -0.5288
 7469TIP3   OH246601   6.583   2.556   2.146 -0.0152  0.0641  0.4092
 7469TIP3    H146602   6.530   2.480   2.125  0.2570 -0.1441  0.4679
 7469TIP3    H246603   6.653   2.523   2.202 -1.0542  0.7274  2.1463
 7470TIP3   OH246604   1.339   5.073   0.884 -0.5872  0.0025  0.2046
 7470TIP3    H146605   1.256   5.024   0.885 -0.3640 -0.5874 -2.5362
 7470TIP3    H246606   1.402   5.013   0.923 -1.1772 -0.0246  1.1670
 7471TIP3   OH246607   2.066   2.548   1.232 -0.3366  0.1099 -0.0982
 7471TIP3    H146608   2.124   2.480   1.265 -0.1258  0.0825 -0.5331
 7471TIP3    H246609   2.080   2.622   1.291 -1.9850 -0.8434  1.5973
 7472TIP3   OH246610   2.474   4.708   3.321 -0.5597  0.6582 -0.1005
 7472TIP3    H146611   2.551   4.701   3.265 -2.2046 -0.4864 -2.3547
 7472TIP3    H246612   2.402   4.675   3.268 -2.2552 -0.5617  2.7123
 7473TIP3   OH246613   5.603   1.267   1.118  0.9755 -0.0460  0.4930
 7473TIP3    H146614   5.624   1.291   1.028  1.6349 -0.8739  0.4144
 7473TIP3    H246615   5.568   1.178   1.112 -1.0593  0.6928  0.8155
 7474TIP3   OH246616   6.009   6.640   4.102  0.0373 -0.3040 -0.1526
 7474TIP3    H146617   6.077   6.705   4.080  0.4929 -0.2874  1.2196
 7474TIP3    H246618   6.052   6.556   4.089  0.1496 -0.3008  0.1973
 7475TIP3   OH246619   4.646   6.546   1.123 -0.1550 -0.1229 -0.4963
 7475TIP3    H146620   4.673   6.511   1.039  1.2349 -0.8054  0.2039
 7475TIP3    H246621   4.565   6.499   1.144  0.6425 -1.5280 -0.4782
 7476TIP3   OH246622   2.212   3.394   0.984 -0.5025 -0.4517 -0.3091
 7476TIP3    H146623   2.162   3.348   0.916  1.6661 -0.2914 -2.1663
 7476TIP3    H246624   2.281   3.332   1.008 -0.4761  0.0009  0.8336
 7477TIP3   OH246625   0.005   6.037   2.452 -0.4016  0.4082 -0.8979
 7477TIP3    H146626   0.036   6.029   2.362  0.4214 -1.9287 -0.4587
 7477TIP3    H246627   0.070   6.093   2.495  0.7039 -0.6293 -1.1481
 7478TIP3   OH246628   6.038   4.571   2.299 -0.1388  0.2281  0.3893
 7478TIP3    H146629   6.123   4.550   2.339 -0.9045  1.2162  2.6573
 7478TIP3    H246630   6.054   4.562   2.205  3.2630  2.9070  0.4945
 7479TIP3   OH246631   4.465   0.328  10.423 -0.2990 -0.1631 -0.2526
 7479TIP3    H146632   4.515   0.286  10.493  0.7759  0.1907 -0.7899
 7479TIP3    H246633   4.461   0.262  10.354 -1.3695 -0.5153  0.1274
 7480TIP3   OH246634   2.600   5.228   3.921  0.8356  0.2560 -0.3746
 7480TIP3    H146635   2.603   5.270   4.007  0.6868 -0.4776 -0.0088
 7480TIP3    H246636   2.507   5.224   3.900  0.9019  1.0672 -0.8969
 7481TIP3   OH246637   4.903   1.704   3.091 -0.2300  0.3078  0.7466
 7481TIP3    H146638   4.863   1.630   3.136 -2.0971  0.0676 -1.1695
 7481TIP3    H246639   4.964   1.665   3.029 -0.2602  0.4570  0.6234
 7482TIP3   OH246640   5.224   6.187   3.853 -0.2386 -0.1784 -0.0731
 7482TIP3    H146641   5.216   6.253   3.921 -0.9765 -0.0583 -0.2600
 7482TIP3    H246642   5.174   6.112   3.887  0.2832 -0.5057 -0.0219
 7483TIP3   OH246643   0.129   1.363   0.990  0.3757  0.5650 -0.2032
 7483TIP3    H146644   0.174   1.298   1.043 -0.1924  0.8614  0.6669
 7483TIP3    H246645   0.038   1.334   0.988  0.1511  1.2262  0.0466
 7484TIP3   OH246646   3.971   2.485   2.181  0.1295 -0.3947  0.4538
 7484TIP3    H146647   4.065   2.472   2.192  0.2908  0.3647  0.0428
 7484TIP3    H246648   3.962   2.576   2.155 -0.7446 -0.3997  0.7111
 7485TIP3   OH246649   3.871   1.472   2.979 -0.6356  0.7767 -0.0763
 7485TIP3    H146650   3.919   1.414   3.038 -0.5201  0.9109 -0.0381
 7485TIP3    H246651   3.938   1.511   2.923 -0.7298  0.7568 -0.2032
 7486TIP3   OH246652   0.566   3.063   1.460  0.1258 -0.1088  0.2345
 7486TIP3    H146653   0.576   3.150   1.499  1.0271  0.7931 -1.8618
 7486TIP3    H246654   0.632   3.060   1.391 -1.0797 -1.7702 -0.9237
 7487TIP3   OH246655   2.409   4.814   1.107  0.3402  0.5056  0.1779
 7487TIP3    H146656   2.325   4.828   1.062 -0.9115  0.5328  2.3538
 7487TIP3    H246657   2.475   4.841   1.044 -1.2251 -0.2947 -1.9441
 7488TIP3   OH246658   1.877   0.788   2.813  0.5193 -0.3468  0.5314
 7488TIP3    H146659   1.812   0.820   2.751 -1.1913 -2.1917  1.2840
 7488TIP3    H246660   1.947   0.753   2.758 -0.6907 -1.4179 -0.3914
 7489TIP3   OH246661   6.488   6.373   1.161  0.3850  0.4071 -0.4493
 7489TIP3    H146662   6.412   6.362   1.103 -0.1404  1.2523  0.0553
 7489TIP3    H246663   6.462   6.332   1.243  0.2007  1.2829 -0.0574
 7490TIP3   OH246664   6.320   0.179   2.239  0.3738 -0.3578  0.1212
 7490TIP3    H146665   6.343   0.272   2.247  0.0029 -0.4066  2.0385
 7490TIP3    H246666   6.225   0.177   2.254  0.3655 -1.0513 -0.0185
 7491TIP3   OH246667   3.011   3.030   3.492 -0.5286  0.3525  0.7461
 7491TIP3    H146668   3.035   3.020   3.400 -0.6477 -0.6974  0.8154
 7491TIP3    H246669   2.995   3.124   3.503  0.7743  0.6818  0.0246
 7492TIP3   OH246670   6.108   5.535   2.310 -0.1433  0.4581  0.1196
 7492TIP3    H146671   6.162   5.570   2.380 -1.7987 -0.5148  1.9681
 7492TIP3    H246672   6.097   5.607   2.248  1.2469  1.3717  0.9034
 7493TIP3   OH246673   5.955   4.237   3.747 -0.2373 -0.3214 -0.3303
 7493TIP3    H146674   5.863   4.262   3.757 -0.7248 -2.3774  0.7282
 7493TIP3    H246675   5.959   4.197   3.660 -0.9764 -2.5588  0.5977
 7494TIP3   OH246676   3.555   3.423   1.368 -0.2490 -0.1644  0.7101
 7494TIP3    H146677   3.600   3.493   1.414 -1.4624  0.1098  1.5420
 7494TIP3    H246678   3.521   3.464   1.289  0.1562 -0.1387  0.5504
 7495TIP3   OH246679   2.913   2.710   3.476  0.4103  0.1556 -0.4665
 7495TIP3    H146680   2.899   2.801   3.503  0.2215 -0.4187  1.5724
 7495TIP3    H246681   3.006   2.694   3.494  0.2179 -0.3164  0.1623
 7496TIP3   OH246682   0.860   1.669   1.077 -0.1509  0.1021 -0.2897
 7496TIP3    H146683   0.910   1.602   1.122 -0.9372  1.3790  2.7286
 7496TIP3    H246684   0.819   1.623   1.003  2.5123 -1.7379 -0.7422
 7497TIP3   OH246685   6.580   5.067   0.720 -0.4622 -0.2435 -0.2259
 7497TIP3    H146686   6.668   5.034   0.732  0.2813  1.7617  0.3175
 7497TIP3    H246687   6.551   5.092   0.808 -1.0422  0.3286 -0.5624
 7498TIP3   OH246688   3.005   1.968   2.367  0.0937  0.0088 -0.5555
 7498TIP3    H146689   3.093   1.975   2.404 -0.4798  2.0118  0.5442
 7498TIP3    H246690   3.018   1.977   2.273  0.9343  2.3347 -0.2715
 7499TIP3   OH246691   5.013   5.100   2.823  0.0698  0.6512 -0.1232
 7499TIP3    H146692   5.008   5.140   2.735 -0.5798  2.4328  0.6657
 7499TIP3    H246693   5.071   5.158   2.872  3.1803 -2.1432 -0.2007
 7500TIP3   OH246694   5.948   3.089   2.461 -0.6288 -0.3263 -0.5403
 7500TIP3    H146695   6.008   3.026   2.501 -0.7881  0.0403  0.2972
 7500TIP3    H246696   6.000   3.168   2.450 -0.4838 -0.5334 -1.4133
 7501TIP3   OH246697   0.598   0.882   1.827 -0.0969  0.2546  0.2266
 7501TIP3    H146698   0.517   0.872   1.778 -1.1092  1.7761  1.4771
 7501TIP3    H246699   0.591   0.968   1.868  0.6783 -0.8491  2.9449
 7502TIP3   OH246700   1.347   4.835   2.558  0.1033 -0.5302  0.3213
 7502TIP3    H146701   1.293   4.858   2.482  0.8137 -0.4903 -0.1824
 7502TIP3    H246702   1.385   4.918   2.587 -0.0173 -0.5737  0.6139
 7503TIP3   OH246703   0.155   1.889   2.149  0.1780 -0.4083 -0.2590
 7503TIP3    H146704   0.115   1.861   2.232  1.2046 -1.5192 -0.1087
 7503TIP3    H246705   0.249   1.893   2.168  0.3676 -0.0606 -1.2067
 7504TIP3   OH246706   2.055   2.736   2.113  0.3211  0.0793  0.1399
 7504TIP3    H146707   2.030   2.826   2.131 -0.7443  0.2546 -1.8550
 7504TIP3    H246708   1.985   2.683   2.151  0.2291  0.1941  0.1311
 7505TIP3   OH246709   2.862   0.091   0.815 -0.0767 -0.4722  0.2137
 7505TIP3    H146710   2.902   0.026   0.756 -0.8290  0.1549 -1.0292
 7505TIP3    H246711   2.907   0.173   0.795  0.0194 -0.3486  0.9013
 7506TIP3   OH246712   6.459   1.353   0.925 -0.2469 -0.0198 -0.4971
 7506TIP3    H146713   6.434   1.270   0.884  1.1034  1.5455 -5.0212
 7506TIP3    H246714   6.376   1.394   0.950 -0.9999 -2.0926  0.6510
 7507TIP3   OH246715   5.673   4.160   3.556 -0.3618  0.1037 -0.5611
 7507TIP3    H146716   5.659   4.087   3.616 -0.3490 -0.7341 -1.5487
 7507TIP3    H246717   5.595   4.215   3.565 -0.2675  0.0884  0.3578
 7508TIP3   OH246718   3.384   5.983   2.773 -0.5893 -0.1367  0.2183
 7508TIP3    H146719   3.325   5.970   2.698 -1.9852  2.6735  0.6978
 7508TIP3    H246720   3.395   5.895   2.810 -2.8772 -1.0762 -1.0973
 7509TIP3   OH246721   4.785   1.332   3.966  0.2773  0.3432  0.8885
 7509TIP3    H146722   4.849   1.403   3.958  0.6007  0.0894  1.2187
 7509TIP3    H246723   4.817   1.279   4.039  1.3327 -1.4385 -0.7558
 7510TIP3   OH246724   6.082   0.348   1.777 -0.2796  0.2613  0.1236
 7510TIP3    H146725   6.096   0.331   1.684  1.1653 -1.0501  0.5244
 7510TIP3    H246726   5.995   0.387   1.782 -1.3362 -1.6410 -1.5825
 7511TIP3   OH246727   1.652   4.742   2.158 -0.1162 -0.5303  0.0482
 7511TIP3    H146728   1.639   4.649   2.143 -2.2189 -0.3907  0.6944
 7511TIP3    H246729   1.575   4.784   2.119 -0.6508  0.6544  2.1604
 7512TIP3   OH246730   2.163   0.765   1.222 -0.1781  0.1934 -0.4478
 7512TIP3    H146731   2.217   0.837   1.189  0.6478 -0.5892 -0.8330
 7512TIP3    H246732   2.076   0.781   1.186 -0.1354  1.2779 -0.1040
 7513TIP3   OH246733   2.449   3.694   1.488  0.2951 -0.1480 -0.1895
 7513TIP3    H146734   2.540   3.702   1.515  0.9135 -0.1189 -2.1029
 7513TIP3    H246735   2.453   3.647   1.404 -1.6541 -2.3531  0.8230
 7514TIP3   OH246736   5.099   4.128   3.243  0.0611  0.2498  0.1313
 7514TIP3    H146737   5.170   4.126   3.307  0.5216 -0.6641 -0.3978
 7514TIP3    H246738   5.021   4.101   3.293  0.2075  0.5791  0.5471
 7515TIP3   OH246739   3.529   1.162   2.719 -0.2414 -0.0259 -0.0144
 7515TIP3    H146740   3.544   1.068   2.719 -0.1896 -0.0508 -1.6688
 7515TIP3    H246741   3.452   1.174   2.775  0.5301 -0.8780  1.2814
 7516TIP3   OH246742   0.257   0.403   3.110 -0.0508 -0.1478 -0.0649
 7516TIP3    H146743   0.193   0.388   3.179  0.5275  1.1644  0.7927
 7516TIP3    H246744   0.338   0.421   3.156  0.9684 -1.7376 -1.1365
 7517TIP3   OH246745   5.710   1.104   1.586  0.2018  0.0630 -0.1332
 7517TIP3    H146746   5.780   1.168   1.578 -0.5404  0.8724 -0.2824
 7517TIP3    H246747   5.743   1.026   1.540  2.1614 -0.6275  2.2223
 7518TIP3   OH246748   5.140   2.142   2.676 -0.5527  0.0065  0.2929
 7518TIP3    H146749   5.079   2.146   2.602 -2.6274  1.8881  1.9516
 7518TIP3    H246750   5.222   2.112   2.638 -2.3690 -2.4212 -2.1456
 7519TIP3   OH246751   4.168   2.009   2.871 -0.1792  0.7376  0.2377
 7519TIP3    H146752   4.196   1.964   2.791  1.9102  0.5247  1.0137
 7519TIP3    H246753   4.151   2.099   2.844 -2.2166  0.0572 -0.9234
 7520TIP3   OH246754   2.216   5.488   3.745  0.7277 -0.3215  0.4862
 7520TIP3    H146755   2.255   5.450   3.824  1.2985 -1.0443 -0.1240
 7520TIP3    H246756   2.288   5.537   3.705 -0.3439  2.6362  1.9685
 7521TIP3   OH246757   2.587   3.835   4.127 -0.0925 -0.4288 -0.1497
 7521TIP3    H146758   2.612   3.743   4.129  0.5000 -0.2948 -0.8611
 7521TIP3    H246759   2.549   3.852   4.213 -1.9392 -1.8138 -0.6326
 7522TIP3   OH246760   1.576   3.313   3.140  0.0287 -0.5628 -0.5058
 7522TIP3    H146761   1.612   3.228   3.163 -1.9659 -1.6467 -1.2225
 7522TIP3    H246762   1.550   3.305   3.049 -1.1387  0.4602 -0.2893
 7523TIP3   OH246763   3.953   3.876   0.702  0.1641 -0.1895  0.0600
 7523TIP3    H146764   4.005   3.954   0.681  0.6312 -0.1241  1.3696
 7523TIP3    H246765   4.015   3.804   0.698 -0.3004 -0.5402 -1.2970
 7524TIP3   OH246766   5.358   4.976   2.380 -0.3165  0.4773  0.9340
 7524TIP3    H146767   5.333   5.041   2.314 -1.9629  0.5623  1.5773
 7524TIP3    H246768   5.317   4.895   2.350  0.4144  0.1032  0.9425
 7525TIP3   OH246769   2.468   5.554   2.426 -0.9518  0.2133  0.1515
 7525TIP3    H146770   2.448   5.461   2.416  3.3873 -1.1204  1.7185
 7525TIP3    H246771   2.438   5.576   2.514 -0.7535 -0.1063  0.3008
 7526TIP3   OH246772   3.202   3.497   1.790  0.9089 -0.6825 -0.0375
 7526TIP3    H146773   3.230   3.582   1.758  3.2545 -0.6912  1.7078
 7526TIP3    H246774   3.142   3.464   1.723 -1.4863  3.0127  0.0253
 7527TIP3   OH246775   4.473   3.020   2.290  0.0830  0.5957  0.1227
 7527TIP3    H146776   4.408   2.992   2.354 -0.2826  0.2659 -0.3864
 7527TIP3    H246777   4.487   2.943   2.235 -1.4779  1.5604 -1.7671
 7528TIP3   OH246778   3.571   2.569   0.586  0.1732 -0.4119 -0.7392
 7528TIP3    H146779   3.511   2.507   0.628  0.1054 -1.2416 -2.0061
 7528TIP3    H246780   3.650   2.564   0.639  0.1113 -1.4795 -0.7187
 7529TIP3   OH246781   2.756   1.656   1.023 -0.7053 -0.2530  0.3396
 7529TIP3    H146782   2.732   1.733   0.971  0.7450 -1.2637 -1.9609
 7529TIP3    H246783   2.827   1.686   1.079  0.1986  0.0056 -0.9064
 7530TIP3   OH246784   0.084   5.550   2.572  0.0158 -0.1551 -0.1444
 7530TIP3    H146785   0.146   5.482   2.545 -1.3455 -1.0436 -1.1866
 7530TIP3    H246786   0.133   5.631   2.565  1.1986 -0.8714 -0.5121
 7531TIP3   OH246787   6.457   2.680   1.172  0.6192 -0.3835  0.1737
 7531TIP3    H146788   6.487   2.649   1.087  0.3923 -0.5904  0.1669
 7531TIP3    H246789   6.442   2.774   1.160 -0.5579 -0.6232 -0.3570
 7532TIP3   OH246790   5.939   2.653   0.882 -0.4031  0.0536 -0.1109
 7532TIP3    H146791   5.995   2.607   0.945 -1.8046 -1.9715 -0.2456
 7532TIP3    H246792   6.000   2.692   0.819  0.9228  0.1867  1.2067
 7533TIP3   OH246793   4.020   0.087   3.468  0.0241 -0.0426  0.6074
 7533TIP3    H146794   4.045   0.172   3.504 -0.8152  0.1922  0.6473
 7533TIP3    H246795   3.950   0.106   3.406 -1.8145 -0.9106  2.2962
 7534TIP3   OH246796   3.232   3.818   1.831 -0.0703 -0.4594  0.7875
 7534TIP3    H146797   3.254   3.801   1.923  1.5692 -1.7842  0.1881
 7534TIP3    H246798   3.242   3.913   1.822 -0.5464 -0.2729  2.0433
 7535TIP3   OH246799   1.886   4.484   3.511 -0.0346 -0.6297 -0.3396
 7535TIP3    H146800   1.879   4.398   3.470  0.1984 -0.7431 -0.1490
 7535TIP3    H246801   1.845   4.545   3.450 -3.2130 -1.2897  0.9293
 7536TIP3   OH246802   2.787   3.165   2.443 -0.5855 -0.0914  0.3190
 7536TIP3    H146803   2.719   3.198   2.502  0.0144 -1.8333  2.1062
 7536TIP3    H246804   2.863   3.221   2.462 -0.5492 -0.3117  0.8538
 7537TIP3   OH246805   0.226   1.052   0.718  0.0983 -0.1708  0.2054
 7537TIP3    H146806   0.216   0.999   0.639  0.5439  0.7388 -0.4845
 7537TIP3    H246807   0.169   1.128   0.703  1.1880  0.6601  0.1575
 7538TIP3   OH246808   0.105   6.748   2.772 -0.0018  0.2225 -0.3533
 7538TIP3    H146809   0.016   6.729   2.742 -0.3945 -0.1914  0.9829
 7538TIP3    H246810   0.099   6.835   2.811  0.5490  0.8480 -1.6237
 7539TIP3   OH246811   6.455   3.000   0.698  0.6653  0.1709 -0.0182
 7539TIP3    H146812   6.536   3.042   0.670  0.2629  0.3114 -0.9898
 7539TIP3    H246813   6.444   3.028   0.789  0.6676  1.7629 -0.4879
 7540TIP3   OH246814   2.815   1.433   1.289  0.1748  0.2627 -0.1650
 7540TIP3    H146815   2.720   1.426   1.296  0.3082  0.1378  2.2826
 7540TIP3    H246816   2.832   1.527   1.290  0.0150  0.4560 -3.4502
 7541TIP3   OH246817   6.759   2.866   0.932  0.2334 -0.5213  0.1848
 7541TIP3    H146818   6.673   2.825   0.933 -1.1516  2.0857  2.1598
 7541TIP3    H246819   6.805   2.827   1.007 -0.3447  0.0785  0.8695
 7542TIP3   OH246820   3.793   6.307   2.418 -0.0590  0.0574 -0.2278
 7542TIP3    H146821   3.821   6.342   2.333 -0.1458 -0.0236 -0.2902
 7542TIP3    H246822   3.784   6.384   2.474  0.4798  0.0645 -0.1490
 7543TIP3   OH246823   2.721   0.879   0.878 -0.0831  0.0995  0.7304
 7543TIP3    H146824   2.812   0.887   0.851  0.3880 -1.0930  1.8466
 7543TIP3    H246825   2.691   0.969   0.890 -0.4501  0.8220 -3.8441
 7544TIP3   OH246826   6.476   5.761   2.813 -0.1028 -0.0859  0.4616
 7544TIP3    H146827   6.504   5.848   2.787 -1.1881  0.3335  0.6438
 7544TIP3    H246828   6.528   5.702   2.758 -0.2808  0.7045 -0.5942
 7545TIP3   OH246829   2.532   2.918   3.706  0.3180  0.0789 -0.1213
 7545TIP3    H146830   2.457   2.913   3.646  0.4063 -3.3744 -0.1596
 7545TIP3    H246831   2.608   2.910   3.649  0.5049 -0.6895  0.2236
 7546TIP3   OH246832   1.571   2.558   2.681 -0.2040  0.7975 -0.8524
 7546TIP3    H146833   1.606   2.509   2.607 -1.5224  0.3968 -1.2478
 7546TIP3    H246834   1.633   2.544   2.752 -1.1196 -2.5456 -0.5477
 7547TIP3   OH246835   4.517   2.502   2.106  0.4434 -1.0779  0.3191
 7547TIP3    H146836   4.541   2.452   2.028 -3.4060 -1.2215 -0.9881
 7547TIP3    H246837   4.525   2.594   2.080  3.1198 -0.9505  1.2468
 7548TIP3   OH246838   5.703   2.377   0.657  0.1541  0.1892  0.1272
 7548TIP3    H146839   5.693   2.472   0.650  2.2419  0.7354  2.9147
 7548TIP3    H246840   5.774   2.356   0.597 -1.5249 -0.0061 -1.9117
 7549TIP3   OH246841   6.406   2.948   1.068 -0.0699  0.1428  0.1680
 7549TIP3    H146842   6.434   3.008   0.999 -1.9613  0.0149 -0.7794
 7549TIP3    H246843   6.366   3.004   1.134 -0.5269  0.0661 -0.0382
 7550TIP3   OH246844   3.159   3.471   3.885  0.4118  0.4917 -0.0119
 7550TIP3    H146845   3.139   3.552   3.838 -0.4780  0.7614  0.8104
 7550TIP3    H246846   3.252   3.480   3.909  0.4661  1.0174 -0.4056
 7551TIP3   OH246847   2.951   0.806   3.235  0.4665 -0.0918  0.3525
 7551TIP3    H146848   2.946   0.824   3.141 -1.5423 -1.0297  0.2348
 7551TIP3    H246849   2.994   0.720   3.241 -0.8511 -0.7778  0.1726
 7552TIP3   OH246850   4.436   5.044   1.334  0.1252 -0.2776 -0.1526
 7552TIP3    H146851   4.523   5.048   1.294  0.3803  1.6486  0.4901
 7552TIP3    H246852   4.397   4.964   1.299  1.8123 -0.7076 -1.1540
 7553TIP3   OH246853   3.039   2.278   3.590 -0.0891  0.0711  0.1193
 7553TIP3    H146854   2.955   2.248   3.555 -0.4645  1.7256 -0.4434
 7553TIP3    H246855   3.102   2.212   3.560 -0.7656  0.2097 -1.6914
 7554TIP3   OH246856   3.510   4.136   0.712  0.1892 -0.2370 -0.9434
 7554TIP3    H146857   3.421   4.171   0.705  0.1507  0.0202  0.4831
 7554TIP3    H246858   3.498   4.041   0.711  0.1454 -0.2493 -3.1930
 7555TIP3   OH246859   2.279   0.696   1.453 -0.1766  0.0228 -0.2499
 7555TIP3    H146860   2.235   0.725   1.374  0.0508 -1.2973 -0.8851
 7555TIP3    H246861   2.370   0.680   1.426  0.2113  0.7534  0.5671
 7556TIP3   OH246862   5.298   4.397   1.945  0.5824  0.0269  0.3302
 7556TIP3    H146863   5.333   4.443   2.021 -0.4813  1.7624 -0.1799
 7556TIP3    H246864   5.282   4.308   1.977  0.0298  0.7402  2.1875
 7557TIP3   OH246865   0.103   4.714   3.208 -0.1518  0.2173  0.2278
 7557TIP3    H146866   0.113   4.717   3.303  0.1532  1.7505  0.1787
 7557TIP3    H246867   0.187   4.681   3.176  0.3216  1.2032  0.4248
 7558TIP3   OH246868   0.735   4.249   3.120  0.3561  0.0180  0.4049
 7558TIP3    H146869   0.707   4.296   3.042 -0.0926 -0.8281  0.0468
 7558TIP3    H246870   0.689   4.166   3.116  0.8800 -0.3251  1.2050
 7559TIP3   OH246871   4.692   6.783   3.453 -0.4793 -0.5058 -0.4483
 7559TIP3    H146872   4.754   6.786   3.526 -3.0585 -1.2713  1.9649
 7559TIP3    H246873   4.655   6.871   3.449 -0.7109 -0.6003 -0.4450
 7560TIP3   OH246874   3.861   3.550   0.901  0.0656  0.1741  0.1972
 7560TIP3    H146875   3.845   3.584   0.988 -2.6818 -1.2150  0.3400
 7560TIP3    H246876   3.777   3.513   0.873  1.3084 -1.0561 -2.3036
 7561TIP3   OH246877   0.490   2.188   2.134 -0.6194  0.6095 -0.0836
 7561TIP3    H146878   0.475   2.117   2.195  1.2978  0.8508  0.7462
 7561TIP3    H246879   0.553   2.245   2.178  0.4503  1.0639 -2.0680
 7562TIP3   OH246880   0.351   4.383   3.333  0.7325  0.4147 -0.0058
 7562TIP3    H146881   0.445   4.386   3.353  0.8877  1.3127 -0.7755
 7562TIP3    H246882   0.337   4.295   3.297  0.9389 -0.3085  1.5823
 7563TIP3   OH246883   5.913   1.335   1.947  0.1322  0.0948  0.2331
 7563TIP3    H146884   5.967   1.262   1.917 -0.4866  0.1196 -0.9900
 7563TIP3    H246885   5.975   1.407   1.958  0.4132  0.0640 -0.9532
 7564TIP3   OH246886   0.887   3.823   1.785  0.1473 -0.0328  0.0994
 7564TIP3    H146887   0.915   3.793   1.699  2.3693  1.8912  0.0434
 7564TIP3    H246888   0.914   3.753   1.845 -0.8874 -1.1212 -0.6796
 7565TIP3   OH246889   4.355   1.145   1.908 -0.0016  0.1434 -0.0036
 7565TIP3    H146890   4.270   1.110   1.881  0.2710 -0.2265 -0.3979
 7565TIP3    H246891   4.398   1.169   1.825  1.2699 -1.9613 -0.0180
 7566TIP3   OH246892   5.770   6.769   4.123  0.7678 -0.2413 -0.2525
 7566TIP3    H146893   5.800   6.859   4.139  1.5447 -0.9514  2.9280
 7566TIP3    H246894   5.845   6.714   4.146 -0.3775 -1.7882 -0.0608
 7567TIP3   OH246895   5.084   4.482   1.656 -0.2754 -0.2392  0.2729
 7567TIP3    H146896   5.001   4.435   1.646  0.1951 -1.2684  1.0107
 7567TIP3    H246897   5.151   4.414   1.650  0.4972  0.5083  0.1990
 7568TIP3   OH246898   3.295   1.001   2.566 -0.2740 -0.9713  0.4434
 7568TIP3    H146899   3.230   0.998   2.636  0.0142  0.6047  0.8192
 7568TIP3    H246900   3.298   1.093   2.540  2.3183 -0.8342  0.9364
 7569TIP3   OH246901   2.143   5.242   2.956  0.5569 -0.2132 -0.0221
 7569TIP3    H146902   2.142   5.239   2.860  0.8338 -0.3321 -0.0213
 7569TIP3    H246903   2.139   5.151   2.983  0.0077 -0.1609  0.0869
 7570TIP3   OH246904   6.465   4.108   3.806  0.1913 -0.6099 -0.2016
 7570TIP3    H146905   6.418   4.036   3.764 -0.3838 -0.3668  0.0256
 7570TIP3    H246906   6.400   4.151   3.861 -0.2114  1.6726 -2.2414
 7571TIP3   OH246907   1.682   1.100   0.688  0.0891  0.2191  0.1344
 7571TIP3    H146908   1.770   1.068   0.711  0.6649  1.7095  0.0921
 7571TIP3    H246909   1.623   1.032   0.722  1.2224 -0.5336  0.6789
 7572TIP3   OH246910   5.046   6.736   2.153  0.3922  0.5003  0.2128
 7572TIP3    H146911   5.088   6.813   2.190 -1.5374  0.8548  1.7982
 7572TIP3    H246912   5.064   6.666   2.217  1.0990 -0.1062 -0.6162
 7573TIP3   OH246913   0.117   5.540   1.064 -0.5085  0.2414  0.1064
 7573TIP3    H146914   0.176   5.465   1.069 -0.2476  0.5012  1.5893
 7573TIP3    H246915   0.174   5.616   1.053 -0.7691  0.2561 -1.3485
 7574TIP3   OH246916   5.886   1.931   2.793 -0.6298  0.0300 -0.0390
 7574TIP3    H146917   5.956   1.936   2.728 -1.0442 -1.5783 -0.6453
 7574TIP3    H246918   5.911   1.996   2.860  1.0552 -0.0028 -0.5842
 7575TIP3   OH246919   2.868   6.129   1.785 -0.2087  0.2429  0.0783
 7575TIP3    H146920   2.929   6.115   1.713  0.3582 -1.6623  0.8583
 7575TIP3    H246921   2.785   6.092   1.754 -0.5921  1.4311 -0.3908
 7576TIP3   OH246922   6.000   4.052   0.987  0.3277 -0.2888  0.1384
 7576TIP3    H146923   5.960   3.966   0.991  0.9449 -0.7531 -2.1937
 7576TIP3    H246924   5.952   4.104   1.052 -0.0107 -2.3635  1.6429
 7577TIP3   OH246925   2.675   4.835   3.680 -0.1982 -0.3292 -0.2922
 7577TIP3    H146926   2.599   4.780   3.663  0.8564 -1.7765 -0.4808
 7577TIP3    H246927   2.745   4.774   3.705  0.8383  0.9728  0.1429
 7578TIP3   OH246928   4.738   1.319   1.602 -0.5036 -0.2259  0.1556
 7578TIP3    H146929   4.797   1.390   1.577  0.8665 -1.5496 -0.5452
 7578TIP3    H246930   4.669   1.361   1.651  0.6909  1.4924  0.4390
 7579TIP3   OH246931   1.034   6.022   1.689 -0.1493 -0.5322 -0.2268
 7579TIP3    H146932   1.086   5.948   1.720  2.2558  0.4755 -1.5180
 7579TIP3    H246933   1.032   6.083   1.763 -0.1200 -0.9100  0.0858
 7580TIP3   OH246934   4.119   2.506   3.891 -0.0545 -0.4007 -0.1398
 7580TIP3    H146935   4.059   2.464   3.953 -1.9502  0.1065 -1.5506
 7580TIP3    H246936   4.162   2.575   3.941 -3.0550  1.3550  0.1989
 7581TIP3   OH246937   5.532   1.577   2.244 -0.5736 -0.3175  0.7007
 7581TIP3    H146938   5.437   1.570   2.240 -0.8222  1.7096  1.6831
 7581TIP3    H246939   5.555   1.548   2.332  0.0456 -3.1109 -0.2875
 7582TIP3   OH246940   2.346   3.771   1.734  0.1732 -0.5941  0.1383
 7582TIP3    H146941   2.343   3.709   1.661 -2.1885  2.3352 -2.6159
 7582TIP3    H246942   2.408   3.838   1.706 -1.1482  0.8490  0.5154
 7583TIP3   OH246943   5.898   5.752   1.360  0.3387 -0.3987  0.2464
 7583TIP3    H146944   5.840   5.815   1.404  2.6354  1.9504  0.1711
 7583TIP3    H246945   5.876   5.761   1.267  0.6093  0.2955  0.2399
 7584TIP3   OH246946   0.596   3.547   3.074 -0.1638  0.4637  0.6234
 7584TIP3    H146947   0.573   3.470   3.022  1.0291  0.1365  0.5484
 7584TIP3    H246948   0.673   3.520   3.125  0.3608  1.6298  0.4972
 7585TIP3   OH246949   3.056   0.565   2.415  0.0050  0.2743  0.2004
 7585TIP3    H146950   3.027   0.656   2.428 -2.9153 -0.7495  1.6330
 7585TIP3    H246951   3.012   0.537   2.335 -0.0428 -0.2285  0.4023
 7586TIP3   OH246952   0.591   5.999   1.577  0.0953  0.7442  0.0429
 7586TIP3    H146953   0.612   5.918   1.529 -0.8086  0.2004  0.5230
 7586TIP3    H246954   0.673   6.026   1.617  0.2083 -0.5234  0.7213
 7587TIP3   OH246955   4.926   5.837   3.121  0.0315  0.0342  0.5155
 7587TIP3    H146956   5.010   5.863   3.160  1.0843 -0.3923 -1.3472
 7587TIP3    H246957   4.862   5.898   3.159  1.6225  2.1431 -0.0304
 7588TIP3   OH246958   4.148   0.240   0.799  0.1730 -0.0396 -0.0001
 7588TIP3    H146959   4.131   0.181   0.725  1.1256 -0.6950  0.2808
 7588TIP3    H246960   4.118   0.326   0.769  0.3239 -0.3402 -1.0533
 7589TIP3   OH246961   4.138   1.565   2.416  0.3606  0.1127 -0.1031
 7589TIP3    H146962   4.196   1.597   2.484 -0.7661  2.2418 -0.0636
 7589TIP3    H246963   4.104   1.644   2.374  1.2622 -1.0540 -3.4086
 7590TIP3   OH246964   4.371   2.729   3.312  0.4380  0.1839 -0.9048
 7590TIP3    H146965   4.412   2.658   3.361 -1.2165  0.5335  1.1194
 7590TIP3    H246966   4.414   2.808   3.345 -1.5297  0.5295  1.0395
 7591TIP3   OH246967   1.501   1.046   1.684 -0.2740 -0.5666 -0.2792
 7591TIP3    H146968   1.494   0.987   1.610  1.1984 -0.8628 -0.2033
 7591TIP3    H246969   1.534   1.128   1.647  0.4492 -0.7096  0.0415
 7592TIP3   OH246970   2.389   3.032   3.920  0.2456 -0.8392 -0.3573
 7592TIP3    H146971   2.373   3.125   3.906  1.1191 -0.1913  2.3612
 7592TIP3    H246972   2.443   3.005   3.846  1.8292  1.3773 -0.0989
 7593TIP3   OH246973   5.056   0.974   1.928 -0.2744  0.0915  0.5031
 7593TIP3    H146974   4.986   0.981   1.992 -1.7508 -0.7700 -0.9372
 7593TIP3    H246975   5.090   1.063   1.919 -1.1737  0.5222  1.2240
 7594TIP3   OH246976   3.305   1.581   2.495 -0.2878  0.0408  0.3618
 7594TIP3    H146977   3.240   1.618   2.554 -0.0656  0.7865  0.1565
 7594TIP3    H246978   3.389   1.605   2.534 -0.0510  3.0759 -1.6447
 7595TIP3   OH246979   6.445   0.149   1.196  0.5860  0.5091  0.0848
 7595TIP3    H146980   6.480   0.060   1.192  1.9377  0.9476  1.2146
 7595TIP3    H246981   6.396   0.159   1.115  1.2727 -0.9214 -0.5489
 7596TIP3   OH246982   0.984   4.346   3.611 -0.2671 -0.1566 -0.0871
 7596TIP3    H146983   0.945   4.431   3.587  1.2557  0.3977 -0.7309
 7596TIP3    H246984   0.933   4.282   3.563 -0.8516  0.4863 -0.3409
 7597TIP3   OH246985   3.531   4.223   3.508 -0.1487  0.5300  0.2122
 7597TIP3    H146986   3.441   4.241   3.479 -0.2513 -1.0314 -0.5216
 7597TIP3    H246987   3.554   4.141   3.465  1.5499  0.7661  0.6081
 7598TIP3   OH246988   3.581   1.934   1.481  1.1074  0.2079  0.1145
 7598TIP3    H146989   3.543   1.957   1.396 -0.2045 -0.2075  0.5763
 7598TIP3    H246990   3.673   1.914   1.461  0.8520  0.2308 -1.1794
 7599TIP3   OH246991   1.963   2.342   2.096 -0.3318 -0.5620  0.5418
 7599TIP3    H146992   1.894   2.287   2.058 -0.5991  0.3742 -0.3737
 7599TIP3    H246993   2.039   2.327   2.040 -1.3621  2.5828 -1.9581
 7600TIP3   OH246994   2.732   0.374   2.248  0.4671  0.3117 -0.3541
 7600TIP3    H146995   2.671   0.300   2.254 -0.9093  1.4980  1.1919
 7600TIP3    H246996   2.722   0.420   2.331  0.6465  2.7086 -1.5708
 7601TIP3   OH246997   3.035   4.836   2.777  0.5112 -0.0254  0.3472
 7601TIP3    H146998   3.080   4.828   2.693  0.0829  1.0617 -0.0067
 7601TIP3    H246999   3.058   4.756   2.825  1.1340 -0.4408 -0.6195
 7602TIP3   OH247000   2.558   0.202   1.143 -0.4724 -0.8016  0.4709
 7602TIP3    H147001   2.581   0.160   1.061 -1.7511 -0.1254 -0.2686
 7602TIP3    H247002   2.494   0.269   1.119 -2.6246 -2.0818  2.2879
 7603TIP3   OH247003   3.305   6.159   4.104 -0.1735  0.2205 -0.1400
 7603TIP3    H147004   3.238   6.093   4.121 -0.9493  1.0899  0.2267
 7603TIP3    H247005   3.283   6.232   4.162  1.2599  0.4139  0.2138
 7604TIP3   OH247006   4.947   4.675   2.677 -0.3537  0.2451 -0.4750
 7604TIP3    H147007   4.964   4.747   2.738 -0.5716 -0.4423  0.4110
 7604TIP3    H247008   5.029   4.666   2.628  0.0779  0.3134  0.2262
 7605TIP3   OH247009   4.107   1.577   0.642  0.1425  0.0478  0.0887
 7605TIP3    H147010   4.041   1.540   0.700 -0.9269 -0.6739 -1.5152
 7605TIP3    H247011   4.090   1.537   0.557  1.9324  0.7219 -0.6494
 7606TIP3   OH247012   5.012   2.428   2.518 -0.2679 -0.7384  0.4050
 7606TIP3    H147013   5.070   2.469   2.582  0.7332 -2.5123  0.7033
 7606TIP3    H247014   4.928   2.420   2.564 -0.0656 -0.3956  0.8508
 7607TIP3   OH247015   2.769   4.856   2.756 -0.0179 -0.2508  0.1399
 7607TIP3    H147016   2.751   4.927   2.817 -2.4744 -0.7318  0.0536
 7607TIP3    H247017   2.861   4.833   2.773  0.2794  1.6666  1.4509
 7608TIP3   OH247018   0.605   6.200   1.895 -0.1351  0.3687 -0.0936
 7608TIP3    H147019   0.651   6.159   1.968  0.2058  0.7201 -0.1094
 7608TIP3    H247020   0.586   6.289   1.926 -0.2183  0.4354 -0.3343
 7609TIP3   OH247021   0.573   0.645   1.995  0.1767 -0.6332 -0.2606
 7609TIP3    H147022   0.560   0.568   1.940  0.2582  0.3986 -1.8033
 7609TIP3    H247023   0.554   0.719   1.937 -2.4607  0.4908  1.8462
 7610TIP3   OH247024   2.789   5.308   0.660  0.2561 -0.0401 -0.1750
 7610TIP3    H147025   2.857   5.242   0.649  0.9104  0.7696 -1.2231
 7610TIP3    H247026   2.836   5.392   0.655 -0.8619  0.5403 -1.3904
 7611TIP3   OH247027   4.154   6.769   2.726  0.1949  0.5466 -0.1629
 7611TIP3    H147028   4.102   6.758   2.646  0.5692 -1.5916 -0.1900
 7611TIP3    H247029   4.241   6.735   2.702  1.3251  2.9691  0.2223
 7612TIP3   OH247030   3.189   0.843   1.148 -0.1809 -0.0470 -0.5716
 7612TIP3    H147031   3.167   0.770   1.206 -0.7686 -0.1232 -0.8835
 7612TIP3    H247032   3.283   0.833   1.131  0.1960  0.4605  1.0299
 7613TIP3   OH247033   6.745   0.504   1.479 -1.3340 -0.2775 -0.3861
 7613TIP3    H147034   6.674   0.505   1.543 -1.4688 -0.5447 -0.5271
 7613TIP3    H247035   6.729   0.424   1.427  0.1494 -1.3982  0.8083
 7614TIP3   OH247036   6.073   0.478   1.091 -0.0742 -0.2363  0.2420
 7614TIP3    H147037   6.109   0.438   1.011 -0.2458  2.4841 -1.3114
 7614TIP3    H247038   6.138   0.543   1.117 -0.6851 -0.0967  1.4981
 7615TIP3   OH247039   4.221   6.473   3.983 -0.3733 -0.1854 -0.4498
 7615TIP3    H147040   4.202   6.381   3.967  1.4897 -0.4974 -1.1027
 7615TIP3    H247041   4.261   6.475   4.070  1.2998 -0.2885 -1.1846
 7616TIP3   OH247042   3.950   0.694   3.629 -0.0716  0.1154  0.3210
 7616TIP3    H147043   4.020   0.644   3.588 -1.6229 -2.9148  1.0477
 7616TIP3    H247044   3.962   0.679   3.723 -0.8821  0.7415  0.5384
 7617TIP3   OH247045   2.949   5.499   2.502 -0.5666 -0.1217 -0.0060
 7617TIP3    H147046   2.854   5.497   2.506 -0.5724  0.7711  0.5971
 7617TIP3    H247047   2.976   5.543   2.583  0.4199 -1.5149  0.4547
 7618TIP3   OH247048   2.698   5.924   4.641 -0.5486  0.1260 -0.1991
 7618TIP3    H147049   2.630   5.938   4.707  0.8993  3.6483  0.7968
 7618TIP3    H247050   2.671   5.978   4.567  0.4228  0.4463 -0.3398
 7619TIP3   OH247051   0.690   4.941   2.325  0.2345 -0.0643  0.0433
 7619TIP3    H147052   0.725   4.863   2.282 -1.0982 -0.2984 -0.6696
 7619TIP3    H247053   0.661   4.909   2.411  1.3634  0.0535  0.4870
 7620TIP3   OH247054   3.797   3.636   1.155  0.3500  0.0032  0.3066
 7620TIP3    H147055   3.788   3.541   1.168 -3.7101  0.3522  1.6658
 7620TIP3    H247056   3.859   3.664   1.221  1.3513 -1.6379  0.1189
 7621TIP3   OH247057   0.457   4.366   1.735 -0.1624  0.3521 -0.4893
 7621TIP3    H147058   0.417   4.407   1.812  0.3766  0.6796 -0.3789
 7621TIP3    H247059   0.513   4.297   1.772 -1.6128 -1.0184 -0.6987
 7622TIP3   OH247060   6.579   5.656   3.045  0.3393 -0.7228  0.0803
 7622TIP3    H147061   6.529   5.704   2.979  0.8259  2.2818  1.6836
 7622TIP3    H247062   6.513   5.627   3.109  0.2009 -0.6381 -0.0229
 7623TIP3   OH247063   1.440   3.942   2.644 -0.1515 -0.5418  0.1478
 7623TIP3    H147064   1.362   3.974   2.599  0.0579 -0.2914 -0.0373
 7623TIP3    H247065   1.448   3.999   2.720 -0.7122 -1.1921  0.7092
 7624TIP3   OH247066   2.093   5.012   3.118 -0.1082  0.0619 -0.8150
 7624TIP3    H147067   2.116   4.919   3.114 -0.6277 -0.1001 -0.2102
 7624TIP3    H247068   2.150   5.047   3.187 -0.2755  0.0744 -0.6811
 7625TIP3   OH247069   1.119   2.255   3.102  0.2393 -0.0643  0.1188
 7625TIP3    H147070   1.165   2.175   3.077 -0.8310 -0.6804  0.0315
 7625TIP3    H247071   1.092   2.240   3.192  1.8558  1.0962  0.8300
 7626TIP3   OH247072   1.286   6.369   2.757  0.1420  0.9725 -0.5870
 7626TIP3    H147073   1.226   6.322   2.815  1.1145  0.2560 -0.1373
 7626TIP3    H247074   1.347   6.302   2.726  0.4653  1.6119 -1.3591
 7627TIP3   OH247075   1.032   5.714   2.988 -0.4698  0.0080  0.1539
 7627TIP3    H147076   0.952   5.663   2.973 -0.2380 -0.3784  0.2303
 7627TIP3    H247077   1.000   5.803   3.003 -1.0851 -0.5714  2.6371
 7628TIP3   OH247078   4.910   3.182   3.055 -0.1963  0.1005  0.1877
 7628TIP3    H147079   4.877   3.128   3.127 -0.4029  0.1382  0.1229
 7628TIP3    H247080   4.978   3.237   3.095 -0.0323 -0.1589  0.2674
 7629TIP3   OH247081   0.507   3.247   3.574  0.0204 -0.7822 -0.2768
 7629TIP3    H147082   0.497   3.328   3.525 -0.4806 -0.9194 -0.4079
 7629TIP3    H247083   0.602   3.234   3.580  0.0933 -0.5083 -0.7867
 7630TIP3   OH247084   0.026   5.179   2.163  0.1302  0.0964  0.0735
 7630TIP3    H147085   0.000   5.091   2.190 -2.7691  0.7354 -0.2277
 7630TIP3    H247086  -0.040   5.204   2.098  0.6529  2.6277  0.4221
 7631TIP3   OH247087   0.559   1.589   2.211  0.6736  0.0939 -0.4554
 7631TIP3    H147088   0.634   1.632   2.253  0.2723  0.4236 -0.0713
 7631TIP3    H247089   0.598   1.518   2.160  1.1910 -0.1724  0.2997
 7632TIP3   OH247090   0.702   3.201   2.223 -0.5480  0.4350 -0.0128
 7632TIP3    H147091   0.680   3.294   2.217 -2.2813  0.0759  0.2566
 7632TIP3    H247092   0.657   3.171   2.302  0.1625 -0.5911  0.0158
 7633TIP3   OH247093   2.331   2.924   1.124  0.9770  0.2623  0.2123
 7633TIP3    H147094   2.338   2.853   1.188  1.5160  1.2118  1.2283
 7633TIP3    H247095   2.241   2.918   1.092  0.1441  0.7905  2.2926
 7634TIP3   OH247096   4.665   6.302   0.589 -0.0115  0.2697 -0.1622
 7634TIP3    H147097   4.691   6.217   0.625  2.1785  0.8079 -0.3269
 7634TIP3    H247098   4.728   6.318   0.518  0.8387  2.8164  1.0313
 7635TIP3   OH247099   2.051   3.943   3.146 -0.1274 -0.2688  1.0145
 7635TIP3    H147100   2.065   3.943   3.240  2.7726 -1.1580  0.6643
 7635TIP3    H247101   2.072   3.854   3.118  2.3431  0.7624 -0.7997
 7636TIP3   OH247102   4.748   3.110   0.740  0.0497 -0.1340 -0.1781
 7636TIP3    H147103   4.770   3.058   0.817 -1.3481  0.1988  0.4767
 7636TIP3    H247104   4.785   3.061   0.667  1.1338 -0.6118  0.6571
 7637TIP3   OH247105   1.492   3.518   0.905  0.1759 -0.2547 -0.2944
 7637TIP3    H147106   1.504   3.448   0.841 -0.9270 -0.5678 -0.1781
 7637TIP3    H247107   1.487   3.598   0.853 -1.0760 -0.5462 -0.6360
 7638TIP3   OH247108   3.721   6.392   1.724  0.0614 -0.0372  0.1052
 7638TIP3    H147109   3.718   6.429   1.812  2.0214 -0.6974  0.5097
 7638TIP3    H247110   3.720   6.297   1.738 -1.9947 -0.2003 -0.7553
 7639TIP3   OH247111   1.525   3.252   2.818 -0.7443  0.0547  0.0352
 7639TIP3    H147112   1.580   3.300   2.756 -0.3068 -0.6209 -0.1062
 7639TIP3    H247113   1.491   3.178   2.768 -3.0790  1.3018 -0.3530
 7640TIP3   OH247114   1.809   4.086   1.062 -0.4341  0.5237 -0.2232
 7640TIP3    H147115   1.802   4.161   1.003 -1.1154  0.1137 -0.6762
 7640TIP3    H247116   1.881   4.034   1.026  0.3701  1.1977  0.3775
 7641TIP3   OH247117   1.573   5.934   2.757  0.7406 -0.3365 -0.5245
 7641TIP3    H147118   1.535   5.847   2.746  2.9684 -1.1526 -2.5588
 7641TIP3    H247119   1.623   5.929   2.838 -1.6369  0.1427  1.0976
 7642TIP3   OH247120   4.349   2.893   1.035 -0.0814 -0.4246  0.3337
 7642TIP3    H147121   4.429   2.875   0.986 -0.9502 -1.2092 -0.8623
 7642TIP3    H247122   4.335   2.987   1.025 -0.2683 -0.5858 -0.9741
 7643TIP3   OH247123   0.394   5.017   1.716  0.4009 -0.0657 -0.1470
 7643TIP3    H147124   0.425   5.044   1.803 -0.6140 -0.4634  0.3521
 7643TIP3    H247125   0.352   5.096   1.681 -2.7198 -0.8828  1.3829
 7644TIP3   OH247126   5.819   6.464   1.102  0.1687 -0.3073  0.2633
 7644TIP3    H147127   5.910   6.488   1.113  0.8452 -0.9900 -2.8979
 7644TIP3    H247128   5.789   6.516   1.028 -1.9084 -0.4549  0.9265
 7645TIP3   OH247129   6.575   1.793   2.482  0.1436 -0.0555 -0.5312
 7645TIP3    H147130   6.625   1.822   2.559 -1.4222 -0.0222  0.5142
 7645TIP3    H247131   6.596   1.857   2.414  0.2689  0.8945  0.3763
 7646TIP3   OH247132   2.484   0.952   0.691 -1.1860  0.7322 -0.6321
 7646TIP3    H147133   2.570   0.920   0.662 -0.8720 -0.7365  1.6619
 7646TIP3    H247134   2.504   1.019   0.756 -1.7469  0.1662  0.1414
 7647TIP3   OH247135   2.767   2.074   3.037  0.3172 -0.3052  0.0158
 7647TIP3    H147136   2.780   2.156   3.084 -0.7850 -0.2842  0.2941
 7647TIP3    H247137   2.763   2.101   2.945 -2.4621  0.3207  0.2282
 7648TIP3   OH247138   6.731   3.210   3.817 -0.3703 -0.1877 -0.2692
 7648TIP3    H147139   6.722   3.277   3.749 -0.7729 -0.2455 -0.2710
 7648TIP3    H247140   6.806   3.239   3.868 -2.0273  1.6529  1.2794
 7649TIP3   OH247141   0.858   5.139   2.840 -0.0136 -0.4413  0.3231
 7649TIP3    H147142   0.819   5.217   2.878 -0.0527  0.8458 -2.1336
 7649TIP3    H247143   0.941   5.128   2.886  0.3589  1.5410  0.2068
 7650TIP3   OH247144   2.441   5.508   1.509  0.0325  0.6267 -0.5229
 7650TIP3    H147145   2.382   5.562   1.560 -0.8380 -0.3341 -0.4876
 7650TIP3    H247146   2.454   5.429   1.561 -0.2745 -0.0464 -1.4251
 7651TIP3   OH247147   5.491   2.609   1.996  0.5012  0.1603  0.7772
 7651TIP3    H147148   5.440   2.603   2.076  0.3302 -0.2008  0.6444
 7651TIP3    H247149   5.515   2.518   1.976 -1.4340 -0.0587 -0.8335
 7652TIP3   OH247150   5.422   2.375   3.278 -0.3045 -0.1229  0.2298
 7652TIP3    H147151   5.353   2.362   3.343  0.0631 -0.5888  0.5316
 7652TIP3    H247152   5.429   2.471   3.270 -2.1638 -0.0429 -1.0914
 7653TIP3   OH247153   5.873   4.220   2.577  0.2123  0.1861  0.1640
 7653TIP3    H147154   5.962   4.192   2.561 -0.4990 -1.2918 -1.5405
 7653TIP3    H247155   5.842   4.251   2.492 -1.2248 -0.3380  0.4625
 7654TIP3   OH247156   4.999   0.184   3.303 -0.3114 -0.2610  0.0266
 7654TIP3    H147157   4.965   0.205   3.390 -1.5436 -0.9865 -0.2543
 7654TIP3    H247158   4.923   0.191   3.245  0.1987 -1.0632 -0.7728
 7655TIP3   OH247159   2.324   1.778   1.704  0.1937 -0.0524  0.4588
 7655TIP3    H147160   2.244   1.734   1.732 -0.1354 -0.7696 -1.4397
 7655TIP3    H247161   2.298   1.824   1.624  0.8978  2.4117  1.5429
 7656TIP3   OH247162   3.580   1.493   3.864 -0.1184 -0.5414  0.3884
 7656TIP3    H147163   3.622   1.568   3.906  2.5554 -1.4953 -0.3353
 7656TIP3    H247164   3.502   1.475   3.917  0.6733  1.0369  2.1908
 7657TIP3   OH247165   0.910   5.139   3.627  0.1452 -0.6441 -0.5484
 7657TIP3    H147166   0.950   5.077   3.688 -1.7841 -0.7366  0.7209
 7657TIP3    H247167   0.819   5.148   3.658 -0.7138 -0.1159 -2.9759
 7658TIP3   OH247168   4.198   3.841   2.562  0.2246 -0.1793 -0.2287
 7658TIP3    H147169   4.156   3.788   2.494 -1.1587  0.6274 -0.0488
 7658TIP3    H247170   4.136   3.912   2.578  0.6147 -0.2481  1.7562
 7659TIP3   OH247171   5.840   5.514   1.109 -0.1996  0.4475 -0.1087
 7659TIP3    H147172   5.817   5.602   1.138 -1.3957 -0.3555  1.4999
 7659TIP3    H247173   5.936   5.515   1.100 -0.1687  1.7761  0.2534
 7660TIP3   OH247174   1.172   1.771   0.666 -0.7051  0.7247 -0.2782
 7660TIP3    H147175   1.131   1.757   0.581 -0.7705  0.0330 -0.1396
 7660TIP3    H247176   1.143   1.697   0.719 -1.5810  1.7267  0.6918
 7661TIP3   OH247177   2.381   2.931   3.292 -0.1472  0.3061  0.2514
 7661TIP3    H147178   2.437   2.998   3.331  1.1319 -0.4342 -0.2562
 7661TIP3    H247179   2.345   2.884   3.366 -0.9677  1.4634  0.6123
 7662TIP3   OH247180   4.898   5.583   3.203 -0.2720 -0.1042 -0.5082
 7662TIP3    H147181   4.882   5.674   3.180 -0.3780  0.0415  0.1326
 7662TIP3    H247182   4.965   5.554   3.141  0.0779  0.5301 -0.4337
 7663TIP3   OH247183   2.323   0.545   2.740  0.1252  0.2203 -0.4008
 7663TIP3    H147184   2.308   0.474   2.802 -0.8123 -1.1495 -2.0838
 7663TIP3    H247185   2.394   0.596   2.778  0.7166 -1.5305  0.9744
 7664TIP3   OH247186   6.678   0.105   3.082  0.5585  0.1549  0.4416
 7664TIP3    H147187   6.651   0.070   2.997 -0.0260 -3.4785  1.9081
 7664TIP3    H247188   6.598   0.144   3.118  0.2761 -0.1314  0.1380
 7665TIP3   OH247189   1.710   0.024   0.679  0.0916  0.3754 -0.0152
 7665TIP3    H147190   1.755  -0.050   0.639 -1.0588 -0.8263  0.8254
 7665TIP3    H247191   1.777   0.067   0.733  0.5350 -0.6764  0.2997
 7666TIP3   OH247192   3.615   3.429   0.852 -0.0165  0.1614  0.8377
 7666TIP3    H147193   3.568   3.512   0.840  1.3660  0.8073 -0.3553
 7666TIP3    H247194   3.605   3.383   0.769 -0.7093 -0.8827  1.4642
 7667TIP3   OH247195   3.076   0.401   1.435 -0.3793 -0.2454 -0.2405
 7667TIP3    H147196   3.036   0.340   1.373 -0.4780  0.0014 -0.4163
 7667TIP3    H247197   3.158   0.358   1.460  0.1692  0.1383 -1.3330
 7668TIP3   OH247198   6.366   2.081   2.450 -0.2552  0.3424 -0.0661
 7668TIP3    H147199   6.418   2.085   2.530  0.1665 -1.5115 -0.2203
 7668TIP3    H247200   6.418   2.027   2.391 -1.4697  0.0911 -0.9185
 7669TIP3   OH247201   1.910   3.544   3.364 -0.4829 -0.5397 -1.0453
 7669TIP3    H147202   1.917   3.467   3.420 -2.1125 -0.2157 -0.3290
 7669TIP3    H247203   2.000   3.565   3.340  0.2283 -0.9772  1.0590
 7670TIP3   OH247204   5.535   6.565   1.563 -0.0930  0.6023 -0.0206
 7670TIP3    H147205   5.487   6.579   1.645 -3.0268 -0.3934 -1.3922
 7670TIP3    H247206   5.552   6.653   1.529  0.3875  1.0072  1.2237
 7671TIP3   OH247207   3.524   3.189   1.009 -0.2821 -0.0822 -0.2500
 7671TIP3    H147208   3.598   3.216   1.063 -0.5074 -0.2164  0.1364
 7671TIP3    H247209   3.514   3.258   0.944 -1.0760  0.9807  0.9308
 7672TIP3   OH247210   2.818   2.146   3.459 -0.3155 -0.7299 -0.4381
 7672TIP3    H147211   2.732   2.104   3.455 -0.6827  0.0032 -0.3227
 7672TIP3    H247212   2.868   2.103   3.390 -1.1918 -0.2427 -1.4060
 7673TIP3   OH247213   4.323   1.106   0.955  0.2334 -0.4587  0.0737
 7673TIP3    H147214   4.283   1.188   0.925 -0.7622 -1.0146 -0.1772
 7673TIP3    H247215   4.297   1.098   1.047  0.5376 -0.3665  0.1667
 7674TIP3   OH247216   2.854   1.500   4.254  0.6020 -0.6929 -1.0375
 7674TIP3    H147217   2.817   1.588   4.245  2.2812  0.5241  2.3082
 7674TIP3    H247218   2.942   1.506   4.219  1.0038 -0.7954 -0.0699
 7675TIP3   OH247219   0.209   4.246   3.664 -0.1734  0.4339  0.0539
 7675TIP3    H147220   0.121   4.221   3.691  0.4818 -0.2086  1.7486
 7675TIP3    H247221   0.254   4.162   3.650  0.8549  0.6788  1.6665
 7676TIP3   OH247222   5.466   2.659   2.603  0.9547  0.0725 -0.4446
 7676TIP3    H147223   5.486   2.685   2.692  1.3678  0.3133 -0.6071
 7676TIP3    H247224   5.495   2.568   2.597 -0.8684 -0.5932  0.2478
 7677TIP3   OH247225   5.386   0.042   0.913 -0.0437  0.4631 -0.1677
 7677TIP3    H147226   5.409   0.007   0.998  2.9839  0.8046 -0.7471
 7677TIP3    H247227   5.370  -0.036   0.859  1.7262  0.0829 -0.1932
 7678TIP3   OH247228   2.852   5.687   4.901  0.4858  0.8538 -0.3306
 7678TIP3    H147229   2.893   5.715   4.819  0.0415 -0.3240 -0.9949
 7678TIP3    H247230   2.760   5.672   4.878  0.6719 -1.0138 -0.0480
 7679TIP3   OH247231   0.164   5.691   2.105  0.1727  0.4336 -0.0142
 7679TIP3    H147232   0.136   5.647   2.185 -0.7989  1.5109  0.2584
 7679TIP3    H247233   0.214   5.625   2.058 -0.1422 -0.5478  0.9892
 7680TIP3   OH247234   1.635   1.887   1.210  0.6350  0.7029  0.4678
 7680TIP3    H147235   1.649   1.833   1.133 -1.3561  0.9340 -0.0952
 7680TIP3    H247236   1.630   1.977   1.176 -1.1413  0.7248  0.7062
 7681TIP3   OH247237   0.125   5.306   0.809 -0.2032 -0.1618 -0.2126
 7681TIP3    H147238   0.194   5.298   0.874 -0.9004 -1.2728  0.4019
 7681TIP3    H247239   0.100   5.216   0.788 -1.3372  0.2121 -0.5608
 7682TIP3   OH247240   5.018   5.603   1.127  0.0988  0.6025  0.3163
 7682TIP3    H147241   5.029   5.692   1.095  0.3690  0.1377 -0.9061
 7682TIP3    H247242   5.008   5.549   1.049  2.2535 -0.7708  0.8975
 7683TIP3   OH247243   1.687   3.831   2.972  0.3295 -0.2512  0.3736
 7683TIP3    H147244   1.594   3.813   2.956  0.6330 -1.2577 -0.3938
 7683TIP3    H247245   1.711   3.773   3.044 -0.1241  1.5796  2.0938
 7684TIP3   OH247246   1.698   3.928   2.140  0.1549  0.6682 -0.1122
 7684TIP3    H147247   1.790   3.954   2.144  0.3482  0.1158 -0.7279
 7684TIP3    H247248   1.662   3.952   2.225  0.2266  3.2263 -0.7257
 7685TIP3   OH247249   2.561   0.388   0.650 -0.3273  0.3131 -0.0189
 7685TIP3    H147250   2.591   0.303   0.617 -1.5116 -0.4852  0.8642
 7685TIP3    H247251   2.632   0.420   0.704  0.3613  0.1642 -0.8134
 7686TIP3   OH247252   4.166   5.722   4.079  0.1886  0.7013 -0.3104
 7686TIP3    H147253   4.238   5.733   4.140  0.5178  0.8074 -0.7139
 7686TIP3    H247254   4.206   5.732   3.992 -0.2061  0.2062 -0.5547
 7687TIP3   OH247255   4.014   2.871   2.251  0.4312 -0.4425  0.0368
 7687TIP3    H147256   3.943   2.814   2.278  0.7964 -1.0603 -0.2797
 7687TIP3    H247257   4.034   2.844   2.161 -0.5322  1.3360 -0.7615
 7688TIP3   OH247258   3.259   5.000   1.795 -0.0194 -0.3845  0.5072
 7688TIP3    H147259   3.306   5.065   1.848  0.3859  0.1884 -0.5308
 7688TIP3    H247260   3.297   5.007   1.708 -1.2312 -0.7333 -0.0814
 7689TIP3   OH247261   1.678   2.029   1.741  0.8309 -0.0673 -0.7168
 7689TIP3    H147262   1.643   2.006   1.655  0.4831 -0.0709 -0.5749
 7689TIP3    H247263   1.754   1.972   1.752  0.4305 -0.5968 -0.6998
 7690TIP3   OH247264   4.408   3.675   2.853  0.2723 -0.1996  0.5007
 7690TIP3    H147265   4.481   3.696   2.911 -2.4301  1.3079  3.7149
 7690TIP3    H247266   4.410   3.579   2.848  2.8462 -0.1906 -0.2037
 7691TIP3   OH247267   3.241   2.100   0.455 -0.0125 -0.0373  0.5363
 7691TIP3    H147268   3.336   2.099   0.448  0.0217  0.6671  0.8512
 7691TIP3    H247269   3.216   2.008   0.464  0.4870 -0.4176 -1.4023
 7692TIP3   OH247270   2.011   1.252   0.505  0.7043 -0.1265  0.0491
 7692TIP3    H147271   2.050   1.236   0.420  1.3408  1.7611 -0.0508
 7692TIP3    H247272   1.929   1.202   0.503  0.6704 -0.0654 -1.6902
 7693TIP3   OH247273   2.216   1.052  11.897  0.2530  0.0403 -0.4533
 7693TIP3    H147274   2.143   1.114  11.902 -2.2734 -2.8122  3.3661
 7693TIP3    H247275   2.187   0.985  11.835 -0.1103 -0.7373  0.5385
 7694TIP3   OH247276   1.144   0.090   3.107  0.3218  0.2584  0.7593
 7694TIP3    H147277   1.197   0.040   3.169  0.2070 -0.3410  0.3781
 7694TIP3    H247278   1.067   0.036   3.092  0.7365  0.0020 -0.5568
 7695TIP3   OH247279   5.293   4.162   3.443  0.6936  0.0568 -0.2930
 7695TIP3    H147280   5.339   4.080   3.459 -0.7705 -0.6168  0.7534
 7695TIP3    H247281   5.346   4.229   3.487  0.9092 -0.6181  0.4909
 7696TIP3   OH247282   6.315   6.765   2.072  0.5515  0.6705  0.2405
 7696TIP3    H147283   6.339   6.835   2.132  1.6618  0.1828  0.3987
 7696TIP3    H247284   6.268   6.808   2.001  2.6875  1.8427 -0.5301
 7697TIP3   OH247285   2.351   0.383   2.989 -1.1375  0.2778 -0.7355
 7697TIP3    H147286   2.356   0.287   2.998  0.1003  0.2581 -1.4271
 7697TIP3    H247287   2.286   0.409   3.054  2.0379 -0.5367  3.1544
 7698TIP3   OH247288   3.902   1.037   0.974 -0.2442  0.7093  0.7239
 7698TIP3    H147289   3.824   0.989   0.947  0.1891  0.2007  0.3713
 7698TIP3    H247290   3.957   0.972   1.018  0.7371  0.6630 -0.5163
 7699TIP3   OH247291   2.738   4.295   1.458 -0.1633 -0.1469  0.1154
 7699TIP3    H147292   2.685   4.369   1.427 -0.5320  0.4119  1.9460
 7699TIP3    H247293   2.819   4.334   1.489  0.7107 -0.8301 -1.2024
 7700TIP3   OH247294   4.334   6.660   0.660 -0.2729  0.2686 -0.5298
 7700TIP3    H147295   4.429   6.670   0.666 -0.2060 -0.5551 -0.0729
 7700TIP3    H247296   4.322   6.588   0.599 -0.6111  0.3468 -0.5565
 7701TIP3   OH247297   0.387   2.769   9.915 -0.1843 -0.0261  0.5945
 7701TIP3    H147298   0.322   2.767   9.845 -0.5371  0.8949  0.8896
 7701TIP3    H247299   0.339   2.799   9.992  0.7942  1.6867  0.5834
 7702TIP3   OH247300   4.240   1.492   4.123 -0.1373  0.6765 -0.4111
 7702TIP3    H147301   4.302   1.539   4.178  0.6394 -1.1362  0.3381
 7702TIP3    H247302   4.233   1.405   4.163 -1.2778  0.0294 -1.9050
 7703TIP3   OH247303   1.062   5.280   2.041 -0.0627 -0.2283  0.0470
 7703TIP3    H147304   1.042   5.225   1.965  1.2510  0.5181 -0.8832
 7703TIP3    H247305   0.990   5.342   2.046 -0.1459 -0.2638 -0.6116
 7704TIP3   OH247306   5.164   5.218   0.521 -0.6332  0.5627  0.1040
 7704TIP3    H147307   5.116   5.136   0.523  0.8192 -0.4118 -1.5756
 7704TIP3    H247308   5.218   5.216   0.601 -0.2045 -0.3985 -0.1955
 7705TIP3   OH247309   0.326   4.020   3.047 -0.1838  0.0702 -0.1716
 7705TIP3    H147310   0.296   4.057   3.130  0.7148  1.5282 -0.4608
 7705TIP3    H247311   0.416   3.993   3.064 -0.4292 -0.8508 -0.3159
 7706TIP3   OH247312   1.880   5.330   2.804 -0.7096 -0.0093 -0.4187
 7706TIP3    H147313   1.861   5.317   2.897  0.0686 -0.9584 -0.3809
 7706TIP3    H247314   1.933   5.255   2.779 -0.2549  0.6259 -1.4449
 7707TIP3   OH247315   6.008   4.860   1.848  0.0187  0.1453 -0.2221
 7707TIP3    H147316   5.963   4.852   1.764  0.8330 -1.6887 -0.5450
 7707TIP3    H247317   5.938   4.873   1.911 -0.6814  0.6157 -1.0609
 7708TIP3   OH247318   6.065   4.015   1.320 -0.5036  0.3866  0.0826
 7708TIP3    H147319   6.151   4.021   1.278 -1.6183 -1.1376 -2.6657
 7708TIP3    H247320   6.085   4.005   1.413  2.3994 -1.9139 -0.6237
 7709TIP3   OH247321   3.551   1.102   3.672 -0.2614 -0.4779 -0.0148
 7709TIP3    H147322   3.618   1.047   3.631  0.3300  1.2591 -1.5675
 7709TIP3    H247323   3.575   1.104   3.764  0.6847 -1.4612 -0.2141
 7710TIP3   OH247324   5.902   2.218   3.102 -0.4105  0.6284 -0.1359
 7710TIP3    H147325   5.878   2.307   3.126  1.0472  1.1752 -0.5855
 7710TIP3    H247326   5.960   2.189   3.172  0.2548  0.5820 -0.6873
 7711TIP3   OH247327   5.463   0.823   1.787  0.1201 -0.1572  0.2770
 7711TIP3    H147328   5.440   0.900   1.840 -0.1723  0.5008 -0.7943
 7711TIP3    H247329   5.534   0.781   1.836  0.2150  0.7356  0.9241
 7712TIP3   OH247330   2.918   5.560   1.262 -0.1060  0.0514 -0.1715
 7712TIP3    H147331   2.897   5.467   1.257 -2.5989  0.5909 -0.6773
 7712TIP3    H247332   2.865   5.594   1.334  1.9800  0.8345  1.0991
 7713TIP3   OH247333   3.500   6.646   1.652 -0.0639 -0.2368 -0.0404
 7713TIP3    H147334   3.470   6.556   1.658  1.8676 -0.8855  0.7748
 7713TIP3    H247335   3.450   6.684   1.579 -0.3381 -2.1945 -0.9144
 7714TIP3   OH247336   3.460   1.965   0.657 -0.1704 -0.1037 -0.1719
 7714TIP3    H147337   3.478   1.986   0.565  0.2951 -1.0830 -0.3176
 7714TIP3    H247338   3.380   1.912   0.653 -0.1123 -0.2013 -0.0188
 7715TIP3   OH247339   0.611   5.378   3.192  0.1922  0.3947  0.1970
 7715TIP3    H147340   0.520   5.400   3.207  0.2766  2.0439 -1.3545
 7715TIP3    H247341   0.660   5.441   3.245  0.4192  0.9640 -0.6697
 7716TIP3   OH247342   0.995   4.473   2.709 -0.9792  0.1094  0.6335
 7716TIP3    H147343   0.907   4.505   2.728 -1.1014  1.2441 -1.5974
 7716TIP3    H247344   1.040   4.548   2.669  0.9334 -0.5297  1.4625
 7717TIP3   OH247345   0.068   2.234   3.092  0.2727  0.0894  0.1740
 7717TIP3    H147346   0.136   2.255   3.156  0.6840  1.5725 -0.6978
 7717TIP3    H247347  -0.009   2.282   3.124  0.0263 -0.4453  0.3944
 7718TIP3   OH247348   0.571   4.767   1.789  0.1685 -0.1995  0.0539
 7718TIP3    H147349   0.533   4.768   1.876  1.5579 -1.0869  0.7154
 7718TIP3    H247350   0.663   4.745   1.804  0.6721  0.6837 -1.5544
 7719TIP3   OH247351   5.898   0.005   1.540  0.0409  0.0951  0.5527
 7719TIP3    H147352   5.896  -0.010   1.446 -1.5793 -1.3489  0.7601
 7719TIP3    H247353   5.957   0.079   1.552  1.3948 -0.5803 -1.4532
 7720TIP3   OH247354   5.092   5.154   2.419 -0.1930  0.1460 -0.5028
 7720TIP3    H147355   5.105   5.227   2.480 -0.5922 -0.3738  0.2107
 7720TIP3    H247356   5.029   5.187   2.355 -1.3061  0.0440  0.5015
 7721TIP3   OH247357   5.867   4.932   2.932  0.0323 -0.4068 -0.6717
 7721TIP3    H147358   5.822   4.972   2.858 -0.0946  2.2602  0.6969
 7721TIP3    H247359   5.806   4.943   3.006 -0.4895 -4.3071 -0.3305
 7722TIP3   OH247360   3.170   5.975   1.755 -0.0782  0.8236 -0.5867
 7722TIP3    H147361   3.119   5.937   1.683  0.6738 -0.7930 -0.3070
 7722TIP3    H247362   3.247   5.918   1.763  0.9013  2.1927  0.1456
 7723TIP3   OH247363   6.505   3.117   3.728 -0.1773 -0.7041  0.2527
 7723TIP3    H147364   6.480   3.029   3.757  0.9182 -1.7476 -1.7746
 7723TIP3    H247365   6.586   3.136   3.775  0.0924 -1.2014  0.0007
 7724TIP3   OH247366   0.681   5.176   1.219 -0.2740  0.2625  0.5073
 7724TIP3    H147367   0.696   5.245   1.284  2.1841 -1.0501  1.4440
 7724TIP3    H247368   0.769   5.149   1.192 -1.2008 -0.6502 -1.8925
 7725TIP3   OH247369   4.370   5.951   0.615  0.1769 -0.1676  0.4245
 7725TIP3    H147370   4.395   6.042   0.600  1.6748 -0.3522  1.5736
 7725TIP3    H247371   4.451   5.901   0.601 -0.7052 -1.3711 -0.5498
 7726TIP3   OH247372   4.086   3.278   3.202 -0.0696  0.2520  0.1407
 7726TIP3    H147373   4.012   3.265   3.143  0.3283 -3.2465  0.2261
 7726TIP3    H247374   4.049   3.267   3.290  0.4129 -1.1979  0.1954
 7727TIP3   OH247375   5.442   4.493   2.154 -0.1883  0.5647 -0.1392
 7727TIP3    H147376   5.503   4.427   2.187 -1.8465 -0.2227  1.5714
 7727TIP3    H247377   5.475   4.576   2.187  0.6260  0.3010 -0.2775
 7728TIP3   OH247378   4.403   4.539   4.014 -0.3515 -0.3912 -0.1634
 7728TIP3    H147379   4.434   4.490   4.090 -2.0527 -0.4757  0.5192
 7728TIP3    H247380   4.453   4.620   4.015 -0.6676 -0.1960  1.3226
 7729TIP3   OH247381   1.608   4.957   3.077 -0.7543 -0.2452 -0.4058
 7729TIP3    H147382   1.543   5.027   3.070 -0.7133 -0.3013 -1.4602
 7729TIP3    H247383   1.646   4.969   3.164 -1.6579  0.2372 -0.0571
 7730TIP3   OH247384   3.550   3.038   0.428  0.0063 -0.2428  0.0675
 7730TIP3    H147385   3.556   3.049   0.333 -0.1537  1.6211  0.2372
 7730TIP3    H247386   3.491   2.963   0.439  0.7251 -1.0638 -1.2873
 7731TIP3   OH247387   1.744   3.128   1.097 -0.0951  0.4582 -0.2839
 7731TIP3    H147388   1.722   3.114   1.005 -0.5220  1.7556 -0.3978
 7731TIP3    H247389   1.760   3.040   1.131 -1.2823 -0.1739 -1.2583
 7732TIP3   OH247390   2.930   6.201   4.099 -0.1323 -0.2225  0.1250
 7732TIP3    H147391   2.956   6.266   4.163 -2.6489 -0.6209  1.7202
 7732TIP3    H247392   2.981   6.123   4.121  0.7590  0.3495  0.0953
 7733TIP3   OH247393   4.338   5.472   2.185  0.0171 -0.2454 -0.1086
 7733TIP3    H147394   4.385   5.550   2.213  1.7418 -0.9405 -0.9198
 7733TIP3    H247395   4.253   5.505   2.157  0.2233  1.1527  0.7796
 7734TIP3   OH247396   2.966   2.714   1.415  0.2441  0.4025  0.0829
 7734TIP3    H147397   2.907   2.765   1.471  1.6149  0.3435  1.6553
 7734TIP3    H247398   2.917   2.703   1.333 -1.6659  0.8518  1.0963
 7735TIP3   OH247399   0.091   1.504   1.622 -0.0214 -0.1495 -0.3133
 7735TIP3    H147400   0.156   1.441   1.590 -1.1129 -0.6041 -1.7531
 7735TIP3    H247401   0.070   1.558   1.545 -1.1196  0.1795  0.1934
 7736TIP3   OH247402   1.627   0.129   1.043  0.3959 -0.0644  0.1329
 7736TIP3    H147403   1.572   0.057   1.011 -0.0082 -0.2767  1.2713
 7736TIP3    H247404   1.574   0.174   1.108  1.9346 -0.9973  2.1658
 7737TIP3   OH247405   2.030   0.934   3.132 -1.1402 -0.2957  0.2798
 7737TIP3    H147406   2.074   0.861   3.176  0.6054  1.5805  1.8458
 7737TIP3    H247407   2.036   1.006   3.194 -1.7727  1.5385 -1.6697
 7738TIP3   OH247408   1.212   0.612   1.515 -0.1397  0.6013 -0.1286
 7738TIP3    H147409   1.195   0.626   1.608  0.9243 -1.4317  0.4316
 7738TIP3    H247410   1.129   0.581   1.480  0.0359 -0.8612  0.6801
 7739TIP3   OH247411   3.196   0.607   2.041 -0.3825  0.1290 -0.4239
 7739TIP3    H147412   3.168   0.516   2.044  0.6870 -0.1875  1.2622
 7739TIP3    H247413   3.180   0.634   1.951 -0.1535 -1.9032 -1.1257
 7740TIP3   OH247414   0.834   5.649   1.869  0.4093  0.4519  0.8291
 7740TIP3    H147415   0.819   5.723   1.929  1.0282  1.2747 -0.0018
 7740TIP3    H247416   0.756   5.646   1.814  0.7709  1.0882  0.2630
 7741TIP3   OH247417   3.664   5.713   1.753 -0.1260 -0.7297 -0.5245
 7741TIP3    H147418   3.740   5.737   1.805 -0.6360 -0.0349 -0.0795
 7741TIP3    H247419   3.608   5.663   1.812 -1.0789  0.7453 -0.1378
 7742TIP3   OH247420   3.800   2.718   2.316 -0.0197 -0.0222  0.2291
 7742TIP3    H147421   3.772   2.647   2.374  1.5303 -0.2956  0.6889
 7742TIP3    H247422   3.784   2.798   2.367 -0.6113 -0.1185  0.1988
 7743TIP3   OH247423   6.301   2.035   3.148  0.0545 -0.2632 -0.7567
 7743TIP3    H147424   6.316   2.129   3.137  1.2055 -0.4085 -0.5307
 7743TIP3    H247425   6.308   2.020   3.242 -3.6970 -0.0362 -0.2769
 7744TIP3   OH247426   0.174   2.022   2.929  0.7571 -0.4085  0.0684
 7744TIP3    H147427   0.258   2.060   2.902  0.8619 -0.9829 -0.4352
 7744TIP3    H247428   0.138   2.086   2.990  1.4481 -0.0382  0.1030
 7745TIP3   OH247429   1.758   5.726   1.570 -0.0870  0.3459 -0.0340
 7745TIP3    H147430   1.673   5.716   1.613  0.5614  0.6426  1.4037
 7745TIP3    H247431   1.812   5.770   1.636  0.8404  1.2680 -1.3712
 7746TIP3   OH247432   6.792   2.410   2.325 -0.3096  0.7440  0.2007
 7746TIP3    H147433   6.859   2.469   2.359  1.0948 -0.8561  0.3678
 7746TIP3    H247434   6.841   2.333   2.295 -2.0817 -0.5442  0.4422
 7747TIP3   OH247435   3.162   6.392   2.726 -0.0894 -0.7932 -0.0196
 7747TIP3    H147436   3.087   6.351   2.684 -0.5702  0.2103 -0.1754
 7747TIP3    H247437   3.177   6.472   2.676 -0.6955  0.4562  1.7049
 7748TIP3   OH247438   6.613   0.368   1.266 -0.1347  0.6688  0.0214
 7748TIP3    H147439   6.530   0.324   1.248  0.2136 -0.2652  0.6193
 7748TIP3    H247440   6.624   0.430   1.194 -0.4089 -0.5761 -1.1338
 7749TIP3   OH247441   3.913   6.680   3.604 -0.4085 -0.0242  0.2258
 7749TIP3    H147442   3.963   6.652   3.681  0.2088 -0.4772 -0.3298
 7749TIP3    H247443   3.970   6.744   3.561 -0.0438 -0.9560 -0.7183
 7750TIP3   OH247444   3.479   0.853   2.443 -0.1988  0.2935 -0.6347
 7750TIP3    H147445   3.436   0.772   2.417  0.5073 -1.1608  2.3126
 7750TIP3    H247446   3.407   0.912   2.466 -0.7074  0.4533 -2.4685
 7751TIP3   OH247447   5.876   3.294   2.210  0.7905  0.0085  0.6139
 7751TIP3    H147448   5.838   3.381   2.224  1.7046  0.4382  0.5089
 7751TIP3    H247449   5.801   3.238   2.192  0.3724  1.5335 -3.3337
 7752TIP3   OH247450   4.409   6.768   4.378 -0.0025 -0.1152  0.4223
 7752TIP3    H147451   4.348   6.808   4.439 -0.2075  0.6674 -0.2868
 7752TIP3    H247452   4.473   6.836   4.358  0.5443 -0.6221  0.3969
 7753TIP3   OH247453   4.395   3.282   2.426 -0.1810  0.2827 -0.9882
 7753TIP3    H147454   4.424   3.287   2.335 -0.4021  1.1926 -1.0271
 7753TIP3    H247455   4.475   3.294   2.477 -0.0729 -0.1145 -1.0594
 7754TIP3   OH247456   5.519   1.363   2.921  0.1606 -0.1176 -0.6318
 7754TIP3    H147457   5.586   1.427   2.945 -0.7537  0.2330  1.1268
 7754TIP3    H247458   5.567   1.295   2.874  1.2743  1.4749 -1.9515
 7755TIP3   OH247459   1.284   4.028   1.495  0.0066 -0.4601  0.4738
 7755TIP3    H147460   1.264   4.118   1.470  0.0546 -0.6863 -0.4035
 7755TIP3    H247461   1.369   4.010   1.455 -0.7203 -1.4067 -0.7153
 7756TIP3   OH247462   0.528   4.445   0.721 -0.0931 -0.3961  0.0401
 7756TIP3    H147463   0.474   4.387   0.666 -0.0116 -0.6238  0.1994
 7756TIP3    H247464   0.613   4.446   0.677 -0.0656 -0.4762  0.0909
 7757TIP3   OH247465   3.061   1.663   4.120 -0.4349 -0.3992  0.2045
 7757TIP3    H147466   3.001   1.735   4.101  0.3288  0.4820  0.9616
 7757TIP3    H247467   3.079   1.623   4.035 -2.0282 -0.6504 -0.0336
 7758TIP3   OH247468   3.390   2.852   2.507 -0.3257  0.6285  0.4131
 7758TIP3    H147469   3.360   2.913   2.440 -2.1428  0.3601  0.9315
 7758TIP3    H247470   3.478   2.883   2.530 -0.1762  1.4766 -1.1573
 7759TIP3   OH247471   3.531   3.804   2.343 -0.4772 -0.2074 -0.2839
 7759TIP3    H147472   3.560   3.762   2.263 -2.1009 -0.0254 -1.0030
 7759TIP3    H247473   3.610   3.843   2.380  0.0651  1.0931 -2.6260
 7760TIP3   OH247474   1.779   0.028   2.052  0.3291  0.3308  0.2461
 7760TIP3    H147475   1.792   0.031   2.147 -0.1242  2.7309  0.2781
 7760TIP3    H247476   1.765   0.119   2.026 -1.3890 -0.4335 -1.8710
 7761TIP3   OH247477   2.675   6.482   3.673 -0.0469  0.4067 -0.3070
 7761TIP3    H147478   2.755   6.430   3.671 -1.0379 -1.1676 -1.1117
 7761TIP3    H247479   2.612   6.427   3.720 -1.5589  0.1493 -2.4823
 7762TIP3   OH247480   4.311   1.934   2.641 -0.6627 -0.0817  0.3760
 7762TIP3    H147481   4.389   1.964   2.688  0.3367 -0.0335 -1.2271
 7762TIP3    H247482   4.301   1.997   2.570 -2.2761 -0.0101  0.6291
 7763TIP3   OH247483   6.770   2.923   1.371 -0.2256 -0.1183  0.3426
 7763TIP3    H147484   6.675   2.932   1.373 -0.1869  0.2691  1.7407
 7763TIP3    H247485   6.800   2.977   1.445  1.0907 -0.0546 -0.2227
 7764TIP3   OH247486   0.957   4.277   1.588 -0.1243 -0.7032  0.5484
 7764TIP3    H147487   0.896   4.345   1.618  0.6243 -0.3769  1.3861
 7764TIP3    H247488   0.918   4.244   1.507 -1.1396 -0.1389  0.7841
 7765TIP3   OH247489   3.265   0.016   3.660 -0.3482  0.2568  0.1270
 7765TIP3    H147490   3.239   0.020   3.752  0.9731 -0.4640  0.5514
 7765TIP3    H247491   3.282  -0.076   3.644  0.0180  0.4586 -0.6819
 7766TIP3   OH247492   2.684   0.165   3.549 -0.6653 -0.4865 -0.4751
 7766TIP3    H147493   2.626   0.185   3.623 -1.0542  1.7929 -1.3165
 7766TIP3    H247494   2.640   0.205   3.473  1.0960 -0.3085 -1.4408
 7767TIP3   OH247495   3.083   5.447   3.359 -0.0811  0.9581  0.2200
 7767TIP3    H147496   3.063   5.526   3.411 -0.1176  1.0636  0.0459
 7767TIP3    H247497   3.092   5.378   3.424 -2.1271  0.6575  0.2407
 7768TIP3   OH247498   0.675   4.597   1.289  0.2267  0.2407 -0.2417
 7768TIP3    H147499   0.615   4.610   1.363  2.3782 -0.9569  1.8650
 7768TIP3    H247500   0.713   4.683   1.274  1.2909  0.1444  1.5459
 7769TIP3   OH247501   3.463   0.395   2.060  0.5459  0.0029 -0.2992
 7769TIP3    H147502   3.483   0.444   1.981 -0.0444 -0.9994 -1.0955
 7769TIP3    H247503   3.370   0.371   2.051  0.6090 -0.5796  0.4333
 7770TIP3   OH247504   1.013   2.856   2.763 -0.1412 -0.2122  0.1254
 7770TIP3    H147505   0.994   2.858   2.669 -2.0856  0.5461  0.4893
 7770TIP3    H247506   1.037   2.946   2.785 -1.0255 -0.0768  0.5822
 7771TIP3   OH247507   5.559   4.607   0.869  0.4394  0.3835 -0.0072
 7771TIP3    H147508   5.648   4.575   0.854  0.4384  0.6301 -0.5649
 7771TIP3    H247509   5.531   4.565   0.950  0.5856 -0.7245 -0.5173
 7772TIP3   OH247510   2.246   4.568   2.833 -0.2700 -0.0215  0.2922
 7772TIP3    H147511   2.248   4.644   2.775 -1.7320 -1.0657 -1.2070
 7772TIP3    H247512   2.165   4.577   2.882 -0.8931 -1.0278 -0.5232
 7773TIP3   OH247513   1.124   2.715   0.984 -0.4698 -0.1276 -0.0076
 7773TIP3    H147514   1.129   2.803   0.946 -0.4327  0.7536  1.9088
 7773TIP3    H247515   1.091   2.729   1.073 -0.6011 -2.0827  0.3029
 7774TIP3   OH247516   6.607   2.229   1.452 -0.7107 -0.1255 -0.1141
 7774TIP3    H147517   6.629   2.297   1.388  1.4009 -1.1783 -0.5994
 7774TIP3    H247518   6.589   2.151   1.399  0.3174 -0.8179  0.5263
 7775TIP3   OH247519   3.242   0.079   3.392  0.7076  0.0992  0.3382
 7775TIP3    H147520   3.224   0.051   3.481 -1.7718 -0.5364 -0.2770
 7775TIP3    H247521   3.328   0.043   3.372 -0.4627 -3.4998  1.0774
 7776TIP3   OH247522   4.888   2.176   3.044  0.4463 -0.4263 -0.1959
 7776TIP3    H147523   4.930   2.097   3.077 -0.7067 -0.9481  0.0787
 7776TIP3    H247524   4.817   2.143   2.988  0.0277  0.4194 -0.1739
 7777TIP3   OH247525   4.317   6.687   2.478  0.0624 -0.1094  0.6030
 7777TIP3    H147526   4.378   6.618   2.452 -0.1065  0.4088 -1.2975
 7777TIP3    H247527   4.371   6.766   2.482 -0.3532  0.2620 -0.6250
 7778TIP3   OH247528   4.934   2.753   1.859  0.3340 -0.3551 -0.0675
 7778TIP3    H147529   4.904   2.671   1.898 -0.8164 -0.0794 -0.3523
 7778TIP3    H247530   4.902   2.821   1.918 -0.0754 -0.0260 -0.6607
 7779TIP3   OH247531   4.575   5.765   3.113 -0.4804 -0.3958 -0.3230
 7779TIP3    H147532   4.506   5.700   3.126  0.2886 -1.4112 -1.1430
 7779TIP3    H247533   4.528   5.846   3.096 -1.4658 -0.7455  0.6096
 7780TIP3   OH247534   3.350   3.812   1.204  0.5236 -0.0775 -0.1467
 7780TIP3    H147535   3.378   3.901   1.183  1.0512 -0.2372 -0.1188
 7780TIP3    H247536   3.255   3.819   1.216  0.0934 -0.0077 -2.8876
 7781TIP3   OH247537   3.288   2.210   2.369 -0.0777 -0.0215 -0.3178
 7781TIP3    H147538   3.230   2.238   2.299  0.4809 -0.0804 -0.8181
 7781TIP3    H247539   3.301   2.116   2.353  0.3221  0.0362 -0.3449
 7782TIP3   OH247540   3.884   3.307   2.999 -0.3948  0.0379 -0.6598
 7782TIP3    H147541   3.909   3.275   2.912  0.7850 -1.8958  0.3198
 7782TIP3    H247542   3.802   3.262   3.018  0.6877 -1.6617  0.2507
 7783TIP3   OH247543   4.246   2.464   2.184 -0.5911  0.1662  0.0758
 7783TIP3    H147544   4.262   2.519   2.261 -1.7334  1.0503 -0.2882
 7783TIP3    H247545   4.333   2.452   2.145  0.0461 -0.4938  1.6060
 7784TIP3   OH247546   5.796   0.978   1.897  0.3974 -0.4712  0.4754
 7784TIP3    H147547   5.868   0.958   1.839  0.0537 -0.1485 -0.0668
 7784TIP3    H247548   5.734   1.027   1.844  0.7511  1.1593  1.4911
 7785TIP3   OH247549   3.940   0.451   3.306 -0.0529 -0.8936  0.5081
 7785TIP3    H147550   3.928   0.536   3.348 -1.5370 -0.4153 -0.8135
 7785TIP3    H247551   3.870   0.446   3.241  0.3356 -2.9076  0.1951
 7786TIP3   OH247552   6.096   3.341   1.194 -0.2028 -0.5880 -0.0169
 7786TIP3    H147553   6.074   3.396   1.120  0.3121  0.1587  0.3643
 7786TIP3    H247554   6.168   3.387   1.237  0.9500 -2.0697 -0.2658
 7787TIP3   OH247555   1.413   3.033   2.583  0.0129 -0.4704 -0.1248
 7787TIP3    H147556   1.355   2.977   2.531  0.0096  0.7975 -1.5852
 7787TIP3    H247557   1.456   3.089   2.518  3.0524 -1.4499  0.8465
 7788TIP3   OH247558   1.430   4.162   2.807  0.1158  0.0239 -0.0524
 7788TIP3    H147559   1.397   4.212   2.733 -0.6513  0.3449  0.4937
 7788TIP3    H247560   1.481   4.224   2.858  0.0681 -0.0183  0.0490
 7789TIP3   OH247561   0.293   3.955   0.741 -0.2376 -0.1374  0.4133
 7789TIP3    H147562   0.341   3.998   0.811  0.6072 -2.6269  1.4540
 7789TIP3    H247563   0.341   3.978   0.661  0.0062  1.0461  0.8837
 7790TIP3   OH247564   2.649   3.489   3.404  0.3312  0.2344  0.2050
 7790TIP3    H147565   2.640   3.407   3.453 -1.1921  1.1469  1.5510
 7790TIP3    H247566   2.739   3.518   3.422  1.2922 -1.6233 -1.1912
 7791TIP3   OH247567   3.679   1.498   3.360 -0.1239 -0.1151 -0.2460
 7791TIP3    H147568   3.600   1.523   3.312 -0.3737 -0.7455 -0.1686
 7791TIP3    H247569   3.648   1.435   3.425  0.5547 -0.8943 -0.6676
 7792TIP3   OH247570   0.791   2.584   1.140  0.0546 -0.4310  0.2882
 7792TIP3    H147571   0.729   2.584   1.213 -1.0566 -1.0598 -0.6244
 7792TIP3    H247572   0.771   2.665   1.093  0.7542 -0.0379  0.6630
 7793TIP3   OH247573   5.512   1.362   2.062  0.4244 -0.1857  0.1057
 7793TIP3    H147574   5.558   1.413   1.994 -0.2645  0.9705  0.4662
 7793TIP3    H247575   5.510   1.421   2.137 -1.4602 -0.2572  0.1615
 7794TIP3   OH247576   6.095   1.275   1.304  0.5228  0.3945 -0.1244
 7794TIP3    H147577   6.097   1.214   1.377  1.6397  3.4423  2.6477
 7794TIP3    H247578   6.002   1.296   1.292  0.3048 -0.3732  0.1651
 7795TIP3   OH247579   6.271   0.060   2.551 -0.0790 -0.1975  0.0021
 7795TIP3    H147580   6.207   0.105   2.496 -1.7104  0.5782  2.3729
 7795TIP3    H247581   6.344   0.121   2.558 -0.7558  0.5957  0.3493
 7796TIP3   OH247582   1.360   0.646   3.847  0.0719 -0.6101  0.4639
 7796TIP3    H147583   1.327   0.564   3.884 -0.3690 -0.3811  0.5952
 7796TIP3    H247584   1.281   0.697   3.828  0.3145 -0.5201 -0.3318
 7797TIP3   OH247585   5.089   3.422   2.146  0.1739 -0.2424  0.7112
 7797TIP3    H147586   5.094   3.411   2.241 -2.4526 -3.0629  0.6767
 7797TIP3    H247587   4.999   3.400   2.124  1.0048 -0.8822 -2.5766
 7798TIP3   OH247588   2.328   3.192   3.670 -0.3842  0.2470  0.1988
 7798TIP3    H147589   2.353   3.169   3.580  0.8255  0.6075  0.4258
 7798TIP3    H247590   2.254   3.252   3.660 -0.2960  0.2438 -0.5540
 7799TIP3   OH247591   6.568   3.376   1.386  0.2029 -0.2949 -0.2281
 7799TIP3    H147592   6.578   3.469   1.407  1.0641 -0.0619 -1.5015
 7799TIP3    H247593   6.649   3.336   1.417  0.0315 -0.5445 -0.0993
 7800TIP3   OH247594   0.354   4.719   3.428  0.0701  0.7016 -0.3751
 7800TIP3    H147595   0.399   4.635   3.434 -2.2229 -0.7792 -2.2625
 7800TIP3    H247596   0.280   4.710   3.489 -0.6269  1.0149 -1.1609
 7801TIP3   OH247597   1.448   2.727   3.143 -0.4038  0.5668 -0.1467
 7801TIP3    H147598   1.459   2.790   3.214 -0.6116 -0.5044  0.8507
 7801TIP3    H247599   1.443   2.782   3.064 -1.5052  1.8624  0.7758
 7802TIP3   OH247600   1.434   0.615   2.604 -0.4784 -0.0485  0.2714
 7802TIP3    H147601   1.483   0.558   2.544  1.1176  0.8604  0.6810
 7802TIP3    H247602   1.413   0.558   2.678  1.0221 -0.1715  0.6337
 7803TIP3   OH247603   0.820   1.622   2.291  0.3124  0.2308  0.0619
 7803TIP3    H147604   0.784   1.540   2.257  0.9882 -0.6008  1.3135
 7803TIP3    H247605   0.888   1.596   2.352  0.2219  1.7252  0.8495
 7804TIP3   OH247606   5.260   0.765   2.624 -0.4254  0.3152  0.1633
 7804TIP3    H147607   5.260   0.800   2.534  0.9526 -1.3548 -0.5306
 7804TIP3    H247608   5.352   0.765   2.650 -0.5843 -1.1144  0.7939
 7805TIP3   OH247609   1.092   0.723   2.198 -0.1657  0.1821 -0.2486
 7805TIP3    H147610   1.019   0.691   2.146 -0.1219  0.7595 -0.6728
 7805TIP3    H247611   1.168   0.718   2.140  0.2290 -0.8172  0.3216
 7806TIP3   OH247612   3.559   1.673   2.593  0.1825  0.5725  0.1614
 7806TIP3    H147613   3.540   1.749   2.648  1.4832  0.2748  1.0661
 7806TIP3    H247614   3.616   1.618   2.647  0.2700 -0.4533 -0.9412
 7807TIP3   OH247615   1.583   3.298   2.178  0.0414  0.5844  0.0860
 7807TIP3    H147616   1.649   3.366   2.187 -0.8119  1.6801 -1.5077
 7807TIP3    H247617   1.538   3.318   2.096 -2.6825  0.2577  1.3708
 7808TIP3   OH247618   6.753   3.533   3.248  0.0952 -0.4908 -0.3115
 7808TIP3    H147619   6.681   3.558   3.307 -0.4865  0.3626 -1.3532
 7808TIP3    H247620   6.712   3.525   3.162  1.3731  0.7534 -1.0814
 7809TIP3   OH247621   3.607   0.674   3.567 -0.0739 -0.5854  0.5077
 7809TIP3    H147622   3.621   0.762   3.600 -0.9535 -0.7263  1.3054
 7809TIP3    H247623   3.603   0.684   3.472  0.8805  0.0676  0.5315
 7810TIP3   OH247624   3.107   2.542   1.604 -0.0350 -0.3967  0.3637
 7810TIP3    H147625   3.194   2.574   1.626 -0.7903  1.7482  0.4303
 7810TIP3    H247626   3.082   2.593   1.527 -1.2708 -0.9458  0.3807
 7811TIP3   OH247627   2.730   1.743   1.974  0.0851 -0.1532 -0.5580
 7811TIP3    H147628   2.785   1.726   1.897 -0.4808  0.0456 -1.0147
 7811TIP3    H247629   2.748   1.670   2.033  0.7414 -0.1600 -0.7509
 7812TIP3   OH247630   5.544   2.852   1.503  0.3495  0.0917  0.0867
 7812TIP3    H147631   5.622   2.900   1.474 -1.1594  1.5273 -1.8783
 7812TIP3    H247632   5.525   2.889   1.590  1.9114 -0.4321  0.6975
 7813TIP3   OH247633   6.456   5.603   0.915 -0.5115 -0.0777  0.6526
 7813TIP3    H147634   6.543   5.564   0.920 -1.1903 -1.6129  1.1105
 7813TIP3    H247635   6.401   5.534   0.876 -0.9236  1.9353 -2.7246
 7814TIP3   OH247636   0.242   0.250   1.618 -0.6533 -0.9986  0.6187
 7814TIP3    H147637   0.189   0.211   1.548 -0.0727  1.9937 -1.6950
 7814TIP3    H247638   0.328   0.210   1.608 -0.5104 -0.4351 -0.6131
 7815TIP3   OH247639   0.410   5.261   1.482  0.0481  0.1440  0.7322
 7815TIP3    H147640   0.372   5.345   1.457  0.9516  0.2525 -0.3546
 7815TIP3    H247641   0.494   5.283   1.522 -1.2644 -0.0285  3.9485
 7816TIP3   OH247642   6.145   0.724   1.974  0.0119  0.5062  0.0743
 7816TIP3    H147643   6.147   0.629   1.958 -0.3468  0.1744  1.7933
 7816TIP3    H247644   6.097   0.760   1.900 -1.3978 -0.8742  0.2802
 7817TIP3   OH247645   5.215   2.866   1.412  0.0714  0.8948  0.2986
 7817TIP3    H147646   5.210   2.842   1.505 -0.1072  0.8452  0.2774
 7817TIP3    H247647   5.307   2.854   1.389  0.4399  2.4192  0.8614
 7818TIP3   OH247648   2.235   0.184   1.197 -0.3174  0.5748  0.7564
 7818TIP3    H147649   2.266   0.097   1.172  1.2436  1.3364 -0.1082
 7818TIP3    H247650   2.222   0.230   1.114 -2.6835  0.6917  1.1392
 7819TIP3   OH247651   3.849   4.133   1.295  0.1029  0.2707 -0.0437
 7819TIP3    H147652   3.874   4.191   1.223 -1.0235 -0.1157 -0.7623
 7819TIP3    H247653   3.884   4.176   1.373  1.6452  0.5190 -0.8307
 7820TIP3   OH247654   2.240   3.306   2.414 -0.3097 -0.1521 -0.0637
 7820TIP3    H147655   2.264   3.236   2.474 -1.6063 -0.8080 -0.2928
 7820TIP3    H247656   2.220   3.381   2.470  2.4129  0.5432  0.1466
 7821TIP3   OH247657   1.469   6.641   2.579  0.1064 -0.7191 -0.3107
 7821TIP3    H147658   1.487   6.733   2.599  0.6738 -0.5462 -1.4914
 7821TIP3    H247659   1.376   6.630   2.595  0.2307 -0.2268  0.8634
 7822TIP3   OH247660   4.834   1.018   2.078  0.2240  0.0054  0.1065
 7822TIP3    H147661   4.739   1.014   2.072  0.1414 -2.5068  1.5318
 7822TIP3    H247662   4.852   1.089   2.140 -0.7812 -0.0955  0.5225
 7823TIP3   OH247663   2.791   4.669   1.391  0.3224 -0.0161 -0.1804
 7823TIP3    H147664   2.839   4.667   1.474  0.4238  0.6308 -0.2181
 7823TIP3    H247665   2.841   4.730   1.336 -0.5981  0.7560 -0.1889
 7824TIP3   OH247666   1.629   3.772   4.090  0.1291 -0.2428  0.3188
 7824TIP3    H147667   1.693   3.792   4.021  0.5487  0.0160  0.7740
 7824TIP3    H247668   1.652   3.683   4.117  0.1279 -0.2488  0.3005
 7825TIP3   OH247669   5.296   6.558   2.605 -0.1821  0.2774 -0.0215
 7825TIP3    H147670   5.348   6.481   2.626  1.6651  1.4654 -0.0140
 7825TIP3    H247671   5.309   6.617   2.680  1.3357  1.9800 -1.5202
 7826TIP3   OH247672   1.596   3.773   1.488 -0.1214  0.3025  0.1587
 7826TIP3    H147673   1.651   3.836   1.442  0.1044 -1.2214 -1.7803
 7826TIP3    H247674   1.520   3.761   1.431 -0.5211 -0.6215  0.8514
 7827TIP3   OH247675   4.807   4.238   2.741 -0.7451  0.2708 -0.5111
 7827TIP3    H147676   4.803   4.145   2.719  1.3274 -0.4473  1.6957
 7827TIP3    H247677   4.768   4.244   2.829  3.2092  0.5274  1.4531
 7828TIP3   OH247678   4.459   6.608   2.745 -0.2018 -0.1813 -0.2172
 7828TIP3    H147679   4.456   6.566   2.659 -0.0069  0.2549 -0.4405
 7828TIP3    H247680   4.548   6.643   2.751 -0.2119 -0.2238  0.1698
 7829TIP3   OH247681   0.673   5.052   1.646 -0.6072 -0.1213  0.6869
 7829TIP3    H147682   0.678   5.017   1.558 -0.2547 -1.8246  1.3490
 7829TIP3    H247683   0.597   5.008   1.685 -0.3992  0.1646  1.4266
 7830TIP3   OH247684   3.349   4.538   3.176 -0.0743  0.1288  0.6938
 7830TIP3    H147685   3.391   4.620   3.200 -0.8079  0.3108  1.3980
 7830TIP3    H247686   3.260   4.563   3.150 -0.2048 -0.4033  0.6064
 7831TIP3   OH247687   1.060   5.508   2.352  0.8726  0.0372 -0.1971
 7831TIP3    H147688   1.114   5.500   2.431  0.7282  0.9266  0.0004
 7831TIP3    H247689   1.008   5.587   2.366  1.1081  0.4169 -1.3483
 7832TIP3   OH247690   5.042   6.451   2.623  0.4224 -0.2133  1.2265
 7832TIP3    H147691   4.985   6.460   2.699  1.7268 -0.3861  2.2614
 7832TIP3    H247692   5.117   6.507   2.643  1.0594 -0.7343  0.3435
 7833TIP3   OH247693   4.777   2.788   3.793 -0.4567 -0.3535  0.5553
 7833TIP3    H147694   4.699   2.762   3.842 -2.0365  0.6730 -1.2584
 7833TIP3    H247695   4.759   2.758   3.704  1.6368 -0.8274  0.2417
 7834TIP3   OH247696   0.361   4.799   2.728 -0.2037 -0.0767 -0.2391
 7834TIP3    H147697   0.300   4.865   2.761 -0.3205 -0.1950 -0.2211
 7834TIP3    H247698   0.310   4.747   2.666  0.2999  0.8435 -1.4808
 7835TIP3   OH247699   5.610   2.676   1.050 -0.2844 -0.4228 -0.0306
 7835TIP3    H147700   5.653   2.759   1.068  1.7156 -1.2874 -0.5722
 7835TIP3    H247701   5.598   2.637   1.137 -0.3986  0.0325  0.1631
 7836TIP3   OH247702   2.190   5.170   1.782 -0.2150  0.1752 -0.0013
 7836TIP3    H147703   2.101   5.146   1.756 -0.0572 -1.2648  0.6532
 7836TIP3    H247704   2.194   5.265   1.771 -1.2379  0.0577 -1.8183
 7837TIP3   OH247705   5.917   2.111   2.068 -0.2697 -0.4628 -0.3533
 7837TIP3    H147706   6.009   2.095   2.084 -0.4840 -0.4438  1.0063
 7837TIP3    H247707   5.907   2.206   2.075 -0.5936 -0.5643  0.7591
 7838TIP3   OH247708   4.918   1.230   3.331  0.1690  0.0736 -0.4710
 7838TIP3    H147709   4.932   1.290   3.257 -0.2947  1.3935  0.4798
 7838TIP3    H247710   4.995   1.242   3.386  1.1656 -1.8895 -1.3338
 7839TIP3   OH247711   5.637   1.942   3.355  0.1287 -0.3729 -0.2859
 7839TIP3    H147712   5.626   1.968   3.263  2.8064 -0.9759 -0.8673
 7839TIP3    H247713   5.648   2.025   3.402  0.8330 -0.1211 -0.8721
 7840TIP3   OH247714   3.557   0.684   3.133 -0.2144 -0.0474  0.1586
 7840TIP3    H147715   3.485   0.715   3.188  0.4680  2.4834 -0.2430
 7840TIP3    H247716   3.635   0.722   3.172  0.3841  1.0429 -1.9660
 7841TIP3   OH247717   4.544   5.496   0.898  0.2764 -0.5137  0.0215
 7841TIP3    H147718   4.613   5.443   0.936 -0.6775 -2.3519 -0.6646
 7841TIP3    H247719   4.502   5.438   0.833 -0.8126  1.0914 -0.7866
 7842TIP3   OH247720   1.361   2.333   2.649 -0.4537  0.2857 -0.2200
 7842TIP3    H147721   1.359   2.339   2.744  0.0594 -0.1582 -0.1788
 7842TIP3    H247722   1.415   2.407   2.621  1.1920 -0.8110 -0.0347
 7843TIP3   OH247723   2.179   6.538   1.670  0.5760  0.4916 -0.2913
 7843TIP3    H147724   2.139   6.472   1.613 -1.0854  0.1199  1.2364
 7843TIP3    H247725   2.159   6.621   1.627 -1.4791  0.2821  0.1357
 7844TIP3   OH247726   1.753   3.186   1.853  0.4132  0.5915 -0.3396
 7844TIP3    H147727   1.826   3.182   1.791  1.2538  2.3476  0.4785
 7844TIP3    H247728   1.767   3.111   1.911  1.0323  0.3629 -0.7768
 7845TIP3   OH247729   2.684   6.557   2.349  0.5468 -0.3367  0.3757
 7845TIP3    H147730   2.604   6.600   2.318  0.8962  0.0117 -0.0619
 7845TIP3    H247731   2.712   6.502   2.276  0.8755 -0.2156  0.4069
 7846TIP3   OH247732   6.418   1.933   1.682 -0.1041 -0.3768 -0.3338
 7846TIP3    H147733   6.403   1.901   1.593  1.0754 -1.7077 -0.0924
 7846TIP3    H247734   6.359   1.882   1.737  1.3910 -1.8207 -0.0123
 7847TIP3   OH247735   0.042   4.448   1.622 -0.4124  0.0202 -0.1894
 7847TIP3    H147736   0.029   4.397   1.702  0.6610 -0.1063 -0.0808
 7847TIP3    H247737   0.137   4.449   1.610 -0.5879 -0.4291 -1.7665
 7848TIP3   OH247738   5.235   2.788   3.160  0.0388 -0.1648 -0.2314
 7848TIP3    H147739   5.269   2.877   3.146 -2.7949  1.2291  0.9848
 7848TIP3    H247740   5.230   2.751   3.072 -0.1762  1.4784 -0.9480
 7849TIP3   OH247741   3.559   2.212   1.468 -0.4339 -0.4805 -0.5301
 7849TIP3    H147742   3.624   2.209   1.398 -1.9981 -0.6722 -2.0441
 7849TIP3    H247743   3.575   2.133   1.519  0.8307 -0.2660 -0.5591
 7850TIP3   OH247744   5.691   0.007   1.068  0.2363  0.0452 -0.4259
 7850TIP3    H147745   5.704   0.102   1.070 -0.0459  0.0765  0.2555
 7850TIP3    H247746   5.598  -0.005   1.088  0.3440 -0.3867 -0.1667
 7851TIP3   OH247747   0.703   3.745   1.235 -0.8535 -0.1376  0.3053
 7851TIP3    H147748   0.634   3.785   1.288 -2.8554 -1.8410 -0.8736
 7851TIP3    H247749   0.776   3.733   1.296 -2.6898 -1.1067  2.4633
 7852TIP3   OH247750   1.338   2.932   2.983  0.2786  0.4627  0.1249
 7852TIP3    H147751   1.264   2.969   2.935  0.1575 -2.0587 -1.8239
 7852TIP3    H247752   1.356   2.848   2.940  2.9825  0.0324  1.8162
 7853TIP3   OH247753   5.477   4.541   1.494  0.4204  0.4456  0.3412
 7853TIP3    H147754   5.540   4.470   1.478  1.2166  1.1223  0.3896
 7853TIP3    H247755   5.424   4.545   1.414  3.2459  2.6755 -1.6568
 7854TIP3   OH247756   5.908   0.246   2.612 -0.2855  0.0737 -0.0415
 7854TIP3    H147757   5.892   0.156   2.582  0.2142  0.1993 -0.7161
 7854TIP3    H247758   5.998   0.245   2.643 -0.4270  0.2394  0.3937
 7855TIP3   OH247759   2.279   0.317   1.887 -0.3435 -0.3619 -0.6257
 7855TIP3    H147760   2.357   0.340   1.837 -0.0627 -1.6504 -0.8159
 7855TIP3    H247761   2.224   0.267   1.825 -0.6291 -0.7577 -0.0636
 7856TIP3   OH247762   1.017   5.672   0.816 -0.1692  0.3715  0.4519
 7856TIP3    H147763   0.964   5.750   0.832  0.5007  0.7256  1.0675
 7856TIP3    H247764   1.035   5.638   0.904  1.1449  0.6431  0.3188
 7857TIP3   OH247765   0.696   1.745   2.967 -0.5880  0.1986  0.5082
 7857TIP3    H147766   0.684   1.756   2.872 -0.1757  0.2893  0.4668
 7857TIP3    H247767   0.786   1.716   2.976 -0.7824 -0.3146  0.8380
 7858TIP3   OH247768   4.162   1.632   3.189  0.3367  0.2562  0.3722
 7858TIP3    H147769   4.125   1.585   3.264  1.5669  1.3662  1.7570
 7858TIP3    H247770   4.090   1.684   3.155 -0.3008 -0.4376  0.6246
 7859TIP3   OH247771   3.173   4.651   1.610  0.4746  0.3754  0.2423
 7859TIP3    H147772   3.212   4.670   1.525  0.2683 -1.6522 -0.3698
 7859TIP3    H247773   3.104   4.716   1.620 -0.1811  0.0239 -1.6466
 7860TIP3   OH247774   4.235   0.536   2.065  1.2630  0.3259 -0.0023
 7860TIP3    H147775   4.264   0.502   1.980  1.1522 -2.5272  0.9894
 7860TIP3    H247776   4.277   0.478   2.129  0.0302  1.3739  1.8394
 7861TIP3   OH247777   1.616   2.298   3.811  0.1092 -0.2052  0.0313
 7861TIP3    H147778   1.660   2.348   3.880 -0.3961 -1.5873  1.4266
 7861TIP3    H247779   1.682   2.286   3.743  0.3135  2.1023 -0.2580
 7862TIP3   OH247780   5.465   3.130   1.434 -0.3056 -0.3882  0.1113
 7862TIP3    H147781   5.435   3.135   1.343  1.3309  2.4360 -0.3914
 7862TIP3    H247782   5.553   3.095   1.429 -0.1059  0.0339  0.5455
 7863TIP3   OH247783   0.620   5.533   0.913 -0.3206  0.1874  0.1413
 7863TIP3    H147784   0.703   5.497   0.942 -0.3015 -0.4985 -0.7182
 7863TIP3    H247785   0.619   5.519   0.819 -0.7925  1.4949 -0.0723
 7864TIP3   OH247786   5.496   4.849   3.627 -0.2617  0.2007 -0.4345
 7864TIP3    H147787   5.446   4.770   3.649 -0.6110  0.7455  0.8058
 7864TIP3    H247788   5.586   4.819   3.620 -0.4637 -0.4050 -0.4947
 7865TIP3   OH247789   2.759   6.422   1.034  0.4592 -0.1521 -0.1375
 7865TIP3    H147790   2.694   6.491   1.017  0.7466  0.1326 -0.0724
 7865TIP3    H247791   2.843   6.465   1.026  0.6303  0.0372  2.1564
 7866TIP3   OH247792   2.383   5.583   1.817  0.1673  1.0973  0.1207
 7866TIP3    H147793   2.288   5.574   1.828  0.4315 -1.8098  0.6219
 7866TIP3    H247794   2.420   5.525   1.883  2.2014 -1.2891 -2.9137
 7867TIP3   OH247795   2.857   6.555   2.590  0.0897  0.1539 -0.2653
 7867TIP3    H147796   2.897   6.481   2.544  0.0433  0.4860 -0.8498
 7867TIP3    H247797   2.786   6.583   2.533  0.1895  0.7353 -0.1133
 7868TIP3   OH247798   2.536   1.489   0.897  0.0131  0.2672 -0.4416
 7868TIP3    H147799   2.521   1.497   0.802  1.3512 -0.9559 -0.7906
 7868TIP3    H247800   2.593   1.563   0.918 -1.3041  1.2832 -0.3139
 7869TIP3   OH247801   6.140   2.198   2.721 -0.4216 -0.4802 -0.0488
 7869TIP3    H147802   6.143   2.126   2.657  1.9719 -0.9045  0.4198
 7869TIP3    H247803   6.196   2.168   2.793 -1.3670  0.8621  1.2947
 7870TIP3   OH247804   5.292   6.252   1.555  0.3548  0.1896  0.0265
 7870TIP3    H147805   5.222   6.317   1.551  0.9514  0.7846 -1.2513
 7870TIP3    H247806   5.313   6.246   1.649 -3.0451 -1.8686  0.8527
 7871TIP3   OH247807   6.504   0.750   0.504 -0.0873 -0.6119 -0.0542
 7871TIP3    H147808   6.584   0.714   0.542 -0.2586 -0.3599  0.5686
 7871TIP3    H247809   6.517   0.746   0.410  0.2476 -1.4955  0.0241
 7872TIP3   OH247810   1.201   3.114   3.826 -0.3871  0.2299 -0.3685
 7872TIP3    H147811   1.144   3.044   3.793 -1.5052  1.1892 -0.5506
 7872TIP3    H247812   1.276   3.068   3.864 -1.7360 -1.1528  0.7560
 7873TIP3   OH247813   0.765   3.357   1.416 -1.1961  0.5610  0.4171
 7873TIP3    H147814   0.819   3.419   1.466  0.6328 -0.8063  0.2260
 7873TIP3    H247815   0.724   3.411   1.348 -0.0288  1.6561  0.5324
 7874TIP3   OH247816   1.799   3.627   2.478 -0.2787  0.0362 -0.3120
 7874TIP3    H147817   1.733   3.605   2.413  1.0259 -0.2585 -1.5863
 7874TIP3    H247818   1.881   3.633   2.429  0.7126  0.0673  1.2566
 7875TIP3   OH247819   0.272   2.599   2.356 -0.1176 -0.1768 -0.2279
 7875TIP3    H147820   0.245   2.624   2.444 -0.6233 -1.1631 -0.0944
 7875TIP3    H247821   0.276   2.682   2.308  1.2268  0.5053  0.9820
 7876TIP3   OH247822   6.734   1.447   3.207  0.9574 -0.1015 -0.2753
 7876TIP3    H147823   6.818   1.418   3.171  1.5305  1.8245 -0.5853
 7876TIP3    H247824   6.746   1.442   3.302  0.9832 -0.9591 -0.3112
 7877TIP3   OH247825   4.491   0.628   4.388  0.2777 -0.1938  0.7204
 7877TIP3    H147826   4.406   0.591   4.365 -0.2934  0.2671  2.0255
 7877TIP3    H247827   4.525   0.569   4.456 -0.1690  1.0250  2.0533
 7878TIP3   OH247828   4.682   4.274   2.462  0.1177  0.5128 -0.0930
 7878TIP3    H147829   4.667   4.224   2.543  0.5853 -1.3860 -1.1367
 7878TIP3    H247830   4.756   4.331   2.483  1.9384 -1.7920  0.0840
 7879TIP3   OH247831   5.541   5.364   1.437 -0.0647 -0.2208  0.2055
 7879TIP3    H147832   5.586   5.433   1.486  1.8895 -0.9581 -0.4573
 7879TIP3    H247833   5.574   5.372   1.348  0.3340 -2.0681  0.1364
 7880TIP3   OH247834   3.516   2.072   0.397 -0.1234  0.2435  0.0424
 7880TIP3    H147835   3.520   2.143   0.333  0.7776  1.0285  0.9472
 7880TIP3    H247836   3.592   2.085   0.452  0.6259 -2.0334 -0.3611
 7881TIP3   OH247837   5.806   1.459   2.591 -0.2551  0.3106  0.7060
 7881TIP3    H147838   5.848   1.495   2.513 -1.1080  0.5204  0.3337
 7881TIP3    H247839   5.875   1.459   2.657  0.2804  0.8278  0.1637
 7882TIP3   OH247840   5.964   4.446   0.628  0.0586 -0.5423  0.6643
 7882TIP3    H147841   5.900   4.375   0.622 -0.7268  0.2654 -1.4802
 7882TIP3    H247842   5.920   4.513   0.680 -1.6237  0.6781 -2.1484
 7883TIP3   OH247843   0.304   4.490   0.396  0.0296 -0.1498 -0.1688
 7883TIP3    H147844   0.253   4.527   0.468 -1.6015  1.0091 -1.8417
 7883TIP3    H247845   0.345   4.412   0.434  0.6452  1.3256  2.4644
 7884TIP3   OH247846   1.371   2.514   2.196 -0.2644 -0.0497 -0.0360
 7884TIP3    H147847   1.378   2.554   2.109  0.3314 -0.5896 -0.2506
 7884TIP3    H247848   1.398   2.423   2.182 -2.2152 -0.7094  0.3049
 7885TIP3   OH247849   0.973   3.924   2.599  0.0699  0.5490  0.1761
 7885TIP3    H147850   0.959   3.968   2.683  2.1568  1.1855  0.2495
 7885TIP3    H247851   0.972   3.831   2.620  1.2857  0.7160  1.0496
 7886TIP3   OH247852   1.064   5.183   2.611 -0.2440  0.0439  0.2934
 7886TIP3    H147853   1.111   5.266   2.596  1.8489 -0.9243  1.1606
 7886TIP3    H247854   1.001   5.204   2.679  2.2161  0.3545  2.6411
 7887TIP3   OH247855   4.770   0.206   3.166 -0.3480 -0.3452  0.5422
 7887TIP3    H147856   4.701   0.144   3.142  0.0745 -0.0967 -1.4855
 7887TIP3    H247857   4.728   0.292   3.160 -0.1952 -0.2692  0.5686
 7888TIP3   OH247858   4.462   3.756   2.539  0.0967  0.0751 -0.7014
 7888TIP3    H147859   4.369   3.773   2.553  0.3575  2.0608 -1.0066
 7888TIP3    H247860   4.489   3.704   2.614 -1.3032 -0.7271 -0.7266
 7889TIP3   OH247861   0.308   0.770   0.398 -0.0655 -0.0479 -0.0088
 7889TIP3    H147862   0.240   0.807   0.455  0.1229 -0.0092  0.1930
 7889TIP3    H247863   0.300   0.820   0.316  1.4192  1.7923  0.8947
 7890TIP3   OH247864   2.018   6.611   3.042 -0.3118 -0.4668 -0.4751
 7890TIP3    H147865   2.004   6.547   2.972 -2.0272 -0.8246  0.1354
 7890TIP3    H247866   2.083   6.570   3.100 -2.2631 -2.2865  0.5667
 7891TIP3   OH247867   1.102   0.578   3.027 -0.5335  0.4197  0.0332
 7891TIP3    H147868   1.167   0.568   2.958 -0.2949  0.6119  0.2291
 7891TIP3    H247869   1.117   0.503   3.085 -0.6277  0.3479 -0.0343
 7892TIP3   OH247870   6.012   4.203   3.235 -0.1699  0.1759 -0.0144
 7892TIP3    H147871   6.068   4.244   3.169  0.6866  1.1325  1.2645
 7892TIP3    H247872   6.019   4.109   3.217 -1.2559  0.4349 -2.2687
 7893TIP3   OH247873   5.339   1.430   3.655  0.1711 -0.1886 -0.2129
 7893TIP3    H147874   5.366   1.474   3.736 -0.2720  0.1050 -0.2234
 7893TIP3    H247875   5.269   1.485   3.620 -0.1561 -0.7209 -0.4025
 7894TIP3   OH247876   4.303   5.216   2.141 -0.9042  0.2954  0.1910
 7894TIP3    H147877   4.360   5.270   2.196 -1.0291  1.7144 -1.0076
 7894TIP3    H247878   4.336   5.127   2.153 -0.0493  0.7535  1.4615
 7895TIP3   OH247879   1.816   0.903   1.462  0.7278  0.3291  0.1713
 7895TIP3    H147880   1.897   0.882   1.510  1.4316  0.3423 -0.9690
 7895TIP3    H247881   1.807   0.832   1.398  0.6189  1.0629 -0.6540
 7896TIP3   OH247882   1.055   6.183   2.192  0.2987 -0.1253  0.2859
 7896TIP3    H147883   1.002   6.237   2.250  0.2540  1.6746 -1.3353
 7896TIP3    H247884   1.140   6.226   2.190  1.2955 -1.9035  1.3493
 7897TIP3   OH247885   0.377   6.464   0.580  0.0627  0.1162  0.2072
 7897TIP3    H147886   0.295   6.439   0.622 -0.5229  1.1421 -0.2670
 7897TIP3    H247887   0.385   6.558   0.597  0.2087  0.3999 -1.2512
 7898TIP3   OH247888   1.679   2.295   3.109 -1.0341 -0.2247 -0.0616
 7898TIP3    H147889   1.733   2.303   3.031  0.1259  0.5541  0.7894
 7898TIP3    H247890   1.605   2.354   3.093  0.2041  1.4895  0.2036
 7899TIP3   OH247891   1.158   1.871   2.139  0.5046 -0.0014 -0.1282
 7899TIP3    H147892   1.129   1.927   2.068  1.5516 -1.9003 -2.1678
 7899TIP3    H247893   1.252   1.887   2.146  0.4896 -0.1688  0.5155
 7900TIP3   OH247894   0.274   6.133   1.165  0.1925 -0.4853 -0.4681
 7900TIP3    H147895   0.209   6.075   1.205 -0.4996  0.3893 -0.2952
 7900TIP3    H247896   0.231   6.218   1.161  1.2976  0.0934 -0.4422
 7901TIP3   OH247897   3.392   4.892   4.225  0.6107 -0.0391 -0.7417
 7901TIP3    H147898   3.358   4.814   4.268  0.6467  0.3132 -0.0722
 7901TIP3    H247899   3.320   4.955   4.228  0.7831  0.1613 -0.7489
 7902TIP3   OH247900   1.550   1.460   1.234 -0.2395  0.0724 -0.8465
 7902TIP3    H147901   1.488   1.407   1.284 -0.6820 -0.2728 -1.7391
 7902TIP3    H247902   1.604   1.397   1.186  0.3351  0.3900 -0.6327
 7903TIP3   OH247903   5.698   1.722   2.558 -0.1664 -0.1480  0.2066
 7903TIP3    H147904   5.778   1.681   2.592  0.0270  1.7636  2.2627
 7903TIP3    H247905   5.646   1.648   2.524  2.7842 -1.3592 -2.1284
 7904TIP3   OH247906   3.041   1.421   1.922 -0.1794  0.3062  0.3311
 7904TIP3    H147907   3.070   1.504   1.961 -0.1703  0.5629 -0.2203
 7904TIP3    H247908   3.028   1.364   1.998 -0.8486  1.0162  0.7679
 7905TIP3   OH247909   1.908   0.344   1.060  0.4212 -0.2973  0.1259
 7905TIP3    H147910   1.994   0.385   1.066  1.0749 -1.6494  0.5526
 7905TIP3    H247911   1.859   0.379   1.134  2.1488 -2.7815  2.6938
 7906TIP3   OH247912   3.358   3.828   2.096  0.2410 -0.4048 -0.1718
 7906TIP3    H147913   3.423   3.898   2.097 -0.2228  0.1118 -1.8968
 7906TIP3    H247914   3.373   3.779   2.177  1.0737  1.2228  0.7008
 7907TIP3   OH247915   2.345   0.685   9.459 -0.2642  0.1758  0.3933
 7907TIP3    H147916   2.415   0.743   9.431  0.1835 -0.6463 -0.2245
 7907TIP3    H247917   2.366   0.600   9.420 -0.6855 -0.5201  1.6051
 7908TIP3   OH247918   2.026   0.244   2.077 -0.8403 -0.0565  0.7693
 7908TIP3    H147919   1.976   0.320   2.048 -1.0507 -0.3434  0.3804
 7908TIP3    H247920   2.033   0.188   2.000 -2.4692 -1.4027  1.5390
 7909TIP3   OH247921   4.705   5.399   3.261 -0.2751 -0.0437 -0.2267
 7909TIP3    H147922   4.784   5.453   3.260 -0.3101  0.0015 -1.3517
 7909TIP3    H247923   4.680   5.392   3.169 -1.1738 -0.6582  0.0598
 7910TIP3   OH247924   4.052   3.141   2.237  0.6432  0.4768 -0.2337
 7910TIP3    H147925   3.962   3.161   2.214  0.3330  1.9676  2.0214
 7910TIP3    H247926   4.054   3.045   2.247 -1.1653  0.5581  1.3882
 7911TIP3   OH247927   3.052   6.464   1.022 -0.2084  0.7377 -0.2451
 7911TIP3    H147928   3.087   6.377   1.038 -0.0439  0.9588  0.7012
 7911TIP3    H247929   3.102   6.498   0.948  0.6422  0.5251  0.2173
 7912TIP3   OH247930   0.571   5.173   2.774 -0.4322 -0.2384 -0.4050
 7912TIP3    H147931   0.591   5.110   2.843 -0.9222 -0.0961 -0.1282
 7912TIP3    H247932   0.588   5.259   2.814  1.5466 -0.1991 -1.1963
 7913TIP3   OH247933   6.010   0.188   3.133  0.8221 -0.0566  0.3628
 7913TIP3    H147934   6.083   0.158   3.080  0.4887  0.3036 -0.3217
 7913TIP3    H247935   6.025   0.282   3.143  1.3639 -0.2690  1.6918
 7914TIP3   OH247936   4.832   0.083   1.590 -0.2811  0.0711  0.1244
 7914TIP3    H147937   4.817   0.174   1.617 -0.5952  0.5264 -1.4725
 7914TIP3    H247938   4.793   0.077   1.503  0.3679 -1.4112 -0.0986
 7915TIP3   OH247939   5.575   0.211   1.845  0.5456  0.5774 -0.3116
 7915TIP3    H147940   5.600   0.175   1.760 -1.3122  0.2282 -0.7615
 7915TIP3    H247941   5.480   0.200   1.848  0.6931 -0.8595  2.4552
 7916TIP3   OH247942   4.429   1.240   2.356  0.1287  0.2002 -1.1763
 7916TIP3    H147943   4.499   1.269   2.298 -0.8614  0.5987 -2.1966
 7916TIP3    H247944   4.362   1.308   2.350  0.7490  1.2844  1.9467
 7917TIP3   OH247945   1.622   5.108   0.513 -0.2900 -0.0677 -0.2571
 7917TIP3    H147946   1.612   5.038   0.448  0.7255  0.4838 -1.0357
 7917TIP3    H247947   1.663   5.180   0.465  0.6282  0.3113  1.0333
 7918TIP3   OH247948   0.445   0.032   1.205  0.3188  0.0769  0.1721
 7918TIP3    H147949   0.368   0.086   1.227 -0.3157 -1.6506  2.7780
 7918TIP3    H247950   0.408  -0.053   1.181  1.2796  0.6651 -4.0931
 7919TIP3   OH247951   2.850   4.952   3.157  0.5178  0.1505 -0.5313
 7919TIP3    H147952   2.808   5.038   3.156 -0.7180 -0.4218 -0.0917
 7919TIP3    H247953   2.847   4.925   3.249 -1.4456 -1.4204 -0.9657
 7920TIP3   OH247954   4.522   3.431   3.134 -0.1769 -0.2025  0.1303
 7920TIP3    H147955   4.496   3.522   3.154  0.7983 -0.2764  1.8761
 7920TIP3    H247956   4.452   3.378   3.172  0.2427 -0.2471  0.8417
 7921TIP3   OH247957   1.246   6.370   1.739  0.0154 -0.4334 -0.5069
 7921TIP3    H147958   1.324   6.320   1.715  0.6282  0.4548 -0.4214
 7921TIP3    H247959   1.210   6.399   1.655 -0.6457 -1.4327 -0.5899
 7922TIP3   OH247960   4.233   6.709   3.458 -0.1123 -0.3327 -0.8559
 7922TIP3    H147961   4.247   6.660   3.539  0.8704 -0.3459 -1.0272
 7922TIP3    H247962   4.169   6.776   3.481  0.3396 -0.1882 -0.0052
 7923TIP3   OH247963   3.028   5.658   2.749 -0.4718 -0.1135  0.4750
 7923TIP3    H147964   3.035   5.742   2.793 -2.1644  0.3523 -0.1071
 7923TIP3    H247965   3.106   5.610   2.778  1.0395  1.9603  0.0657
 7924TIP3   OH247966   2.339   4.966   2.240  0.4303 -0.1013  0.1962
 7924TIP3    H147967   2.435   4.968   2.248  0.5943 -1.8137 -0.7396
 7924TIP3    H247968   2.323   4.963   2.146 -0.6278  1.3989  0.2937
 7925TIP3   OH247969   2.470   1.719   1.149 -0.0770 -0.5374 -0.5361
 7925TIP3    H147970   2.442   1.768   1.072  0.5540  0.2248 -0.2969
 7925TIP3    H247971   2.565   1.729   1.151 -0.1415  0.0183  0.6947
 7926TIP3   OH247972   5.815   1.753   3.068 -0.2622  0.7520  0.0855
 7926TIP3    H147973   5.907   1.764   3.042 -0.1007 -0.5983 -0.0089
 7926TIP3    H247974   5.781   1.842   3.073  1.4287  1.3793  1.5225
 7927TIP3   OH247975   1.136   0.727   2.696 -0.6583 -0.2381  0.4614
 7927TIP3    H147976   1.210   0.784   2.675 -0.2425 -1.1663 -0.6589
 7927TIP3    H247977   1.140   0.657   2.631 -1.6247 -1.1243  1.3244
 7928TIP3   OH247978   6.123   2.970   2.251 -0.2139  0.0824 -0.2542
 7928TIP3    H147979   6.048   2.971   2.311 -0.7468 -2.0870 -0.7946
 7928TIP3    H247980   6.186   3.032   2.290 -2.3461  2.2055  0.0501
 7929TIP3   OH247981   6.606   4.852   3.085 -0.5620 -0.2547  0.0941
 7929TIP3    H147982   6.586   4.761   3.103  0.4493 -0.8213 -1.4263
 7929TIP3    H247983   6.701   4.859   3.094 -0.6824  0.8263  0.8429
 7930TIP3   OH247984   2.202   3.337   3.358  0.3486 -0.6224 -0.2305
 7930TIP3    H147985   2.125   3.318   3.304 -0.1979 -2.4333  1.0641
 7930TIP3    H247986   2.193   3.428   3.383  0.5848  0.2650 -3.0635
 7931TIP3   OH247987   5.506   6.114   2.666 -0.1648 -0.4010  0.2918
 7931TIP3    H147988   5.446   6.146   2.598  0.2215  1.6737  0.8872
 7931TIP3    H247989   5.538   6.030   2.631  0.2649  0.7291 -2.2460
 7932TIP3   OH247990   0.190   5.244   1.921  0.3625  0.2190 -0.4097
 7932TIP3    H147991   0.154   5.191   1.992 -0.6346  0.9342 -0.3595
 7932TIP3    H247992   0.132   5.228   1.847  1.4524 -0.6008 -1.1379
 7933TIP3   OH247993   5.990   2.128   0.996 -0.8945 -0.4420  0.0255
 7933TIP3    H147994   6.005   2.037   1.021  0.5036 -0.3339 -0.3332
 7933TIP3    H247995   5.917   2.157   1.051 -0.0641 -1.1903  1.5852
 7934TIP3   OH247996   4.506   5.818   1.398 -0.0636 -0.9233 -0.0928
 7934TIP3    H147997   4.474   5.877   1.466  1.1840 -1.5936  1.1373
 7934TIP3    H247998   4.437   5.754   1.387 -1.3657  0.6152 -1.3237
 7935TIP3   OH247999   1.121   0.199   2.083  0.4676  0.0267  0.3146
 7935TIP3    H148000   1.152   0.116   2.119 -0.5053 -0.1215  0.8681
 7935TIP3    H248001   1.156   0.202   1.995  0.8382 -0.7948  0.4253
 7936TIP3   OH248002   6.727   1.452   1.335 -0.4738 -0.9151 -0.0661
 7936TIP3    H148003   6.671   1.512   1.384 -0.8201  0.1091 -1.6239
 7936TIP3    H248004   6.802   1.505   1.308 -0.9073 -1.0706 -1.6848
 7937TIP3   OH248005   2.734   1.375   0.377 -0.2057 -0.1391  0.6460
 7937TIP3    H148006   2.826   1.347   0.370 -0.0876  0.2289  0.7068
 7937TIP3    H248007   2.684   1.295   0.360  0.1263 -0.3679  0.7216
 7938TIP3   OH248008   1.690   1.256   1.103 -0.3375 -0.9981 -0.2736
 7938TIP3    H148009   1.676   1.286   1.014 -0.4357  0.5310  0.2320
 7938TIP3    H248010   1.775   1.212   1.100 -0.0265 -0.3629 -0.9735
 7939TIP3   OH248011   3.949   2.122   1.921 -0.3121 -0.1946 -0.5338
 7939TIP3    H148012   3.907   2.166   1.995 -0.3690 -0.6042 -0.3179
 7939TIP3    H248013   4.008   2.187   1.884  0.3203 -0.2400  0.3671
 7940TIP3   OH248014   2.746   1.687   3.287 -0.4876 -0.1748  0.2656
 7940TIP3    H148015   2.734   1.615   3.350  0.1466  0.3277  0.9909
 7940TIP3    H248016   2.817   1.739   3.325  0.7021 -0.4657 -1.4295
 7941TIP3   OH248017   0.171   5.939   1.325  0.0848 -0.7204  0.5151
 7941TIP3    H148018   0.148   5.948   1.418  0.4388 -2.0096  0.7492
 7941TIP3    H248019   0.089   5.914   1.282 -0.0182 -0.3930  0.5138
 7942TIP3   OH248020   3.428   5.481   1.009 -0.2654  0.3949  0.1383
 7942TIP3    H148021   3.388   5.546   0.951 -0.4603  1.1421  1.0801
 7942TIP3    H248022   3.355   5.427   1.039 -0.5258  1.4026  1.4091
 7943TIP3   OH248023   2.734   4.810   2.300  0.2380 -0.1657 -0.3379
 7943TIP3    H148024   2.766   4.804   2.210  1.8461  0.1849  0.1817
 7943TIP3    H248025   2.810   4.789   2.354 -0.6940 -0.3215  0.9486
 7944TIP3   OH248026   3.432   2.619   4.212  0.2412  0.1252 -0.6206
 7944TIP3    H148027   3.522   2.632   4.182  0.5526 -0.2727  0.1174
 7944TIP3    H248028   3.417   2.525   4.203  0.4156 -0.0389  0.6372
 7945TIP3   OH248029   2.860   3.124   2.151 -0.5689  0.3719  0.0371
 7945TIP3    H148030   2.827   3.120   2.241 -1.3141 -2.5837 -0.2752
 7945TIP3    H248031   2.803   3.066   2.102  2.3162 -1.3902 -1.4868
 7946TIP3   OH248032   2.075   3.010   0.994 -0.0438 -0.4032 -0.1753
 7946TIP3    H148033   2.050   3.092   0.951  0.3930  0.6563  1.5016
 7946TIP3    H248034   2.004   2.949   0.972 -0.9721  0.7577 -0.4953
 7947TIP3   OH248035   5.834   6.462   2.610  0.1628  0.0065 -0.2917
 7947TIP3    H148036   5.826   6.454   2.515  0.3232  0.4503 -0.3470
 7947TIP3    H248037   5.767   6.525   2.635 -0.2362 -0.5181 -0.0397
 7948TIP3   OH248038   2.387   1.260   2.993 -0.1118  0.2365  0.1486
 7948TIP3    H148039   2.466   1.299   3.030 -0.5677  1.4622 -0.1186
 7948TIP3    H248040   2.378   1.176   3.037 -0.2266  1.3237  2.3057
 7949TIP3   OH248041   4.538   3.263   2.178  0.1091 -0.4284 -0.1640
 7949TIP3    H148042   4.514   3.172   2.195 -2.0227  0.2920  1.0690
 7949TIP3    H248043   4.462   3.299   2.132  0.1187  1.1684  0.9908
 7950TIP3   OH248044   3.313   0.697   3.258 -0.5324 -0.0829  0.3708
 7950TIP3    H148045   3.277   0.782   3.234  0.4252  0.0602 -0.6795
 7950TIP3    H248046   3.241   0.635   3.244 -0.7682  0.3539 -0.4035
 7951TIP3   OH248047   5.494   0.627   3.975 -0.2365  0.1790  0.3688
 7951TIP3    H148048   5.498   0.629   3.879 -3.1474 -1.9084  0.0686
 7951TIP3    H248049   5.546   0.551   4.000  0.1452  0.4547  0.4199
 7952TIP3   OH248050   3.132   6.773   1.091  0.0469  0.8716 -0.3256
 7952TIP3    H148051   3.177   6.788   1.008  1.5908 -0.1421  0.2994
 7952TIP3    H248052   3.151   6.683   1.114 -1.2585  0.7979  0.6249
 7953TIP3   OH248053   0.066   5.250   0.470 -0.3634  0.3141 -0.1893
 7953TIP3    H148054   0.081   5.165   0.428 -0.8765  0.5455 -0.8730
 7953TIP3    H248055   0.148   5.270   0.515 -0.6841 -1.1956  1.1730
 7954TIP3   OH248056   3.551   5.695   3.613 -0.3393  0.0480  0.5599
 7954TIP3    H148057   3.528   5.782   3.580  0.2729  0.1830  0.4771
 7954TIP3    H248058   3.604   5.711   3.691 -0.5174 -0.2571  0.7473
 7955TIP3   OH248059   4.317   1.712   3.583  0.3189  0.4539  0.3089
 7955TIP3    H148060   4.270   1.789   3.550  1.2898  0.8829 -0.0935
 7955TIP3    H248061   4.349   1.738   3.669 -1.4345 -0.3586  1.2738
 7956TIP3   OH248062   5.835   4.390   2.338  0.7259 -0.1996  0.3479
 7956TIP3    H148063   5.927   4.417   2.344  0.2988  1.4550  0.0325
 7956TIP3    H248064   5.787   4.459   2.382 -0.3458 -1.4030  1.1288
 7957TIP3   OH248065   6.270   3.473   1.388  0.4478  0.6437 -0.1771
 7957TIP3    H148066   6.342   3.480   1.451  1.3372 -0.0658 -1.0812
 7957TIP3    H248067   6.241   3.563   1.374  1.1201  0.9356  0.2450
 7958TIP3   OH248068   3.717   1.682   0.678 -0.0716  0.4036  0.0523
 7958TIP3    H148069   3.784   1.743   0.708 -0.4943  0.8774  0.0538
 7958TIP3    H248070   3.655   1.676   0.750 -2.3427  3.3409 -1.4390
 7959TIP3   OH248071   1.594   4.856   2.833 -0.0628 -0.1848 -0.6538
 7959TIP3    H148072   1.567   4.930   2.779 -0.5401 -0.7990 -1.2814
 7959TIP3    H248073   1.599   4.891   2.922 -1.2683  0.3703 -0.7891
 7960TIP3   OH248074   3.730   2.856   1.309 -0.7935  0.0340 -0.4233
 7960TIP3    H148075   3.775   2.927   1.354 -2.3330 -0.5341  2.2778
 7960TIP3    H248076   3.716   2.888   1.220 -0.5077  2.6692  0.3969
 7961TIP3   OH248077   5.081   6.770   1.553 -0.4956  0.2640  0.6796
 7961TIP3    H148078   5.098   6.836   1.486 -2.7187  1.9420  1.6489
 7961TIP3    H248079   4.989   6.782   1.577 -0.8019 -2.7083  1.4770
 7962TIP3   OH248080   6.111   4.127   2.462 -0.2386  0.0936 -0.3853
 7962TIP3    H148081   6.183   4.149   2.521  0.0071 -0.5769 -0.4346
 7962TIP3    H248082   6.103   4.032   2.467 -0.6073  0.0862 -0.9784
 7963TIP3   OH248083   0.519   6.102   3.972  0.6754 -0.1225  0.4615
 7963TIP3    H148084   0.491   6.160   3.902  1.0928 -0.9332 -0.4038
 7963TIP3    H248085   0.452   6.033   3.974  1.6508 -1.1460 -0.4753
 7964TIP3   OH248086   6.532   4.100   1.694  0.1007  0.2911 -0.8671
 7964TIP3    H148087   6.615   4.087   1.740  0.3736 -1.0616 -1.6687
 7964TIP3    H248088   6.488   4.170   1.742  0.2821 -1.1516  1.5716
 7965TIP3   OH248089   6.394   3.466   0.931  0.0908 -0.0516 -0.3860
 7965TIP3    H148090   6.402   3.541   0.989  1.5562 -0.3797 -0.1094
 7965TIP3    H248091   6.475   3.468   0.879 -0.3482 -0.8204 -1.1294
 7966TIP3   OH248092   2.650   1.003   3.314  0.0846 -0.4495 -0.1539
 7966TIP3    H148093   2.570   0.986   3.364 -1.1540  0.1556 -1.8488
 7966TIP3    H248094   2.687   1.081   3.354 -1.7898  1.0204 -1.1407
 7967TIP3   OH248095   2.290   0.133   3.113 -0.0102  0.2964 -0.4399
 7967TIP3    H148096   2.307   0.039   3.120 -0.5253  0.2974  1.3269
 7967TIP3    H248097   2.330   0.170   3.192 -1.0229  1.3583 -0.4052
 7968TIP3   OH248098   5.924   5.628   3.400 -0.5203 -0.3711 -0.2403
 7968TIP3    H148099   5.949   5.573   3.474  2.2393  0.3038 -0.5612
 7968TIP3    H248100   5.898   5.565   3.332  2.5272 -1.4227 -0.5926
 7969TIP3   OH248101   3.461   4.778   3.774 -0.2294 -0.1453 -0.6579
 7969TIP3    H148102   3.387   4.768   3.714  0.9970  2.0804 -2.7451
 7969TIP3    H248103   3.538   4.764   3.719  0.9540  0.7126  0.7047
 7970TIP3   OH248104   0.284   2.317   3.264 -0.1029  0.3688  0.4223
 7970TIP3    H148105   0.359   2.257   3.262 -0.7500 -0.4990  1.1375
 7970TIP3    H248106   0.264   2.327   3.357 -2.3091 -1.3083  0.1986
 7971TIP3   OH248107   0.799   5.351   1.692  0.0684  0.5497  0.4548
 7971TIP3    H148108   0.741   5.281   1.661 -0.0573  0.7883  0.1412
 7971TIP3    H248109   0.769   5.370   1.781  0.6560 -0.3835  0.8589
 7972TIP3   OH248110   0.231   2.830   1.629  0.0920 -0.3807 -0.0964
 7972TIP3    H148111   0.314   2.783   1.630 -0.3939 -1.2290  0.3507
 7972TIP3    H248112   0.236   2.889   1.704  0.2292 -0.5205  0.0039
 7973TIP3   OH248113   5.454   1.888   2.934 -0.1756  0.0951  0.2310
 7973TIP3    H148114   5.504   1.882   3.015  1.1214 -0.2248 -0.5598
 7973TIP3    H248115   5.520   1.910   2.867 -0.8693 -1.5556 -1.0668
 7974TIP3   OH248116   6.338   6.299   1.402 -0.3753  0.2513 -0.2322
 7974TIP3    H148117   6.396   6.349   1.459 -1.4109 -0.2738  1.3633
 7974TIP3    H248118   6.267   6.359   1.381 -0.6729  0.0409  0.1547
 7975TIP3   OH248119   2.577   4.304   2.144  0.4067  0.1348  0.0499
 7975TIP3    H148120   2.561   4.210   2.154  0.6539  0.0400 -0.4016
 7975TIP3    H248121   2.490   4.343   2.145  0.2371 -0.2031 -0.7281
 7976TIP3   OH248122   2.919   5.790   2.010  0.1751 -0.0637  0.0756
 7976TIP3    H148123   2.979   5.851   1.966 -0.1045 -0.0342 -0.2734
 7976TIP3    H248124   2.832   5.822   1.986 -0.0422  1.0624  2.1235
 7977TIP3   OH248125   0.625   2.549   1.346 -0.0286  0.0606  0.5452
 7977TIP3    H148126   0.556   2.583   1.402 -0.9613 -2.4057  0.9720
 7977TIP3    H248127   0.601   2.459   1.328  0.9457  0.3058 -2.7426
 7978TIP3   OH248128   5.103   2.070   3.382 -0.3900  0.1451  0.5551
 7978TIP3    H148129   5.163   2.066   3.308  0.1319 -0.2230  0.9945
 7978TIP3    H248130   5.028   2.017   3.356 -0.6404  0.7981 -0.0901
 7979TIP3   OH248131   1.776   0.397   3.595  0.6121 -0.2491 -0.0353
 7979TIP3    H148132   1.800   0.486   3.568 -0.4666  0.0177 -0.1711
 7979TIP3    H248133   1.851   0.366   3.646  0.9234  0.8091  0.1717
 7980TIP3   OH248134   2.753   4.131   3.813 -0.5154 -0.3281 -0.5814
 7980TIP3    H148135   2.748   4.156   3.721  1.7290 -1.9946 -1.2643
 7980TIP3    H248136   2.785   4.040   3.811  0.5153 -0.1084  1.8333
 7981TIP3   OH248137   0.087   4.934   0.466 -0.6669 -0.6020 -0.4416
 7981TIP3    H148138   0.024   4.862   0.460  0.3336 -1.6163  0.6477
 7981TIP3    H248139   0.168   4.899   0.429 -0.1811 -0.0136  0.0365
 7982TIP3   OH248140   0.727   3.853   2.009  0.3587  0.1506  0.1896
 7982TIP3    H148141   0.665   3.781   1.998  1.8432 -1.2447  0.4725
 7982TIP3    H248142   0.751   3.878   1.919  0.7432 -0.5582  0.0852
 7983TIP3   OH248143   3.181   5.104   3.380 -0.5977 -0.0627 -0.3811
 7983TIP3    H148144   3.106   5.057   3.415 -0.1690  0.5969  1.5461
 7983TIP3    H248145   3.200   5.171   3.445 -0.1734  1.7411 -2.2615
 7984TIP3   OH248146   1.697   3.498   1.536 -0.1823 -0.0186  0.0814
 7984TIP3    H148147   1.685   3.483   1.630  1.1859  1.0146  0.4434
 7984TIP3    H248148   1.628   3.561   1.513 -0.1503  0.1752  0.5083
 7985TIP3   OH248149   0.981   5.096   3.294  0.3077 -0.1186 -0.2786
 7985TIP3    H148150   0.986   5.170   3.234  0.2821  0.0102 -0.1221
 7985TIP3    H248151   0.996   5.134   3.380  0.2637 -0.2908 -0.1948
 7986TIP3   OH248152   0.402   4.041   1.508 -0.1253 -0.7528  0.3831
 7986TIP3    H148153   0.312   4.010   1.518 -0.1088 -0.8841  0.1245
 7986TIP3    H248154   0.402   4.086   1.423 -0.1489 -0.0539  0.7384
 7987TIP3   OH248155   0.982   0.885   2.391  0.2791 -0.2735  0.1311
 7987TIP3    H148156   1.004   0.821   2.324 -0.8755  0.0208 -0.5465
 7987TIP3    H248157   1.056   0.946   2.390  0.9970 -1.1271  0.2134
 7988TIP3   OH248158   3.021   0.442   1.718  0.3762  0.0957 -0.7010
 7988TIP3    H148159   3.046   0.408   1.632 -0.5124  0.3200 -1.0620
 7988TIP3    H248160   2.968   0.372   1.757 -0.8514  0.7501 -1.1483
 7989TIP3   OH248161   3.236   2.819   2.151  0.0199 -0.4189 -0.8471
 7989TIP3    H148162   3.201   2.908   2.159 -0.0667 -0.5958  1.1664
 7989TIP3    H248163   3.329   2.827   2.172  0.2240 -0.6919 -1.5852
 7990TIP3   OH248164   1.745   2.876   2.544  0.0151 -0.2118 -0.4187
 7990TIP3    H148165   1.822   2.821   2.528  0.0064 -0.6403  0.8717
 7990TIP3    H248166   1.674   2.833   2.495 -0.2199 -1.9936  1.3405
 7991TIP3   OH248167   1.271   1.735   1.623 -0.1494 -0.2146  0.1232
 7991TIP3    H148168   1.187   1.766   1.657 -0.8365  0.4884 -2.0600
 7991TIP3    H248169   1.336   1.775   1.681 -1.2480  0.7981  0.7056
 7992TIP3   OH248170   2.306   2.247   3.108 -0.5629 -0.0502  0.0946
 7992TIP3    H148171   2.368   2.183   3.145 -0.4932  0.1906  0.3917
 7992TIP3    H248172   2.305   2.319   3.171  0.5672  0.9739 -0.9853
 7993TIP3   OH248173   5.017   1.286   1.460  0.5780 -0.4659 -0.1531
 7993TIP3    H148174   5.007   1.202   1.415 -0.6674 -0.7683  0.6486
 7993TIP3    H248175   5.065   1.264   1.540  1.7590 -0.1167 -0.7445
 7994TIP3   OH248176   4.366   0.581   2.469  0.0230  0.1889 -0.1604
 7994TIP3    H148177   4.307   0.550   2.401  0.7980  1.3263 -1.3777
 7994TIP3    H248178   4.342   0.672   2.483  2.3170  1.1107 -1.6845
 7995TIP3   OH248179   2.706   5.126   3.420  0.3662  0.0558 -0.0603
 7995TIP3    H148180   2.777   5.069   3.450  0.2043  0.5322  1.3101
 7995TIP3    H248181   2.634   5.107   3.480  0.2337  1.5220  0.2613
 7996TIP3   OH248182   2.255   3.633   1.106 -0.1547 -0.4112 -0.2876
 7996TIP3    H148183   2.308   3.623   1.186  1.1049 -0.1402 -1.0625
 7996TIP3    H248184   2.235   3.543   1.080  0.7625 -0.5570 -0.5170
 7997TIP3   OH248185   6.355   5.188   2.079  0.2904  0.6307  0.0083
 7997TIP3    H148186   6.350   5.184   1.983  1.5149  0.0221 -0.0442
 7997TIP3    H248187   6.289   5.253   2.103 -0.4160  0.4091 -1.2023
 7998TIP3   OH248188   2.326   1.971   2.925 -0.1156 -0.6394 -0.4089
 7998TIP3    H148189   2.235   1.979   2.897  0.0922 -2.2958 -1.6901
 7998TIP3    H248190   2.320   1.957   3.020 -0.8809  3.8420  0.4223
 7999TIP3   OH248191   0.518   5.157   1.911  0.3379  0.0745 -0.6699
 7999TIP3    H148192   0.598   5.122   1.949  0.8414  0.2330 -1.5527
 7999TIP3    H248193   0.460   5.170   1.986  1.3579  0.5642  0.0699
 8000TIP3   OH248194   4.257   1.962   1.100  0.0691  0.1694 -0.3276
 8000TIP3    H148195   4.315   2.036   1.080 -0.8054  1.0169  0.1935
 8000TIP3    H248196   4.202   1.994   1.171 -0.3983 -0.9592 -0.1696
 8001TIP3   OH248197   4.900   5.238   2.251  0.2705  0.5144  0.2695
 8001TIP3    H148198   4.817   5.211   2.213  0.7721 -1.2525  0.3701
 8001TIP3    H248199   4.918   5.323   2.211 -1.3171  0.6852 -0.1442
 8002TIP3   OH248200   1.774   0.383   2.109  0.1902 -0.2188 -0.0297
 8002TIP3    H148201   1.837   0.390   2.181  0.6825 -0.8599 -0.3873
 8002TIP3    H248202   1.690   0.368   2.152  0.1728  1.1417  0.4801
 8003TIP3   OH248203   0.097   0.540   2.662 -0.1908  0.2067  0.2938
 8003TIP3    H148204   0.076   0.506   2.749 -1.5262  1.3794  0.4558
 8003TIP3    H248205   0.017   0.530   2.611  0.0246  1.1807 -0.2623
 8004TIP3   OH248206   6.722   2.271   2.707 -0.0519 -0.2073 -0.0731
 8004TIP3    H148207   6.687   2.220   2.634 -0.2320  1.6610 -1.3623
 8004TIP3    H248208   6.793   2.322   2.669 -0.3871  1.0929  0.9776
 8005TIP3   OH248209   4.361   0.023   1.995 -0.8675 -0.0367  0.5854
 8005TIP3    H148210   4.328  -0.036   2.063 -0.3287 -0.9394  0.0965
 8005TIP3    H248211   4.284   0.050   1.946 -1.0052 -1.4125  0.0008
 8006TIP3   OH248212   0.528   5.415   1.758 -0.3113 -0.1109 -0.3388
 8006TIP3    H148213   0.527   5.344   1.823 -0.3039  0.9363  0.8377
 8006TIP3    H248214   0.435   5.432   1.741 -0.3337  0.2351  0.1092
 8007TIP3   OH248215   2.643   5.759   0.693 -0.8916 -0.0568 -0.2155
 8007TIP3    H148216   2.648   5.705   0.614  1.0172  2.1461 -1.7449
 8007TIP3    H248217   2.693   5.711   0.759 -2.5739 -1.9605 -0.2282
 8008TIP3   OH248218   0.132   3.895   1.506 -0.1606  0.3193 -0.5846
 8008TIP3    H148219   0.058   3.939   1.465 -0.0070 -0.1519 -1.3864
 8008TIP3    H248220   0.185   3.863   1.433  1.0661  1.0214 -0.0224
 8009TIP3   OH248221   5.197   0.592   1.295 -0.5505 -0.5111 -0.0764
 8009TIP3    H148222   5.282   0.549   1.302  0.1632  0.4674 -2.0913
 8009TIP3    H248223   5.182   0.630   1.382  0.8277 -1.1297  0.4528
 8010TIP3   OH248224   5.052   1.778   1.306 -0.0177  0.4263  0.6050
 8010TIP3    H148225   5.118   1.710   1.288  0.7236  0.5388  2.6529
 8010TIP3    H248226   4.970   1.740   1.273  0.5849 -0.9386  0.5841
 8011TIP3   OH248227   0.342   0.509   1.169  0.0443 -0.2341  0.4376
 8011TIP3    H148228   0.399   0.499   1.245  0.3930 -2.0148 -0.0155
 8011TIP3    H248229   0.357   0.599   1.140 -0.1873  0.5462  2.5050
 8012TIP3   OH248230   4.484   3.858   4.483  0.3180  0.3542  0.0146
 8012TIP3    H148231   4.475   3.949   4.511  0.9059  0.6239 -0.6489
 8012TIP3    H248232   4.565   3.856   4.433  1.7451 -1.1073  2.2570
 8013TIP3   OH248233   0.701   0.172   3.555 -0.2926 -0.0214 -0.1472
 8013TIP3    H148234   0.654   0.244   3.512  1.0826 -0.4268 -2.4880
 8013TIP3    H248235   0.776   0.215   3.597 -0.2706  0.0903 -0.2977
 8014TIP3   OH248236   0.231   1.802   3.644 -0.4279  0.3900 -0.2852
 8014TIP3    H148237   0.299   1.868   3.653 -1.0853  0.9717  0.5086
 8014TIP3    H248238   0.162   1.830   3.704 -1.3456 -0.2154 -1.0319
 8015TIP3   OH248239   3.892   3.585   0.587 -0.3782 -0.3017 -0.7123
 8015TIP3    H148240   3.924   3.595   0.677 -1.5352 -0.6731 -0.2344
 8015TIP3    H248241   3.799   3.606   0.593 -0.4687 -0.3255 -1.8410
 8016TIP3   OH248242   6.466   5.408   1.885  0.3300  0.2787 -0.5825
 8016TIP3    H148243   6.520   5.465   1.941 -2.2326  0.4134  1.9701
 8016TIP3    H248244   6.431   5.467   1.818  0.1051  1.0931  0.2276
 8017TIP3   OH248245   0.236   0.194   1.253 -0.1773 -0.5884  0.3266
 8017TIP3    H148246   0.154   0.187   1.301 -0.7211 -0.0245 -0.4993
 8017TIP3    H248247   0.238   0.285   1.222 -0.4351 -1.2460 -1.7316
 8018TIP3   OH248248   3.930   4.882   1.553 -0.5672  0.6991 -0.0839
 8018TIP3    H148249   3.916   4.816   1.485 -1.1501  1.0403 -0.2995
 8018TIP3    H248250   3.970   4.834   1.625  1.7612  0.6510 -1.3115
 8019TIP3   OH248251   3.933   1.753   2.735  0.4921 -0.6731 -0.1809
 8019TIP3    H148252   4.006   1.709   2.692 -0.7533 -2.6338 -0.4195
 8019TIP3    H248253   3.887   1.797   2.663  0.6305 -0.6346 -0.2472
 8020TIP3   OH248254   0.254   6.472   0.892  0.4734  0.2910  0.2383
 8020TIP3    H148255   0.189   6.532   0.855 -0.8761 -1.0004  0.4324
 8020TIP3    H248256   0.237   6.389   0.849  0.3336 -0.6991  2.1112
 8021TIP3   OH248257   6.064   4.951   0.636 -0.3821 -0.1221  0.1975
 8021TIP3    H148258   5.970   4.972   0.631  0.0427  2.5986  1.5051
 8021TIP3    H248259   6.067   4.859   0.661 -2.7246 -0.1530  0.6030
 8022TIP3   OH248260   5.814   6.413   3.614  0.2375 -0.0692  0.2037
 8022TIP3    H148261   5.863   6.333   3.635 -0.2764 -0.7884 -1.2345
 8022TIP3    H248262   5.866   6.457   3.548 -0.4142 -0.1905 -0.4016
 8023TIP3   OH248263   0.722   1.839   2.442 -0.2436  0.0516  0.9004
 8023TIP3    H148264   0.802   1.886   2.420 -1.4626  1.5096 -0.7762
 8023TIP3    H248265   0.745   1.747   2.437  0.9205  0.4038 -1.4564
 8024TIP3   OH248266   4.970   2.526   2.020 -0.0950 -0.3136  0.0088
 8024TIP3    H148267   4.956   2.512   2.114  1.2701 -0.8482  0.1645
 8024TIP3    H248268   5.063   2.504   2.007 -0.3381 -0.5148 -1.5194
 8025TIP3   OH248269   1.374   3.882   0.916  0.8608 -0.3459  0.3759
 8025TIP3    H148270   1.435   3.866   0.988 -1.1182  1.0736  2.5118
 8025TIP3    H248271   1.392   3.972   0.889 -1.1757  0.6570  2.0876
 8026TIP3   OH248272   5.453   0.948   1.404 -0.5728 -0.5954 -0.2222
 8026TIP3    H148273   5.464   0.855   1.420 -1.1007 -0.8424 -1.2096
 8026TIP3    H248274   5.502   0.966   1.324 -0.0381  0.0896  0.2444
 8027TIP3   OH248275   1.902   4.303   2.879 -0.5574 -0.4492  0.7975
 8027TIP3    H148276   1.839   4.235   2.852  0.4520 -1.7628  1.6161
 8027TIP3    H248277   1.972   4.254   2.922 -0.8072  1.2988  3.3646
 8028TIP3   OH248278   3.312   4.187   2.957 -0.0085  0.3681 -0.0137
 8028TIP3    H148279   3.294   4.127   2.885 -0.3408  0.4506 -0.0040
 8028TIP3    H248280   3.319   4.131   3.034  0.3392  0.2805 -0.1104
 8029TIP3   OH248281   5.577   6.686   3.507  0.0799  0.3392 -0.3482
 8029TIP3    H148282   5.631   6.745   3.455  1.9565 -0.1483  0.9377
 8029TIP3    H248283   5.563   6.610   3.450  0.2353  0.7263 -0.9064
 8030TIP3   OH248284   5.190   1.327   3.952 -0.3340 -0.1545 -0.6229
 8030TIP3    H148285   5.196   1.231   3.949  1.5755 -0.0506 -1.1412
 8030TIP3    H248286   5.258   1.353   4.014 -0.5930  0.8980 -0.7651
 8031TIP3   OH248287   3.159   4.946   0.905  0.1328  0.4070 -0.0460
 8031TIP3    H148288   3.181   4.987   0.989  2.8761 -2.0664  0.6262
 8031TIP3    H248289   3.227   4.978   0.845 -0.7663  0.7852 -0.8850
 8032TIP3   OH248290   3.010   3.821   1.675  0.1421 -0.4199  0.4379
 8032TIP3    H148291   3.094   3.824   1.720 -0.1313  1.8061  0.9391
 8032TIP3    H248292   2.976   3.910   1.682 -1.9529 -1.0882 -0.3537
 8033TIP3   OH248293   6.549   4.995   3.731 -0.4883  0.3328 -0.0497
 8033TIP3    H148294   6.542   5.009   3.826  0.1242 -0.5558  0.1414
 8033TIP3    H248295   6.630   5.039   3.707 -1.9386  2.8345 -0.6569
 8034TIP3   OH248296   2.166   2.974   1.974  0.3835 -0.1941  0.3210
 8034TIP3    H148297   2.122   2.989   2.057  0.0463 -1.9351  0.5028
 8034TIP3    H248298   2.196   3.060   1.946 -2.6844  1.0332  0.4220
 8035TIP3   OH248299   6.239   5.067   3.290 -0.0668  0.6413  0.4325
 8035TIP3    H148300   6.250   4.986   3.340 -0.1582  0.4474  0.1373
 8035TIP3    H248301   6.145   5.087   3.297 -0.8860 -1.3609 -2.6679
 8036TIP3   OH248302   3.297   3.088   2.356 -0.4235  0.1353 -0.9616
 8036TIP3    H148303   3.289   3.181   2.376  1.6238  0.8585 -3.0139
 8036TIP3    H248304   3.233   3.072   2.286 -1.6617 -0.3629  0.2356
 8037TIP3   OH248305   4.410   4.903   2.499 -0.2166  0.0656 -0.1607
 8037TIP3    H148306   4.474   4.875   2.564  1.8559 -0.1463 -2.1697
 8037TIP3    H248307   4.462   4.951   2.434 -1.9438 -0.8344 -2.3113
 8038TIP3   OH248308   3.394   0.029   1.263  0.0717 -0.0203 -0.5589
 8038TIP3    H148309   3.337  -0.008   1.330 -0.1772  1.1583 -0.0886
 8038TIP3    H248310   3.344   0.102   1.226  0.7139  0.1441 -1.1377
 8039TIP3   OH248311   2.950   2.939   2.536  0.0432 -0.1614 -0.1935
 8039TIP3    H148312   2.881   3.001   2.513 -1.0057 -1.1328  0.2495
 8039TIP3    H248313   2.915   2.889   2.610 -0.0266 -2.6704 -1.7751
 8040TIP3   OH248314   2.694   6.428   2.798 -0.1226  0.2167 -0.1978
 8040TIP3    H148315   2.646   6.501   2.760 -0.5807 -0.3401 -0.7160
 8040TIP3    H248316   2.767   6.413   2.738 -0.5408 -0.3195 -0.5829
 8041TIP3   OH248317   5.083   4.663   1.167  0.9289  0.3305  0.4826
 8041TIP3    H148318   5.061   4.719   1.242  1.3921  0.8202  0.2613
 8041TIP3    H248319   5.131   4.721   1.108 -1.1648  0.5095 -1.1419
 8042TIP3   OH248320   4.228   4.630   3.039  0.0689 -0.0307 -0.1559
 8042TIP3    H148321   4.294   4.646   2.972  0.1800 -0.7287 -0.2215
 8042TIP3    H248322   4.207   4.717   3.074  2.7568  0.0477  1.5253
 8043TIP3   OH248323   4.000   3.351   1.962 -0.3079 -0.0246  0.1036
 8043TIP3    H148324   4.043   3.415   2.019 -1.0888 -0.5571  1.3348
 8043TIP3    H248325   3.906   3.369   1.971 -0.5123 -0.9975  0.0629
 8044TIP3   OH248326   4.198   1.861   0.688  0.3156  0.3837 -0.4038
 8044TIP3    H148327   4.159   1.927   0.631 -1.1046  0.1111  0.2169
 8044TIP3    H248328   4.159   1.778   0.659 -1.1586  0.3425  1.4935
 8045TIP3   OH248329   4.535   0.034   3.089 -0.3011 -0.3005  0.1594
 8045TIP3    H148330   4.577  -0.028   3.030  0.1561 -0.6406  0.8277
 8045TIP3    H248331   4.493  -0.020   3.155  3.1208  0.0136  2.8809
 8046TIP3   OH248332   0.784   1.141   3.148  0.1794 -0.5548  0.4604
 8046TIP3    H148333   0.793   1.146   3.053 -1.6968  4.0955  0.2862
 8046TIP3    H248334   0.701   1.096   3.163 -0.9148  1.1031 -0.3416
 8047TIP3   OH248335   0.973   1.339   3.014 -0.2720  0.3528  0.2159
 8047TIP3    H148336   0.987   1.348   3.108  0.1964  1.5745  0.0443
 8047TIP3    H248337   1.028   1.266   2.988 -0.9691 -0.4735  1.0044
 8048TIP3   OH248338   0.646   0.977   1.003 -0.0257  0.3298  0.0006
 8048TIP3    H148339   0.587   0.981   0.928 -0.4762  0.8990  0.3738
 8048TIP3    H248340   0.732   1.000   0.967 -0.1922  0.3521 -0.3878
 8049TIP3   OH248341   1.996   2.516   3.236  0.6125 -0.3141 -0.4099
 8049TIP3    H148342   1.939   2.566   3.177  1.0771  1.7614  0.7978
 8049TIP3    H248343   2.070   2.574   3.253  0.0472 -0.3886  2.9102
 8050TIP3   OH248344   3.246   3.696   2.603  0.2277 -0.5374 -0.2780
 8050TIP3    H148345   3.286   3.765   2.551 -1.4046  1.5749  1.0878
 8050TIP3    H248346   3.170   3.669   2.552  1.1363 -1.7567 -1.0445
 8051TIP3   OH248347   6.208   5.683   2.518 -0.0503  0.2689  0.5289
 8051TIP3    H148348   6.243   5.620   2.581  1.7239  0.2074 -0.4338
 8051TIP3    H248349   6.266   5.760   2.526 -0.6236  0.7815 -0.0694
 8052TIP3   OH248350   4.857   4.873   2.862  0.2112 -0.1621  0.6596
 8052TIP3    H148351   4.829   4.857   2.952 -1.0361  0.5483  0.4259
 8052TIP3    H248352   4.911   4.952   2.867  0.1287 -0.1140  0.7775
 8053TIP3   OH248353   3.798   2.531   1.076 -0.1399 -0.4299 -0.2518
 8053TIP3    H148354   3.873   2.480   1.107  1.1803 -0.0374 -2.5785
 8053TIP3    H248355   3.786   2.599   1.143 -0.9011 -2.6742  2.0656
 8054TIP3   OH248356   0.931   4.021   0.886  0.7210 -0.1366 -0.5621
 8054TIP3    H148357   0.999   3.968   0.844 -0.7011 -3.2127  0.7270
 8054TIP3    H248358   0.899   4.078   0.817  0.9509 -2.4265 -2.6899
 8055TIP3   OH248359   6.448   6.165   0.587  0.1846 -0.2922 -0.2406
 8055TIP3    H148360   6.371   6.134   0.636  0.7392 -0.5108  0.5158
 8055TIP3    H248361   6.506   6.200   0.654  1.6755 -2.0683 -0.5313
 8056TIP3   OH248362   1.053   3.022   1.981 -0.3865  0.4436  0.5458
 8056TIP3    H148363   1.053   2.964   1.905  0.6160 -0.4367  1.1776
 8056TIP3    H248364   0.966   3.063   1.980 -0.7769 -0.3499 -0.4583
 8057TIP3   OH248365   1.723   4.340   0.958 -0.3517 -0.2336  0.3150
 8057TIP3    H148366   1.678   4.412   1.003 -2.1763 -0.7157 -0.6344
 8057TIP3    H248367   1.803   4.380   0.923 -0.2236  0.7809  1.6698
 8058TIP3   OH248368   5.815   6.455   4.016 -0.0063  0.0805 -0.4275
 8058TIP3    H148369   5.724   6.442   4.040 -0.3349 -0.1094 -1.6866
 8058TIP3    H248370   5.833   6.546   4.038 -0.1281 -0.1952  0.9117
 8059TIP3   OH248371   4.585   6.549   3.339  0.9308  0.4384  0.3332
 8059TIP3    H148372   4.496   6.560   3.307  0.2907 -1.1466  1.4231
 8059TIP3    H248373   4.608   6.634   3.376 -0.8143  0.3827  1.6459
 8060TIP3   OH248374   6.192   5.392   2.101  0.1965  0.5098 -0.1275
 8060TIP3    H148375   6.169   5.426   2.187 -1.0820  0.0383 -0.2552
 8060TIP3    H248376   6.231   5.466   2.055 -0.1853  1.0853  0.4675
 8061TIP3   OH248377   3.639   4.487   3.581  0.0909  0.3719 -0.4941
 8061TIP3    H148378   3.587   4.532   3.515 -2.4996 -0.8336  0.5928
 8061TIP3    H248379   3.630   4.394   3.559  0.4144  0.0476  0.6803
 8062TIP3   OH248380   3.350   0.233   2.349  0.2808  0.7545  1.4153
 8062TIP3    H148381   3.409   0.208   2.420  3.2290 -0.3586 -1.1764
 8062TIP3    H248382   3.381   0.319   2.320  2.3043 -0.7461 -1.3562
 8063TIP3   OH248383   4.684   6.442   0.859 -0.3277 -0.0353  0.0557
 8063TIP3    H148384   4.616   6.380   0.834 -0.8237  0.8498 -0.8438
 8063TIP3    H248385   4.762   6.412   0.811 -0.7983  0.5465 -1.1164
 8064TIP3   OH248386   0.640   1.001   1.293  0.4617 -0.0679 -0.8308
 8064TIP3    H148387   0.720   1.048   1.316 -0.3956  1.1060 -0.1256
 8064TIP3    H248388   0.641   0.997   1.197  0.5013  1.5425 -0.9212
 8065TIP3   OH248389   6.290   5.630   2.012 -0.1128  0.5955 -0.7702
 8065TIP3    H148390   6.324   5.695   2.074 -0.5722 -0.7817  0.9923
 8065TIP3    H248391   6.229   5.679   1.957 -0.9367  1.5524  0.9291
 8066TIP3   OH248392   2.868   1.341   4.041 -0.8732  0.4404 -0.6891
 8066TIP3    H148393   2.843   1.398   4.114 -0.1032  0.4547 -0.4293
 8066TIP3    H248394   2.956   1.311   4.063 -1.0508 -0.4057 -1.0998
 8067TIP3   OH248395   5.038   2.918   2.944 -0.1584  0.1638  0.3887
 8067TIP3    H148396   5.107   2.975   2.977 -0.9983 -0.1877  3.0312
 8067TIP3    H248397   4.957   2.963   2.967 -0.8269 -0.4543 -0.6767
 8068TIP3   OH248398   2.939   1.039   0.397  0.0612 -0.0893  0.0849
 8068TIP3    H148399   2.957   1.114   0.341  2.2118  0.2442  1.1279
 8068TIP3    H248400   2.987   1.057   0.478 -1.8944 -1.1592  1.5632
 8069TIP3   OH248401   0.354   1.396   1.951 -0.0269  0.5825 -0.4981
 8069TIP3    H148402   0.356   1.313   1.903  1.0836  0.6918 -0.6877
 8069TIP3    H248403   0.319   1.374   2.037  0.4066 -0.1272 -0.4907
 8070TIP3   OH248404   5.727   0.432   3.315 -0.3047 -0.7587 -0.4678
 8070TIP3    H148405   5.768   0.517   3.298  0.5926 -0.8546  1.0277
 8070TIP3    H248406   5.746   0.415   3.408 -1.8620 -1.8459 -0.3209
 8071TIP3   OH248407   1.338   4.947   1.411 -0.5944 -0.3058  0.1402
 8071TIP3    H148408   1.279   4.923   1.341 -1.3821 -1.1092  1.0646
 8071TIP3    H248409   1.347   4.868   1.464 -0.9153  0.5803  1.5744
 8072TIP3   OH248410   1.464   6.209   2.934  1.3681 -0.0163 -0.0619
 8072TIP3    H148411   1.379   6.168   2.916  1.2800  0.8242 -1.7064
 8072TIP3    H248412   1.524   6.136   2.949  0.8924 -0.7171 -1.4050
 8073TIP3   OH248413   4.740   3.385   2.958  0.3846 -0.5691  0.7606
 8073TIP3    H148414   4.652   3.384   2.994 -0.2674  2.7235 -0.3912
 8073TIP3    H248415   4.781   3.307   2.993 -2.8313 -2.0045  1.6852
 8074TIP3   OH248416   1.899   5.464   3.458 -0.4035  0.6964 -0.1744
 8074TIP3    H148417   1.886   5.548   3.415 -0.7551  0.4878 -0.4865
 8074TIP3    H248418   1.955   5.414   3.398  2.9883  1.9794  1.6530
 8075TIP3   OH248419   0.730   4.504   1.683  0.5989  0.2833 -0.0248
 8075TIP3    H148420   0.646   4.471   1.716 -0.0187  0.2433 -1.5598
 8075TIP3    H248421   0.789   4.498   1.758 -0.8191  0.5170  1.1551
 8076TIP3   OH248422   4.649   2.424   1.107 -0.4120  0.4635 -0.2674
 8076TIP3    H148423   4.555   2.426   1.094 -0.4240 -1.8225 -0.9562
 8076TIP3    H248424   4.663   2.465   1.192 -2.0458  0.5269 -0.0016
 8077TIP3   OH248425   6.608   0.227   2.363 -0.1935  0.2250  0.2574
 8077TIP3    H148426   6.614   0.287   2.289  0.2933  1.6977  1.4461
 8077TIP3    H248427   6.657   0.150   2.336  1.8812  1.6204 -0.1342
 8078TIP3   OH248428   3.581   2.213   1.950  0.2852 -0.1305 -0.0112
 8078TIP3    H148429   3.576   2.125   1.913 -0.1344 -0.6824  1.2931
 8078TIP3    H248430   3.572   2.200   2.044  1.0568  1.2452  0.2803
 8079TIP3   OH248431   6.689   4.240   2.756 -0.0067 -0.3088  0.1553
 8079TIP3    H148432   6.660   4.186   2.682 -2.1994  2.5359 -1.2532
 8079TIP3    H248433   6.690   4.180   2.831 -1.1176 -2.5400 -1.5107
 8080TIP3   OH248434   0.133   1.743   2.405  0.5654 -0.2846 -0.2588
 8080TIP3    H148435   0.076   1.694   2.464 -2.3564  1.5251 -1.3395
 8080TIP3    H248436   0.182   1.676   2.357 -1.5837 -2.0431 -0.1408
 8081TIP3   OH248437   6.597   4.591   1.179  0.9027 -0.6791  0.4815
 8081TIP3    H148438   6.511   4.550   1.181  0.9117 -0.7469 -0.2783
 8081TIP3    H248439   6.579   4.685   1.185  0.7896 -0.7068  0.5802
 8082TIP3   OH248440   2.466   2.527   1.566  0.4845 -0.6165  0.3253
 8082TIP3    H148441   2.560   2.534   1.582  0.6870 -1.6628 -0.2928
 8082TIP3    H248442   2.433   2.473   1.638  0.8522 -2.5880 -0.9092
 8083TIP3   OH248443   0.137   0.188   2.942 -0.7562 -0.5531 -0.0326
 8083TIP3    H148444   0.204   0.247   2.977 -0.6973 -0.6946  0.0900
 8083TIP3    H248445   0.071   0.183   3.011 -0.9719 -0.2914 -0.2121
 8084TIP3   OH248446   2.304   2.643   2.011 -0.3065 -0.2634  0.4684
 8084TIP3    H148447   2.353   2.725   2.019 -0.6809 -0.0893  1.0197
 8084TIP3    H248448   2.213   2.668   2.027 -0.5038 -0.6879  0.0395
 8085TIP3   OH248449   4.108   2.759   1.340  0.0804 -0.4946  0.2027
 8085TIP3    H148450   4.131   2.730   1.252 -2.2959 -0.2865 -0.5601
 8085TIP3    H248451   4.119   2.854   1.338 -1.7350 -0.2559 -0.5232
 8086TIP3   OH248452   2.344   5.626   1.132  0.2813 -0.2689 -0.2920
 8086TIP3    H148453   2.424   5.578   1.152  0.8932 -0.0349 -2.0202
 8086TIP3    H248454   2.279   5.558   1.116  1.0363 -0.5814 -2.2896
 8087TIP3   OH248455   2.415   6.130   1.043  0.7255  0.1926 -0.1713
 8087TIP3    H148456   2.417   6.184   0.964 -3.0506  2.1067  0.8222
 8087TIP3    H248457   2.407   6.193   1.115  0.1810 -1.5785  1.4001
 8088TIP3   OH248458   0.050   2.165   1.263 -0.0188 -0.7024 -0.0998
 8088TIP3    H148459   0.114   2.205   1.204 -1.9069  0.4604 -1.4678
 8088TIP3    H248460   0.062   2.210   1.346  0.1954  0.2798 -0.6545
 8089TIP3   OH248461   5.237   1.711   2.559  0.3064 -0.2968 -0.0843
 8089TIP3    H148462   5.229   1.624   2.596 -1.0114 -0.9115 -1.6953
 8089TIP3    H248463   5.331   1.730   2.561  0.7108 -2.1043 -0.4688
 8090TIP3   OH248464   3.699   4.835   1.213 -0.3316  0.4785  0.2003
 8090TIP3    H148465   3.755   4.763   1.243 -1.2263 -0.4759 -0.3741
 8090TIP3    H248466   3.752   4.914   1.228  1.4409 -0.4308 -0.9234
 8091TIP3   OH248467   1.628   5.377   1.639 -0.6084  0.2781  0.3554
 8091TIP3    H148468   1.634   5.468   1.666 -0.1860  0.3596 -0.0063
 8091TIP3    H248469   1.600   5.330   1.717  2.1508  0.2500  1.4093
 8092TIP3   OH248470   3.464   0.409   3.515  0.0657 -0.5104 -0.7424
 8092TIP3    H148471   3.509   0.383   3.434 -0.4791 -0.7701 -0.9638
 8092TIP3    H248472   3.371   0.409   3.492 -0.1974 -1.8267  0.2306
 8093TIP3   OH248473   1.804   1.775   2.716  0.1843  0.1805  0.0171
 8093TIP3    H148474   1.868   1.798   2.784  1.6954 -0.7732 -1.0350
 8093TIP3    H248475   1.847   1.707   2.665 -1.9206 -0.8895 -0.4099
 8094TIP3   OH248476   4.869   6.165   3.500  0.4183 -0.0206 -0.3795
 8094TIP3    H148477   4.814   6.216   3.559  0.4538  1.1615 -1.3508
 8094TIP3    H248478   4.941   6.134   3.555 -1.0020 -1.3581  0.8523
 8095TIP3   OH248479   6.436   0.202   3.149 -0.1040  0.0085 -0.0968
 8095TIP3    H148480   6.445   0.286   3.103 -0.4096 -0.8743 -1.8463
 8095TIP3    H248481   6.378   0.222   3.223 -1.6421  0.9871 -1.4940
 8096TIP3   OH248482   3.335   4.534   3.484 -0.0135  0.3073 -0.5001
 8096TIP3    H148483   3.382   4.578   3.412 -1.0859  1.5146 -0.4990
 8096TIP3    H248484   3.281   4.603   3.522 -2.6230 -1.2407 -1.2019
 8097TIP3   OH248485   5.058   3.830   1.449 -0.1707 -0.0847 -0.2200
 8097TIP3    H148486   5.140   3.862   1.487  0.4946 -1.8921 -0.0226
 8097TIP3    H248487   4.990   3.858   1.511  0.3465  0.9733 -0.1134
 8098TIP3   OH248488   2.767   0.677   3.022  0.1265  0.1061  0.3057
 8098TIP3    H148489   2.782   0.583   3.029  1.3902  0.2262 -0.5621
 8098TIP3    H248490   2.731   0.702   3.107 -1.7750 -1.4057  0.0326
 8099TIP3   OH248491   0.554   0.983   3.175  0.2378 -0.0119 -0.5688
 8099TIP3    H148492   0.472   0.972   3.224 -0.1550  1.1226 -0.9267
 8099TIP3    H248493   0.543   0.931   3.096 -0.0642 -0.0063 -0.5305
 8100TIP3   OH248494   2.340   4.256   1.559 -0.2066  0.4757 -0.0836
 8100TIP3    H148495   2.379   4.211   1.634  2.2116  0.5564 -1.1705
 8100TIP3    H248496   2.363   4.348   1.572 -0.0414  0.5325 -0.7531
 8101TIP3   OH248497   0.373   5.769   1.656 -0.3241 -0.3364 -0.4049
 8101TIP3    H148498   0.456   5.734   1.688 -0.0164  0.8714  0.1779
 8101TIP3    H248499   0.386   5.864   1.655 -0.9808 -0.2379 -2.3516
 8102TIP3   OH248500   4.262   5.956   2.214 -0.1052 -0.6681  0.4716
 8102TIP3    H148501   4.323   5.976   2.143  0.5166 -1.6366  0.7154
 8102TIP3    H248502   4.314   5.965   2.294 -0.6332 -0.2095  0.7760
 8103TIP3   OH248503   3.845   0.306   0.963  0.1505 -0.0060  0.2361
 8103TIP3    H148504   3.756   0.328   0.935  1.1411  3.4277 -0.6586
 8103TIP3    H248505   3.885   0.266   0.886 -0.3162 -0.6982  0.3429
 8104TIP3   OH248506   0.374   0.940   1.392 -0.6644  0.2764  0.4308
 8104TIP3    H148507   0.465   0.947   1.363  0.2461 -0.6362  2.7326
 8104TIP3    H248508   0.335   1.025   1.372  0.4867  0.4521 -1.2123
 8105TIP3   OH248509   3.315   0.756   1.592 -0.0337 -0.0087 -0.2089
 8105TIP3    H148510   3.349   0.846   1.597  0.7368 -0.2983 -0.1294
 8105TIP3    H248511   3.384   0.707   1.547 -0.5306 -0.5250 -0.4128
 8106TIP3   OH248512   0.034   4.440   0.795 -0.1467  0.2672 -0.0338
 8106TIP3    H148513   0.108   4.418   0.852 -1.5292 -0.5486  1.5318
 8106TIP3    H248514  -0.003   4.355   0.770 -0.7158  0.6663 -0.5604
 8107TIP3   OH248515   6.773   2.123   2.124 -0.0739 -0.7251 -0.2205
 8107TIP3    H148516   6.839   2.191   2.114  1.4891 -1.8065  1.7964
 8107TIP3    H248517   6.819   2.042   2.101 -0.8895 -1.4200  0.5040
 8108TIP3   OH248518   1.173   6.028   2.428  0.0540  0.0657 -0.4167
 8108TIP3    H148519   1.204   5.969   2.496  0.1442  1.3547  0.6991
 8108TIP3    H248520   1.222   6.004   2.350  0.1791 -1.2268  0.0512
 8109TIP3   OH248521   6.062   2.622   1.134 -0.0734 -0.1842  0.2118
 8109TIP3    H148522   6.121   2.686   1.096 -0.6210  0.1740 -0.0529
 8109TIP3    H248523   6.012   2.670   1.199 -0.6268 -0.2863 -0.1271
 8110TIP3   OH248524   1.330   0.652   1.239 -0.0717 -0.0647 -0.3043
 8110TIP3    H148525   1.310   0.637   1.331 -0.8287 -0.2965 -0.5016
 8110TIP3    H248526   1.360   0.743   1.236  1.4215 -0.5042  0.3963
 8111TIP3   OH248527   0.953   5.548   1.570  0.0321 -0.3275  0.1417
 8111TIP3    H148528   0.908   5.474   1.611  0.9797 -1.2764 -0.4665
 8111TIP3    H248529   1.041   5.548   1.609  0.0860  0.4069  0.0446
 8112TIP3   OH248530   4.516   4.427   1.558 -0.4531  0.0912  0.7269
 8112TIP3    H148531   4.547   4.491   1.493  2.4563 -1.1783  0.6959
 8112TIP3    H248532   4.461   4.367   1.508  1.3706 -0.6038 -0.5865
 8113TIP3   OH248533   4.718   6.728   2.690 -0.1908  0.3315 -0.2002
 8113TIP3    H148534   4.775   6.738   2.614  0.4188  0.0329  0.2166
 8113TIP3    H248535   4.777   6.723   2.765 -0.8022  1.8245  0.4411
 8114TIP3   OH248536   0.254   1.560   2.250 -0.1763 -0.3548  0.0953
 8114TIP3    H148537   0.348   1.566   2.269  0.2348 -1.8813 -1.1951
 8114TIP3    H248538   0.240   1.468   2.228 -1.4221  0.3397 -2.4177
 8115TIP3   OH248539   1.321   3.846   1.748 -0.4852  0.2512  0.2882
 8115TIP3    H148540   1.279   3.929   1.727  1.0736  0.7466 -1.1685
 8115TIP3    H248541   1.415   3.865   1.743 -0.0850 -1.6753 -0.5657
 8116TIP3   OH248542   5.553   2.811   0.624 -0.1009  0.1380  0.2318
 8116TIP3    H148543   5.585   2.741   0.680  1.1546 -0.0169 -0.6386
 8116TIP3    H248544   5.462   2.825   0.652  0.2708 -0.4053  1.7966
 8117TIP3   OH248545   2.246   2.277   1.765  0.4916 -0.0193  0.2265
 8117TIP3    H148546   2.204   2.235   1.840 -0.0278  0.8929  0.4625
 8117TIP3    H248547   2.273   2.363   1.797  2.6442 -0.6012  0.0945
 8118TIP3   OH248548   5.825   3.299   2.671 -0.0408  0.1506 -0.2418
 8118TIP3    H148549   5.751   3.354   2.644 -0.9301 -1.0953 -0.4459
 8118TIP3    H248550   5.900   3.333   2.622 -0.4569  1.4715  0.0043
 8119TIP3   OH248551   2.370   2.094   2.544 -0.0776  0.3192  0.5269
 8119TIP3    H148552   2.426   2.157   2.497  1.7231 -0.7141  1.2378
 8119TIP3    H248553   2.385   2.011   2.499 -2.1998  0.2616 -0.1934
 8120TIP3   OH248554   4.493   3.189   0.679 -0.7895  0.2615 -0.1749
 8120TIP3    H148555   4.587   3.178   0.696 -0.8194 -1.3843 -0.9458
 8120TIP3    H248556   4.451   3.144   0.752 -1.0214  1.3172  0.3734
 8121TIP3   OH248557   4.492   3.937   3.044  0.4175  0.2107  0.0743
 8121TIP3    H148558   4.462   3.851   3.075 -0.3513  0.1396 -0.8474
 8121TIP3    H248559   4.450   3.999   3.103 -0.5617  0.0469 -0.4433
 8122TIP3   OH248560   6.275   4.920  11.352  0.4116  0.0660 -0.5354
 8122TIP3    H148561   6.221   4.848  11.319  1.1998 -1.3794  1.1855
 8122TIP3    H248562   6.214   4.975  11.402  0.4361 -1.5149  1.3351
 8123TIP3   OH248563   1.324   6.293   2.177  0.0987  0.1746 -0.2211
 8123TIP3    H148564   1.378   6.261   2.250  0.9017  1.5821 -0.1550
 8123TIP3    H248565   1.384   6.348   2.125 -0.8209  0.3261 -1.1562
 8124TIP3   OH248566   6.304   1.397   3.009  0.0805  0.9595 -0.1134
 8124TIP3    H148567   6.374   1.404   3.073  1.1581  1.9803 -1.3571
 8124TIP3    H248568   6.318   1.312   2.967 -0.5441  0.3523  0.8655
 8125TIP3   OH248569   2.927   6.625   4.194 -0.3988 -0.6096 -0.3126
 8125TIP3    H148570   2.845   6.603   4.239 -0.3116  0.9624  0.6981
 8125TIP3    H248571   2.904   6.699   4.138  0.4269  0.2251  0.4161
 8126TIP3   OH248572   1.979   6.714   4.010 -0.1332  0.2710  0.5691
 8126TIP3    H148573   2.068   6.749   4.011  0.3431 -0.5528 -2.4886
 8126TIP3    H248574   1.988   6.626   4.046  0.2269  0.2631  0.4631
 8127TIP3   OH248575   0.982   0.073   1.395 -0.4564  0.6362 -0.6228
 8127TIP3    H148576   1.019   0.147   1.345 -0.0468  0.1856 -1.0045
 8127TIP3    H248577   0.896   0.058   1.355 -0.5931  0.9796 -0.4645
 8128TIP3   OH248578   2.685   0.406   3.059 -0.3309 -0.6673 -0.1872
 8128TIP3    H148579   2.646   0.381   2.975  1.5597  1.4349 -1.8368
 8128TIP3    H248580   2.769   0.360   3.061  0.4836  0.7492 -0.4151
 8129TIP3   OH248581   6.671   2.190   0.506 -0.2445 -0.0699  0.3579
 8129TIP3    H148582   6.740   2.136   0.545  1.6166  0.5314 -1.8612
 8129TIP3    H248583   6.691   2.279   0.534 -0.1534  0.0947 -0.2152
 8130TIP3   OH248584   0.869   0.731   3.022 -0.6640 -0.6323  0.1948
 8130TIP3    H148585   0.946   0.682   2.993 -0.7092 -0.6057  0.0261
 8130TIP3    H248586   0.802   0.664   3.036 -1.0013 -0.5409 -0.9224
 8131TIP3   OH248587   3.266   2.082   2.114 -0.3901  0.3387 -0.1805
 8131TIP3    H148588   3.183   2.085   2.066 -1.2976  0.7264  1.3469
 8131TIP3    H248589   3.289   2.175   2.125  1.4135  0.2559 -2.4331
 8132TIP3   OH248590   6.697   1.873   1.987  0.0692  0.1824  0.7602
 8132TIP3    H148591   6.761   1.812   2.025 -0.6827 -1.1800 -0.0963
 8132TIP3    H248592   6.699   1.855   1.893 -1.0611  0.6273  0.6410
 8133TIP3   OH248593   6.496   5.187   0.967  0.2371  0.3778 -0.2458
 8133TIP3    H148594   6.427   5.175   1.031  0.4507 -2.6347 -0.4362
 8133TIP3    H248595   6.577   5.195   1.018  0.0128  1.9455 -0.0883
 8134TIP3   OH248596   3.219   1.563  10.145  0.1681  0.6550  0.0249
 8134TIP3    H148597   3.133   1.530  10.118  1.8837 -2.4925 -2.2903
 8134TIP3    H248598   3.234   1.522  10.231  0.3372 -0.9752 -0.7384
 8135TIP3   OH248599   4.634   6.154   1.026  0.3479  0.4942 -0.4247
 8135TIP3    H148600   4.689   6.177   1.101 -0.5083  2.2172 -0.2698
 8135TIP3    H248601   4.686   6.093   0.975  1.5384  0.4355  0.8101
 8136TIP3   OH248602   6.432   3.651   1.129  0.1622  0.0642 -0.2290
 8136TIP3    H148603   6.525   3.673   1.141  0.0589  0.4660 -0.1353
 8136TIP3    H248604   6.406   3.611   1.212  0.0262  0.7784  0.0847
 8137TIP3   OH248605   5.456   4.913   1.131  0.6197 -0.2730  0.4049
 8137TIP3    H148606   5.469   4.956   1.216 -0.9289  1.2058 -0.0554
 8137TIP3    H248607   5.510   4.965   1.071  1.5732 -1.2119  0.4122
 8138TIP3   OH248608   2.917   5.373   2.946  0.4306  0.4318 -0.1942
 8138TIP3    H148609   2.987   5.309   2.957  3.6700  3.8472  1.0397
 8138TIP3    H248610   2.876   5.380   3.033 -0.3980 -0.3772 -0.5028
 8139TIP3   OH248611   2.481   2.649   0.953  0.6271 -0.3604 -0.0697
 8139TIP3    H148612   2.478   2.569   1.006  1.1758 -0.9732 -0.9319
 8139TIP3    H248613   2.569   2.650   0.917  0.3370  0.1559 -0.7894
 8140TIP3   OH248614   2.998   4.460   2.357 -0.2990  0.4787 -0.1389
 8140TIP3    H148615   2.936   4.466   2.284  1.0656  1.7281 -1.2662
 8140TIP3    H248616   2.953   4.503   2.430 -0.6820  1.6423 -1.0216
 8141TIP3   OH248617   3.723   3.703   3.863  0.2354 -0.3193  0.0215
 8141TIP3    H148618   3.780   3.740   3.931 -0.7731  1.3852 -0.0145
 8141TIP3    H248619   3.783   3.656   3.805  1.6633  1.6161 -0.1418
 8142TIP3   OH248620   1.836   1.225   1.475  0.3854 -0.3869  0.5364
 8142TIP3    H148621   1.765   1.275   1.516  0.2478 -0.4678  0.3991
 8142TIP3    H248622   1.815   1.133   1.494 -0.3793 -0.5242 -0.7822
 8143TIP3   OH248623   1.803   2.888   1.251  0.1638  0.3786  0.3292
 8143TIP3    H148624   1.729   2.828   1.262 -0.4804  0.5071 -2.5969
 8143TIP3    H248625   1.794   2.950   1.324 -2.5196  0.2837  0.1882
 8144TIP3   OH248626   2.470   1.887   2.391  0.1604 -0.0945  0.1046
 8144TIP3    H148627   2.447   1.870   2.300 -0.3036 -1.3841  0.4445
 8144TIP3    H248628   2.450   1.805   2.437  2.0006 -0.0569  1.0728
 8145TIP3   OH248629   2.528   3.947   1.126 -0.2071 -0.4876 -0.1727
 8145TIP3    H148630   2.533   4.042   1.131 -0.3056 -0.5362  1.1185
 8145TIP3    H248631   2.437   3.928   1.104 -0.5930 -0.3195  1.2200
 8146TIP3   OH248632   1.366   1.638   2.555 -0.2529  0.1708 -0.0064
 8146TIP3    H148633   1.363   1.589   2.638  1.3390 -0.3266 -0.2055
 8146TIP3    H248634   1.444   1.694   2.563 -0.5568  0.7366 -0.8435
 8147TIP3   OH248635   2.696   0.329   1.961  0.2210 -0.3653 -0.4207
 8147TIP3    H148636   2.691   0.424   1.947 -0.6784 -0.6064 -1.9989
 8147TIP3    H248637   2.726   0.320   2.051 -0.8295  1.4358  0.1763
 8148TIP3   OH248638   4.513   4.555   1.838 -0.1017 -0.0280  0.1392
 8148TIP3    H148639   4.540   4.628   1.783  0.5455  1.3891  2.2554
 8148TIP3    H248640   4.534   4.477   1.785  1.3244  1.2181 -1.2489
 8149TIP3   OH248641   6.679   5.241   1.663 -0.0812 -0.3172  0.3250
 8149TIP3    H148642   6.733   5.183   1.609  1.1525  1.0776 -0.0093
 8149TIP3    H248643   6.689   5.327   1.623  0.5515  0.6966  2.5060
 8150TIP3   OH248644   6.246   3.860   2.188  0.0224 -0.0774 -0.3116
 8150TIP3    H148645   6.281   3.899   2.108  1.5787 -0.1462  0.2927
 8150TIP3    H248646   6.265   3.766   2.179 -2.7883 -0.6454 -1.3073
 8151TIP3   OH248647   6.631   0.250   3.986  0.3258  0.0364  0.3405
 8151TIP3    H148648   6.599   0.300   3.912  0.8229 -0.5269 -0.2707
 8151TIP3    H248649   6.553   0.210   4.024  0.3259 -1.9895 -1.6241
 8152TIP3   OH248650   5.934   3.460   3.329  0.3279  0.0406 -0.4819
 8152TIP3    H148651   5.992   3.505   3.266 -0.6424  0.2725 -1.2334
 8152TIP3    H248652   5.975   3.476   3.414  1.2236  0.4269 -0.9652
 8153TIP3   OH248653   5.115   5.375   2.624  0.0399 -0.2904  0.3000
 8153TIP3    H148654   5.168   5.453   2.610 -0.1411 -0.3426 -0.7685
 8153TIP3    H248655   5.025   5.407   2.624 -0.0763 -0.5682 -0.8479
 8154TIP3   OH248656   4.298   0.189   3.568 -0.2661  0.2505 -0.2526
 8154TIP3    H148657   4.342   0.126   3.625 -0.7907 -1.0502 -1.2211
 8154TIP3    H248658   4.286   0.267   3.622  2.1720  0.2632  0.3955
 8155TIP3   OH248659   2.931   6.124   4.946 -0.0647 -0.1555  0.4221
 8155TIP3    H148660   3.005   6.183   4.963  1.0339  0.0631 -3.9559
 8155TIP3    H248661   2.967   6.036   4.961  1.3433 -0.0720 -1.9600
 8156TIP3   OH248662   4.657   4.929   1.974  0.0466 -0.3703 -0.2357
 8156TIP3    H148663   4.721   4.864   1.945  0.2588 -0.9598  1.4236
 8156TIP3    H248664   4.572   4.888   1.959  0.1591 -0.7218  0.0531
 8157TIP3   OH248665   0.073   6.214   3.490 -0.0645  0.4128 -0.1934
 8157TIP3    H148666   0.164   6.241   3.498  0.0059 -0.1130  0.9041
 8157TIP3    H248667   0.077   6.119   3.475 -0.4609  0.1367  1.3283
 8158TIP3   OH248668   6.754   5.107   3.287 -0.0731 -0.0581  0.4585
 8158TIP3    H148669   6.708   5.038   3.334  0.5679  0.6429  2.2177
 8158TIP3    H248670   6.843   5.073   3.276  0.1605  0.3448  1.0526
 8159TIP3   OH248671   4.299   5.354   3.257  0.1449 -0.3747  0.3702
 8159TIP3    H148672   4.205   5.370   3.268  0.5284  1.6136  1.2599
 8159TIP3    H248673   4.318   5.283   3.318 -0.9843 -1.7281 -0.7951
 8160TIP3   OH248674   3.289   4.303   0.740 -0.6102 -0.2918  0.4373
 8160TIP3    H148675   3.212   4.333   0.692 -1.7168 -0.8673  1.7409
 8160TIP3    H248676   3.352   4.374   0.733 -1.7448  0.7407  0.3584
 8161TIP3   OH248677   2.170   2.618   2.866  0.0112  0.0983  0.4917
 8161TIP3    H148678   2.170   2.529   2.833  0.0553 -0.2602  1.4408
 8161TIP3    H248679   2.256   2.629   2.906  0.2840  0.8177 -0.2420
 8162TIP3   OH248680   2.637   1.136   2.618 -0.2369 -0.1828 -0.1068
 8162TIP3    H148681   2.558   1.086   2.641 -0.3128  1.1075  2.9120
 8162TIP3    H248682   2.605   1.224   2.599  0.3020 -0.2010 -1.1700
 8163TIP3   OH248683   6.042   1.226   3.778 -0.0680 -0.2134  0.0389
 8163TIP3    H148684   6.021   1.140   3.742 -1.3988  0.5240 -1.0279
 8163TIP3    H248685   5.962   1.253   3.824 -0.2522  1.1383 -1.0341
 8164TIP3   OH248686   1.953   5.695   1.830 -0.2183  0.1667  0.1208
 8164TIP3    H148687   1.948   5.790   1.835 -0.3187  0.3188 -2.0058
 8164TIP3    H248688   1.895   5.664   1.899 -3.4891  1.7246 -1.6976
 8165TIP3   OH248689   5.695   5.589   2.606 -0.0718 -0.0260  0.7196
 8165TIP3    H148690   5.727   5.538   2.680  0.9589 -1.8890 -0.9278
 8165TIP3    H248691   5.763   5.655   2.591 -0.8825  1.1954  2.1570
 8166TIP3   OH248692   6.064   3.448   2.923 -0.0682 -0.0700  0.3407
 8166TIP3    H148693   6.100   3.505   2.855 -0.7690 -0.8781 -0.7359
 8166TIP3    H248694   6.142   3.413   2.967  0.4110  0.2988 -0.1918
 8167TIP3   OH248695   5.011   2.949   3.237  0.3436  0.0609  0.0149
 8167TIP3    H148696   5.038   2.879   3.178  2.1862  0.7606 -0.0434
 8167TIP3    H248697   5.088   3.007   3.242  0.1304  0.2351  2.8039
 8168TIP3   OH248698   3.912   0.107   1.626 -0.4968  0.0397  0.1537
 8168TIP3    H148699   3.973   0.070   1.689 -1.7149 -0.9365  0.7894
 8168TIP3    H248700   3.861   0.032   1.595  0.5696  0.3395 -2.6072
 8169TIP3   OH248701   2.890   5.578   1.852  0.2159  0.3561 -0.1164
 8169TIP3    H148702   2.902   5.627   1.770  0.0550 -0.2698 -0.5174
 8169TIP3    H248703   2.912   5.641   1.920  2.8883  0.1559 -0.6920
 8170TIP3   OH248704   4.211   2.752   3.093  0.5173  0.0680 -0.2034
 8170TIP3    H148705   4.254   2.792   3.018  0.3472  2.3524  0.8178
 8170TIP3    H248706   4.280   2.745   3.160  0.4444 -1.0487 -0.2208
 8171TIP3   OH248707   0.295   3.713   2.775  0.2804 -0.1052 -0.5554
 8171TIP3    H148708   0.254   3.702   2.860  0.2320  2.7742 -0.0991
 8171TIP3    H248709   0.326   3.626   2.751 -3.3890 -1.8692  0.4348
 8172TIP3   OH248710   1.294   2.425   1.659  0.0749  0.0333 -0.2188
 8172TIP3    H148711   1.217   2.371   1.677 -1.0403  1.5825 -0.0560
 8172TIP3    H248712   1.298   2.430   1.563 -1.5436  1.8641 -0.2721
 8173TIP3   OH248713   3.595   0.572   2.255 -0.1109  0.0759  0.3581
 8173TIP3    H148714   3.539   0.513   2.204  1.7075 -2.4975  1.1726
 8173TIP3    H248715   3.536   0.612   2.319 -1.3087 -1.4159  0.2389
 8174TIP3   OH248716   5.456   3.461   1.197 -0.3463  0.0590 -0.0365
 8174TIP3    H148717   5.524   3.399   1.222 -0.5229 -0.0679  0.1313
 8174TIP3    H248718   5.442   3.447   1.104  0.5707  0.7771 -0.2926
 8175TIP3   OH248719   2.282   5.950   1.208 -0.4311 -0.0031 -0.0714
 8175TIP3    H148720   2.336   5.999   1.146 -0.2697 -0.9656 -0.7290
 8175TIP3    H248721   2.298   5.858   1.186 -1.3329 -0.3383  0.5877
 8176TIP3   OH248722   0.811   6.336   2.053  0.0049  0.0181  0.1758
 8176TIP3    H148723   0.871   6.284   2.001  1.9398  0.9157  1.3883
 8176TIP3    H248724   0.862   6.413   2.079 -2.2647  1.7782 -0.2893
 8177TIP3   OH248725   2.000   1.770   1.501 -0.0263 -0.4889  0.0707
 8177TIP3    H148726   2.086   1.767   1.459  0.4877  1.7187  0.8345
 8177TIP3    H248727   1.941   1.727   1.439  1.2636 -0.1335 -1.4530
 8178TIP3   OH248728   2.000   5.122   0.903 -0.2318 -0.1732 -0.2055
 8178TIP3    H148729   1.917   5.163   0.878  0.5310  0.5252 -1.7520
 8178TIP3    H248730   2.031   5.175   0.977 -1.2200 -0.5471  0.5046
 8179TIP3   OH248731   2.423   1.807   2.708  0.2793  0.4591  0.7729
 8179TIP3    H148732   2.380   1.722   2.695  0.9913 -0.1373  2.1192
 8179TIP3    H248733   2.382   1.843   2.787  0.6345  0.9370  0.7418
 8180TIP3   OH248734   1.175   0.289   1.565 -0.1147  0.1274  0.1409
 8180TIP3    H148735   1.180   0.225   1.495  0.6883 -0.6471  0.8797
 8180TIP3    H248736   1.117   0.357   1.532 -1.6982 -1.3979 -0.3197
 8181TIP3   OH248737   6.334   1.810   2.618 -0.3529 -0.4892 -0.2984
 8181TIP3    H148738   6.347   1.761   2.699  0.4425 -1.8908 -1.2428
 8181TIP3    H248739   6.414   1.795   2.567  0.5304  2.8511 -0.1308
 8182TIP3   OH248740   4.500   2.341   3.716 -0.0235 -0.4324 -0.3455
 8182TIP3    H148741   4.591   2.316   3.728 -0.2765 -0.8015  0.9529
 8182TIP3    H248742   4.451   2.258   3.722 -0.4686 -0.1987 -0.6862
 8183TIP3   OH248743   1.717   5.751   4.209 -0.1676 -0.5881  0.8447
 8183TIP3    H148744   1.664   5.746   4.288 -1.2687  1.0300  0.2549
 8183TIP3    H248745   1.732   5.844   4.195  0.2656 -0.8530 -0.6893
 8184TIP3   OH248746   3.452   5.717   2.818 -0.0340 -0.3017 -0.1596
 8184TIP3    H148747   3.482   5.694   2.906  3.6812 -1.4310 -1.5362
 8184TIP3    H248748   3.374   5.663   2.805 -0.4450 -0.4053  2.2434
 8185TIP3   OH248749   1.542   0.839   3.902  0.0822 -0.0316 -0.1412
 8185TIP3    H148750   1.494   0.921   3.909 -1.0208 -0.6489 -0.2122
 8185TIP3    H248751   1.474   0.773   3.884  0.4788 -1.4551  2.9089
 8186TIP3   OH248752   2.566   5.982   2.879  0.0804 -0.6871  0.0736
 8186TIP3    H148753   2.506   6.006   2.949  0.5536  1.0071 -0.0654
 8186TIP3    H248754   2.649   5.963   2.923  0.1357 -0.4988  0.0516
 8187TIP3   OH248755   3.129   0.653   1.354  0.5298 -0.1662 -0.1576
 8187TIP3    H148756   3.180   0.687   1.427 -1.5706  0.9343  0.8834
 8187TIP3    H248757   3.129   0.558   1.368  1.9205 -0.1611  0.0189
 8188TIP3   OH248758   0.105   3.737   2.334  0.0921 -0.1536 -0.5510
 8188TIP3    H148759   0.168   3.692   2.279  1.7343  1.0608  0.2488
 8188TIP3    H248760   0.035   3.763   2.274  2.0000  1.4682 -2.2272
 8189TIP3   OH248761   5.549   6.618   1.978  0.2390  0.1614  0.5211
 8189TIP3    H148762   5.614   6.689   1.982  0.0316  0.3704  0.2239
 8189TIP3    H248763   5.599   6.542   1.949  0.6258 -0.0172  1.6066
 8190TIP3   OH248764   2.821   1.691   2.822  0.1300  0.1458 -0.0457
 8190TIP3    H148765   2.794   1.746   2.896  1.2877  1.5710 -0.6389
 8190TIP3    H248766   2.767   1.721   2.749  0.3632  0.0862 -0.2428
 8191TIP3   OH248767   2.608   3.277   3.579  0.7034 -0.8910 -0.7946
 8191TIP3    H148768   2.562   3.246   3.657  0.4182  0.9275 -0.1912
 8191TIP3    H248769   2.677   3.212   3.565 -1.7661 -3.5697 -1.5928
 8192TIP3   OH248770   2.807   6.262   3.244  0.4441 -0.5010  0.5181
 8192TIP3    H148771   2.717   6.249   3.274  0.7119 -2.6490  0.6059
 8192TIP3    H248772   2.859   6.206   3.302  1.6666 -0.2414 -0.3033
 8193TIP3   OH248773   4.116   0.318   2.430 -0.0476 -0.1319  0.4040
 8193TIP3    H148774   4.077   0.285   2.511  1.3155  0.7496  1.4500
 8193TIP3    H248775   4.061   0.393   2.406 -1.8277 -1.7256 -0.7887
 8194TIP3   OH248776   6.538   1.960   2.262 -0.0871 -0.3959 -0.0054
 8194TIP3    H148777   6.523   1.877   2.215  1.3186 -0.7448  0.1170
 8194TIP3    H248778   6.596   2.010   2.204  0.4412 -0.2072  0.6696
 8195TIP3   OH248779   0.470   0.763   1.080 -0.1576 -0.0083  0.0513
 8195TIP3    H148780   0.488   0.740   0.989 -0.8368 -0.8651  0.1253
 8195TIP3    H248781   0.521   0.843   1.095 -0.0522  0.1500 -1.0800
 8196TIP3   OH248782   0.544   1.790   3.218 -0.6925 -0.1025  0.0346
 8196TIP3    H148783   0.572   1.779   3.127  0.2277 -0.1501  0.3136
 8196TIP3    H248784   0.450   1.810   3.212 -0.6060  0.0659 -0.9297
 8197TIP3   OH248785   0.264   1.256   2.168 -0.1231  0.1644 -0.1824
 8197TIP3    H148786   0.257   1.167   2.132  0.4317 -0.1194  0.3875
 8197TIP3    H248787   0.337   1.250   2.230 -0.4526  0.8882  0.2729
 8198TIP3   OH248788   3.578   4.929   3.375 -0.1818  0.1453 -0.0383
 8198TIP3    H148789   3.664   4.969   3.365 -0.4185  0.3111 -1.6409
 8198TIP3    H248790   3.523   5.000   3.411  0.0502  0.4175 -0.2163
 8199TIP3   OH248791   1.496   5.575   2.221  0.1974 -0.5091 -0.1605
 8199TIP3    H148792   1.499   5.601   2.129 -2.1040 -1.0089 -0.4451
 8199TIP3    H248793   1.508   5.480   2.219 -0.5420 -0.6135 -0.0393
 8200TIP3   OH248794   5.821   3.814   2.415  0.0477 -0.0012 -0.2121
 8200TIP3    H148795   5.760   3.793   2.486  2.0633 -0.6783  1.4178
 8200TIP3    H248796   5.774   3.877   2.361 -2.0269 -0.3889  1.0419
 8201TIP3   OH248797   6.581   3.202   2.217 -0.2095  0.0713  0.4046
 8201TIP3    H148798   6.542   3.172   2.135 -0.9528  0.9627  0.4193
 8201TIP3    H248799   6.550   3.139   2.282 -1.5465  0.6800  0.3893
 8202TIP3   OH248800   5.956   2.385   2.157 -0.5540 -0.1871 -0.1865
 8202TIP3    H148801   5.898   2.457   2.132 -0.6782 -0.3218 -0.2816
 8202TIP3    H248802   6.029   2.428   2.202  0.1379  0.1625 -1.5681
 8203TIP3   OH248803   4.443   2.535   3.522  0.1539 -0.3409  0.0881
 8203TIP3    H148804   4.406   2.611   3.566  1.5427 -0.3000  1.2374
 8203TIP3    H248805   4.434   2.464   3.586 -0.5982 -1.0275 -0.7486
 8204TIP3   OH248806   0.225   2.553   2.639  0.1179 -0.3354 -0.1620
 8204TIP3    H148807   0.214   2.481   2.701  0.9307  0.2288  0.6650
 8204TIP3    H248808   0.137   2.572   2.608 -0.4486 -0.0512  1.5084
 8205TIP3   OH248809   2.266   6.425   3.042 -0.3286  0.6581 -0.1547
 8205TIP3    H148810   2.358   6.410   3.022 -0.1459  0.3924  0.8323
 8205TIP3    H248811   2.226   6.443   2.957  0.5346  0.2770 -0.6593
 8206TIP3   OH248812   0.005   1.539   2.557  0.2759 -0.3008 -0.4623
 8206TIP3    H148813   0.091   1.502   2.536 -0.5829 -1.3533 -2.4073
 8206TIP3    H248814   0.004   1.545   2.652  2.3202 -0.6852 -0.3682
 8207TIP3   OH248815   1.779   2.247   1.900  0.0836  0.0763  0.3624
 8207TIP3    H148816   1.750   2.188   1.829 -0.9053 -0.3901  1.1386
 8207TIP3    H248817   1.701   2.297   1.923  0.5638  0.6728  0.7060
 8208TIP3   OH248818   4.220   5.173   3.031  0.4399  0.4284 -0.0151
 8208TIP3    H148819   4.136   5.201   3.066  1.0561  2.9177 -0.3237
 8208TIP3    H248820   4.285   5.227   3.078  1.5512  1.1805 -2.2534
 8209TIP3   OH248821   1.589   5.733   4.459 -0.5386 -0.0044 -1.0715
 8209TIP3    H148822   1.522   5.680   4.502 -0.1211 -0.6334 -1.1695
 8209TIP3    H248823   1.672   5.699   4.493 -0.2529  0.4081 -1.3415
 8210TIP3   OH248824   6.731   3.728   2.930  0.1392  0.0094 -0.4387
 8210TIP3    H148825   6.768   3.783   2.999  0.0394 -2.2230  1.5039
 8210TIP3    H248826   6.676   3.665   2.976 -1.2133 -0.6086 -2.7336
 8211TIP3   OH248827   0.296   6.636   2.503  0.0737  0.4636  0.3267
 8211TIP3    H148828   0.305   6.695   2.428 -1.7978 -0.0214 -0.3304
 8211TIP3    H248829   0.244   6.685   2.566 -0.1500  0.0856  0.4369
 8212TIP3   OH248830   3.546   6.260   1.029  0.1627  0.1394  0.4176
 8212TIP3    H148831   3.544   6.222   1.117 -0.0768 -0.7753  0.0241
 8212TIP3    H248832   3.585   6.193   0.974 -0.7555  0.2453 -0.3913
 8213TIP3   OH248833   6.413   2.162   0.686  0.3362 -0.3961 -0.0961
 8213TIP3    H148834   6.406   2.142   0.593 -1.6553  0.5382 -0.2051
 8213TIP3    H248835   6.475   2.098   0.720  0.3230 -1.4098 -1.8692
 8214TIP3   OH248836   0.390   4.802   0.731 -0.3418 -0.7186  0.3590
 8214TIP3    H148837   0.410   4.791   0.823  1.3606 -0.1469  0.0875
 8214TIP3    H248838   0.427   4.887   0.708  0.3238 -1.3753 -1.1242
 8215TIP3   OH248839   1.247   6.070   2.869 -0.1069 -0.2407  0.5517
 8215TIP3    H148840   1.236   5.998   2.807  1.3001 -0.6279  0.7096
 8215TIP3    H248841   1.159   6.084   2.905 -0.5832 -1.2629 -0.1444
 8216TIP3   OH248842   0.959   3.250   3.824 -0.0765  0.3758 -0.4382
 8216TIP3    H148843   0.902   3.200   3.883 -0.2281  0.1618 -0.7683
 8216TIP3    H248844   1.045   3.208   3.833 -0.1733  0.1410 -0.6152
 8217TIP3   OH248845   6.013   5.118   2.681 -0.1009  0.1552 -0.0553
 8217TIP3    H148846   6.078   5.100   2.749 -0.3356 -0.0598  0.1159
 8217TIP3    H248847   6.024   5.047   2.618  1.5534  1.4686 -1.3574
 8218TIP3   OH248848   3.171   0.325   3.067 -0.0946  0.5168 -0.0972
 8218TIP3    H148849   3.089   0.326   3.019  1.0551 -0.8872 -2.2364
 8218TIP3    H248850   3.230   0.380   3.015  1.1235 -0.8291 -0.1884
 8219TIP3   OH248851   1.582   1.037   2.011  0.2285 -0.3688 -0.4002
 8219TIP3    H148852   1.610   1.120   1.973 -1.1890 -0.3474 -1.5075
 8219TIP3    H248853   1.589   0.975   1.938 -1.7865 -0.4987 -0.5591
 8220TIP3   OH248854   0.285   4.764   2.266 -0.2056 -0.0971  0.3534
 8220TIP3    H148855   0.374   4.786   2.237 -0.0603  0.5390  1.2594
 8220TIP3    H248856   0.236   4.846   2.258 -0.0469  0.2369  2.2937
 8221TIP3   OH248857   0.804   0.310   0.598 -0.4749 -0.3253 -0.0055
 8221TIP3    H148858   0.799   0.222   0.560  1.3595 -0.4494 -0.0754
 8221TIP3    H248859   0.898   0.325   0.610 -0.6931  1.9070 -0.6386
 8222TIP3   OH248860   6.447   1.912   0.998  0.1670 -0.1498  0.0920
 8222TIP3    H148861   6.407   1.936   0.914  0.9966 -0.7546 -0.4996
 8222TIP3    H248862   6.381   1.934   1.063 -0.4953  0.3428 -0.7200
 8223TIP3   OH248863   2.250   3.499   1.566  0.1004  0.1349 -0.5619
 8223TIP3    H148864   2.168   3.504   1.516  0.9424 -0.7047 -2.1027
 8223TIP3    H248865   2.310   3.558   1.519  0.4187  0.7077  0.5258
 8224TIP3   OH248866   0.548   2.227   3.150  0.1830  0.0909 -0.1136
 8224TIP3    H148867   0.630   2.195   3.112  0.8768  0.4001  1.0672
 8224TIP3    H248868   0.541   2.181   3.234 -0.2475  0.9531  0.3322
 8225TIP3   OH248869   2.742   0.512   4.584  0.0845  0.4549  0.6714
 8225TIP3    H148870   2.792   0.492   4.663  0.3905  0.4053  0.4656
 8225TIP3    H248871   2.694   0.432   4.565 -0.4512  0.6596  1.1474
 8226TIP3   OH248872   4.179   0.840   1.906 -0.1683  0.3376 -0.7062
 8226TIP3    H148873   4.130   0.768   1.867 -1.5992  0.7477  0.2491
 8226TIP3    H248874   4.264   0.839   1.861 -0.3396 -1.5981 -1.0695
 8227TIP3   OH248875   0.905   5.261   2.328  0.4317  0.1152  0.3605
 8227TIP3    H148876   0.842   5.282   2.397 -1.3157  1.8374 -1.6231
 8227TIP3    H248877   0.935   5.346   2.296  2.1490 -0.6616 -0.2030
 8228TIP3   OH248878   0.467   0.535   1.429 -0.8446  0.2426 -0.1242
 8228TIP3    H148879   0.374   0.557   1.435 -1.2954 -1.5047 -0.3490
 8228TIP3    H248880   0.490   0.500   1.515 -0.6115 -0.1546 -0.3458
 8229TIP3   OH248881   0.817   3.515   3.249 -0.1085 -0.7229  0.5081
 8229TIP3    H148882   0.766   3.554   3.320 -0.1931 -1.1560  0.6833
 8229TIP3    H248883   0.899   3.487   3.290 -0.0402 -0.7187  0.3767
 8230TIP3   OH248884   3.104   4.276   2.584  0.2584 -0.5052  0.5642
 8230TIP3    H148885   3.025   4.280   2.530 -0.2965 -2.8461  1.0606
 8230TIP3    H248886   3.077   4.225   2.661  1.8188  0.1326  1.5859
 8231TIP3   OH248887   0.053   3.126   0.933 -0.5378 -0.0773 -0.0987
 8231TIP3    H148888   0.029   3.158   1.020  1.1277 -0.4508  0.5469
 8231TIP3    H248889   0.010   3.040   0.927 -1.6709  0.4775 -0.1721
 8232TIP3   OH248890   3.572   4.857   0.992 -0.5920 -0.5005  0.1817
 8232TIP3    H148891   3.590   4.949   0.971 -1.5006  0.3212  2.6776
 8232TIP3    H248892   3.630   4.837   1.066  0.3081 -2.2873 -0.9327
 8233TIP3   OH248893   2.126   3.859   1.911  0.1682  0.1121 -0.0100
 8233TIP3    H148894   2.186   3.814   1.851 -0.2433 -0.6409  0.1194
 8233TIP3    H248895   2.050   3.882   1.857 -1.0191 -2.1922  0.5306
 8234TIP3   OH248896   4.175   2.426   3.335  0.7319 -0.7841  0.0255
 8234TIP3    H148897   4.162   2.331   3.332 -0.7898 -0.6896  1.6490
 8234TIP3    H248898   4.190   2.444   3.428 -0.4559  0.7029 -0.0386
 8235TIP3   OH248899   4.502   1.976   1.339  0.6436  0.0251 -0.2721
 8235TIP3    H148900   4.519   1.959   1.432  2.6007  0.7069 -0.4538
 8235TIP3    H248901   4.453   2.058   1.339 -0.9643 -0.8924  0.2008
 8236TIP3   OH248902   2.416   3.203   3.031 -0.5480 -0.1819  0.2672
 8236TIP3    H148903   2.484   3.158   2.980 -0.2761 -0.5318  0.9223
 8236TIP3    H248904   2.465   3.263   3.088 -0.9878  2.5111 -2.0131
 8237TIP3   OH248905   1.814   2.986   2.059 -0.0561  0.1395 -0.2010
 8237TIP3    H148906   1.841   3.029   2.140  1.2205 -0.9817 -0.0065
 8237TIP3    H248907   1.818   2.892   2.079  0.6171 -0.1707 -1.6536
 8238TIP3   OH248908   6.035   0.769   2.382  0.5121 -0.5869 -0.5147
 8238TIP3    H148909   5.966   0.738   2.324  1.2056  0.2545 -1.8494
 8238TIP3    H248910   6.029   0.864   2.378  1.6385 -0.4996 -0.5496
 8239TIP3   OH248911   1.424   3.833   2.913  0.0966 -0.5415  0.4145
 8239TIP3    H148912   1.344   3.799   2.953 -1.0262  0.6965 -0.7068
 8239TIP3    H248913   1.407   3.831   2.819  0.6714  1.3798  0.2306
 8240TIP3   OH248914   2.256   2.441   2.263  0.2091  0.1921 -0.2330
 8240TIP3    H148915   2.171   2.470   2.228 -0.1159 -0.8538 -0.3464
 8240TIP3    H248916   2.320   2.471   2.199  0.0872  2.2011  0.5312
 8241TIP3   OH248917   4.141   2.503   1.374 -0.1777  0.0211  0.3889
 8241TIP3    H148918   4.220   2.480   1.324 -0.6081 -0.0743 -0.2571
 8241TIP3    H248919   4.133   2.598   1.365 -0.3601 -0.0193  0.1150
 8242TIP3   OH248920   0.566   6.229   2.705  0.3676  0.0385 -0.2400
 8242TIP3    H148921   0.574   6.303   2.766  1.4550 -0.7874  0.6555
 8242TIP3    H248922   0.523   6.266   2.628 -0.3856  1.2825  0.7378
 8243TIP3   OH248923   2.626   2.890   3.050 -0.0432 -0.6011 -0.1642
 8243TIP3    H148924   2.647   2.960   3.112 -0.7908  0.4004 -1.0228
 8243TIP3    H248925   2.693   2.897   2.982 -0.7115 -0.0697 -0.7695
 8244TIP3   OH248926   5.363   5.761   2.988 -0.2739  0.1957  0.0649
 8244TIP3    H148927   5.443   5.773   3.039 -1.1781 -0.5186  1.7179
 8244TIP3    H248928   5.364   5.668   2.964 -0.1422  0.4009 -0.7629
 8245TIP3   OH248929   4.490   4.187   1.860  0.1989  0.4864  0.3145
 8245TIP3    H148930   4.423   4.232   1.808  1.2376  0.1766 -1.3744
 8245TIP3    H248931   4.441   4.143   1.929 -1.5388 -0.8485 -1.6484
 8246TIP3   OH248932   3.932   4.983   1.980  0.3186  0.0463  0.2197
 8246TIP3    H148933   3.843   4.965   1.951 -0.1539  1.2063  0.8626
 8246TIP3    H248934   3.955   5.065   1.937  1.0974 -0.2616  0.0368
 8247TIP3   OH248935   0.350   0.528   2.618  0.0098 -0.1471  0.5932
 8247TIP3    H148936   0.255   0.538   2.626 -0.0452 -0.2030  0.0319
 8247TIP3    H248937   0.381   0.522   2.709 -0.7721 -2.6022  0.7764
 8248TIP3   OH248938   0.039   4.807   1.832  0.2040 -0.0698 -0.1760
 8248TIP3    H148939   0.000   4.877   1.886 -2.3179 -1.1340 -0.4746
 8248TIP3    H248940   0.049   4.734   1.893 -1.5471 -0.8913 -0.8069
 8249TIP3   OH248941   3.904   4.012   2.001  0.0480  0.1421  0.1521
 8249TIP3    H148942   3.871   4.094   2.038  0.4818  0.6450 -0.5555
 8249TIP3    H248943   3.997   4.027   1.987  0.4325 -0.9678  1.3140
 8250TIP3   OH248944   1.290   5.386   3.587 -0.6131 -0.4797 -0.2182
 8250TIP3    H148945   1.239   5.445   3.642 -1.1620  0.0518 -1.2523
 8250TIP3    H248946   1.224   5.342   3.533  0.0548  1.5653 -2.8998
 8251TIP3   OH248947   4.570   4.913   4.168  0.1059  0.1536 -0.2332
 8251TIP3    H148948   4.535   4.930   4.255  0.2237  2.2054 -0.5442
 8251TIP3    H248949   4.514   4.963   4.109  0.0130 -1.2165 -1.3771
 8252TIP3   OH248950   3.516   3.387   1.766 -0.2580  0.1931 -0.4966
 8252TIP3    H148951   3.531   3.481   1.775 -2.3832  0.4272  1.3636
 8252TIP3    H248952   3.421   3.378   1.761 -0.0684 -1.8261 -1.3794
 8253TIP3   OH248953   2.649   6.216   0.877  0.2980 -0.4121  0.3641
 8253TIP3    H148954   2.695   6.140   0.912  2.3704 -0.8548 -2.9447
 8253TIP3    H248955   2.684   6.290   0.927  3.2856 -0.9645 -0.7291
 8254TIP3   OH248956   0.677   6.621   2.186  0.2529 -0.1961  0.1604
 8254TIP3    H148957   0.743   6.615   2.116 -0.2449 -1.2919 -0.2321
 8254TIP3    H248958   0.647   6.712   2.183  1.6395  0.2968  0.2635
 8255TIP3   OH248959   5.108   4.915   3.318  0.0920 -0.3966 -0.2988
 8255TIP3    H148960   5.073   4.840   3.367  2.6013 -0.7398  1.1196
 8255TIP3    H248961   5.062   4.990   3.356  1.2927 -0.7549  2.0565
 8256TIP3   OH248962   1.378   1.090   1.062  0.2333 -0.0276 -0.8685
 8256TIP3    H148963   1.403   1.085   0.970  0.4959  0.9527 -0.8579
 8256TIP3    H248964   1.317   1.163   1.067 -0.0016 -0.2571 -0.3113
 8257TIP3   OH248965   2.551   5.854   3.136  0.0010 -0.2777 -0.5745
 8257TIP3    H148966   2.517   5.764   3.138  0.2640 -0.4327 -1.8173
 8257TIP3    H248967   2.645   5.843   3.148 -0.2432  0.1142  2.4184
 8258TIP3   OH248968   2.909   5.880   3.676  0.0051  0.1221  0.0161
 8258TIP3    H148969   2.834   5.865   3.619  0.6253 -0.2369 -0.7210
 8258TIP3    H248970   2.919   5.799   3.726  0.0474  0.0757 -0.0663
 8259TIP3   OH248971   2.320   0.190   2.754 -0.4657  0.4905  0.0056
 8259TIP3    H148972   2.385   0.165   2.820  0.2456  0.2706 -0.7603
 8259TIP3    H248973   2.241   0.142   2.779 -0.7337  1.6844  1.6421
 8260TIP3   OH248974   0.351   5.955   2.186  0.4499 -0.1931 -0.3200
 8260TIP3    H148975   0.368   5.892   2.117 -1.6153 -0.3399 -0.7790
 8260TIP3    H248976   0.401   5.923   2.261  2.0973 -0.4596 -1.4764
 8261TIP3   OH248977   2.600   0.943   2.394  0.2980  0.0687  0.4440
 8261TIP3    H148978   2.552   1.026   2.389  1.0955  0.4435 -2.0037
 8261TIP3    H248979   2.545   0.888   2.451 -0.1777  2.2631  2.2469
 8262TIP3   OH248980   5.532   3.852   1.814 -0.2534  0.0818 -0.5067
 8262TIP3    H148981   5.614   3.894   1.788 -0.1526 -0.0375 -0.3881
 8262TIP3    H248982   5.548   3.823   1.904 -1.2848  2.2638  0.4437
 8263TIP3   OH248983   5.120   2.586   0.585 -0.3645 -0.1957 -0.1471
 8263TIP3    H148984   5.183   2.526   0.546 -0.3552  0.1287 -0.6326
 8263TIP3    H248985   5.039   2.535   0.592 -0.3323 -0.2883 -0.4704
 8264TIP3   OH248986   2.574   1.982   3.428  1.2178  0.0472 -0.3132
 8264TIP3    H148987   2.536   1.980   3.340  0.6515 -1.6916 -0.0652
 8264TIP3    H248988   2.588   1.890   3.450  3.6543  0.5449  0.4610
 8265TIP3   OH248989   3.634   1.280   2.488 -0.0725 -0.0390  0.2704
 8265TIP3    H148990   3.700   1.346   2.468  0.8092 -0.8741  0.3413
 8265TIP3    H248991   3.646   1.261   2.581 -1.4858  0.9425  0.6811
 8266TIP3   OH248992   6.260   1.640   4.024  0.3595  0.1581  0.3955
 8266TIP3    H148993   6.339   1.666   3.975  0.9251  0.5973  1.5148
 8266TIP3    H248994   6.254   1.545   4.010  0.6815  0.2221 -0.2592
 8267TIP3   OH248995   6.390   3.343   3.599  0.0582 -0.5963  0.4631
 8267TIP3    H148996   6.436   3.270   3.641  0.2462 -0.4542  0.5082
 8267TIP3    H248997   6.298   3.317   3.599  0.0281 -0.5048  1.1513
 8268TIP3   OH248998   6.348   4.920   3.093  0.0203 -0.0376 -0.6736
 8268TIP3    H148999   6.326   4.974   3.169  1.0393  1.6679 -1.5462
 8268TIP3    H249000   6.443   4.909   3.098 -0.2585 -3.3911  0.4743
 8269TIP3   OH249001   5.992   1.088   0.932  0.3152 -1.0171 -0.2847
 8269TIP3    H149002   6.044   1.009   0.919  0.9737 -0.7335  0.5544
 8269TIP3    H249003   6.055   1.160   0.925 -0.1885 -0.5865 -0.5279
 8270TIP3   OH249004   5.004   1.263   3.753 -0.5145 -0.2669 -0.4901
 8270TIP3    H149005   4.948   1.211   3.810 -1.7646  2.3065  0.8105
 8270TIP3    H249006   5.061   1.311   3.813 -0.6637  1.2113 -1.4660
 8271TIP3   OH249007   4.034   1.594   1.699 -0.6031  0.5774 -1.0194
 8271TIP3    H149008   4.070   1.554   1.778 -2.1104  2.0928  0.5404
 8271TIP3    H249009   4.110   1.608   1.643  0.7129  0.4904  0.6373
 8272TIP3   OH249010   5.050   6.329   1.743  0.2916 -0.1483  0.6181
 8272TIP3    H149011   5.129   6.369   1.780  0.9391 -0.4650 -0.3847
 8272TIP3    H249012   4.978   6.383   1.777  0.8168 -0.5218  2.4493
 8273TIP3   OH249013   1.934   3.758   1.351  0.2339  0.0589 -0.5868
 8273TIP3    H149014   1.887   3.841   1.357 -0.0474 -0.1898  0.9272
 8273TIP3    H249015   2.025   3.780   1.372  0.4923  0.2436 -1.8175
 8274TIP3   OH249016   3.175   3.662   0.516  0.2433 -0.0134  0.0628
 8274TIP3    H149017   3.127   3.669   0.433  0.8266  0.1730 -0.2695
 8274TIP3    H249018   3.111   3.685   0.583 -0.4358 -0.8697 -0.2759
 8275TIP3   OH249019   4.629   5.432   2.442 -0.3744 -0.0081 -0.6685
 8275TIP3    H149020   4.656   5.466   2.357  0.8253 -0.6612 -0.5711
 8275TIP3    H249021   4.581   5.352   2.421  0.6280 -0.6090 -0.7057
 8276TIP3   OH249022   2.486   0.397   1.750  0.0900 -0.3322  0.3681
 8276TIP3    H149023   2.537   0.463   1.799 -0.5327  0.8679 -0.5526
 8276TIP3    H249024   2.520   0.402   1.661  1.8208 -3.1098  0.7279
 8277TIP3   OH249025   3.425   6.527   0.984 -0.5558  0.2075 -0.0130
 8277TIP3    H149026   3.434   6.432   0.972  0.1977  0.3057 -0.2456
 8277TIP3    H249027   3.442   6.541   1.077  0.0023  0.1861 -0.1077
 8278TIP3   OH249028   2.416   2.437   0.612 -0.1469 -0.1573  0.2122
 8278TIP3    H149029   2.456   2.523   0.598  1.0647 -0.9292 -1.4551
 8278TIP3    H249030   2.327   2.446   0.577  0.2777  0.1859 -0.8186
 8279TIP3   OH249031   1.834   0.793   3.500 -0.3307 -0.4717  0.3123
 8279TIP3    H149032   1.864   0.876   3.463  0.1796 -1.1045 -0.7482
 8279TIP3    H249033   1.805   0.815   3.588 -0.7446  0.9343 -0.1452
 8280TIP3   OH249034   3.814   6.183   1.376  0.0284 -0.4966 -0.1321
 8280TIP3    H149035   3.753   6.114   1.402  0.7807 -1.6593 -1.3332
 8280TIP3    H249036   3.802   6.192   1.281  0.0663  0.9236 -0.0291
 8281TIP3   OH249037   0.166   6.324   1.851  0.2981  0.8216 -0.1392
 8281TIP3    H149038   0.118   6.242   1.844  0.5605  0.7954 -2.3638
 8281TIP3    H249039   0.115   6.386   1.800  1.5121  1.3403 -0.7515
 8282TIP3   OH249040   0.585   4.695   1.526 -0.4135 -0.1994 -0.4489
 8282TIP3    H149041   0.540   4.748   1.592 -0.5192  1.0445 -1.4767
 8282TIP3    H249042   0.635   4.631   1.577  1.4083  2.1865  1.0081
 8283TIP3   OH249043   2.197   3.863   3.587  0.2299 -0.2807 -0.5701
 8283TIP3    H149044   2.168   3.870   3.678 -0.2579  1.0341 -0.8018
 8283TIP3    H249045   2.127   3.814   3.543  0.8187 -1.5709 -0.1049
 8284TIP3   OH249046   1.350   0.572   3.203  0.1458 -0.0782  0.2080
 8284TIP3    H149047   1.348   0.510   3.275 -0.5654  0.0687  0.3222
 8284TIP3    H249048   1.270   0.623   3.213  0.1668  0.1138 -0.5348
 8285TIP3   OH249049   1.578   5.302   3.261  0.1545  0.0702 -0.1574
 8285TIP3    H149050   1.569   5.345   3.346  0.2377 -3.0478  1.5918
 8285TIP3    H249051   1.497   5.252   3.251 -0.4456  1.3967 -2.6345
 8286TIP3   OH249052   1.224   4.021   2.484  0.2914 -0.5456  0.2441
 8286TIP3    H149053   1.189   4.079   2.416  0.0613  0.6444  1.3200
 8286TIP3    H249054   1.149   4.000   2.539  0.8748  0.6801  1.6184
 8287TIP3   OH249055   3.881   1.907   3.596 -0.0294 -0.9049  0.7651
 8287TIP3    H149056   3.868   1.907   3.691 -0.2070  0.4135  0.7612
 8287TIP3    H249057   3.816   1.969   3.563  2.0467  1.0598  0.1158
 8288TIP3   OH249058   4.229   3.501   3.028 -0.1710  0.0617  0.1779
 8288TIP3    H149059   4.192   3.533   2.946  1.2514 -1.5428 -1.1505
 8288TIP3    H249060   4.160   3.445   3.064 -0.1489 -0.6160 -0.8063
 8289TIP3   OH249061   2.933   6.346   1.941  0.0519  0.2570  0.2139
 8289TIP3    H149062   2.913   6.265   1.895  2.6738 -2.4743  3.3133
 8289TIP3    H249063   3.017   6.374   1.904 -1.1799  2.1765 -1.3621
 8290TIP3   OH249064   1.167   1.444   1.566 -0.2514  0.0054 -0.1392
 8290TIP3    H149065   1.184   1.529   1.526  0.3291  1.1223  2.2660
 8290TIP3    H249066   1.116   1.464   1.645  0.2558 -1.8218  0.7138
 8291TIP3   OH249067   3.993   5.252   3.160 -0.0750 -0.6458 -0.2339
 8291TIP3    H149068   3.963   5.192   3.229  1.1629 -2.2866 -1.0310
 8291TIP3    H249069   3.994   5.338   3.202 -0.6211 -1.3822  1.3869
 8292TIP3   OH249070   4.873   4.674   3.045 -0.1903  0.0983  0.0360
 8292TIP3    H149071   4.948   4.700   2.990  0.2472 -1.2717 -0.0693
 8292TIP3    H249072   4.912   4.652   3.130 -0.2553 -1.8287 -0.3851
 8293TIP3   OH249073   0.262   4.767   1.151 -0.0166 -0.6136 -0.1010
 8293TIP3    H149074   0.339   4.740   1.101  0.2530 -1.2942  0.6640
 8293TIP3    H249075   0.188   4.726   1.105  0.1898 -0.9035 -0.1762
 8294TIP3   OH249076   1.821   2.637   1.076  1.1571 -0.1201 -0.6834
 8294TIP3    H149077   1.762   2.663   1.006 -0.5151  0.2668  0.8037
 8294TIP3    H249078   1.873   2.716   1.094  0.0946  0.4633 -0.0751
 8295TIP3   OH249079   2.640   5.063   0.642  0.7236 -0.1964  0.4875
 8295TIP3    H149080   2.628   5.157   0.659  1.6941 -0.3051  1.8934
 8295TIP3    H249081   2.725   5.057   0.600  0.3181 -0.3935 -0.3334
 8296TIP3   OH249082   0.882   5.906   0.929 -0.0087 -0.0001 -0.0998
 8296TIP3    H149083   0.809   5.937   0.983  1.4000  2.4298  0.5612
 8296TIP3    H249084   0.892   5.972   0.861  0.7779 -0.9630 -0.9575
 8297TIP3   OH249085   0.176   3.589   1.737  0.6888 -0.2009 -0.5294
 8297TIP3    H149086   0.236   3.570   1.809  0.6214  0.7849 -0.1961
 8297TIP3    H249087   0.153   3.681   1.749  1.2558  0.2106 -2.2424
 8298TIP3   OH249088   5.177   6.022   2.294  0.0863  0.3244  0.6793
 8298TIP3    H149089   5.099   5.972   2.320 -0.1489 -0.2387 -1.0119
 8298TIP3    H249090   5.161   6.110   2.328 -0.6098 -0.1307  1.5900
 8299TIP3   OH249091   5.228   2.840   2.690 -0.2005  0.0324  0.1109
 8299TIP3    H149092   5.182   2.895   2.753  0.7432 -0.0677  0.9127
 8299TIP3    H249093   5.315   2.827   2.728  0.7146  0.7282 -1.6371
 8300TIP3   OH249094   1.123   0.202   2.465 -0.0440 -0.7607 -0.1497
 8300TIP3    H149095   1.062   0.232   2.398  0.0951 -1.5656 -0.6535
 8300TIP3    H249096   1.127   0.107   2.453 -0.7874 -1.0550  1.6630
 8301TIP3   OH249097   2.384   0.709   0.785  0.2467  0.0740 -0.4332
 8301TIP3    H149098   2.415   0.788   0.742 -1.0817  0.1166 -1.3604
 8301TIP3    H249099   2.289   0.721   0.792  0.2655 -0.5225  1.3246
 8302TIP3   OH249100   3.694   6.338   3.165  0.3244 -0.7056 -0.4670
 8302TIP3    H149101   3.641   6.300   3.236  0.0027 -0.2556 -0.4603
 8302TIP3    H249102   3.634   6.342   3.090 -0.7164  2.7191  0.3520
 8303TIP3   OH249103   4.883   5.375   0.517  0.0558  0.1962  0.1719
 8303TIP3    H149104   4.811   5.312   0.515 -0.7571  1.0914 -1.7998
 8303TIP3    H249105   4.962   5.322   0.516 -0.6078 -0.8402 -2.0799
 8304TIP3   OH249106   5.807   0.201   2.905  0.3708  0.3468  0.4570
 8304TIP3    H149107   5.865   0.175   2.976  0.8316 -0.1667 -0.0951
 8304TIP3    H249108   5.863   0.245   2.842  0.2895 -0.6116 -0.3230
 8305TIP3   OH249109   5.796   3.394   2.935 -0.6104 -0.3828  0.5758
 8305TIP3    H149110   5.788   3.356   2.847 -1.9698 -1.4405  1.1240
 8305TIP3    H249111   5.886   3.425   2.939 -0.2318 -1.1947 -0.8498
 8306TIP3   OH249112   1.516   0.363   2.192 -0.9914  0.0608 -0.0041
 8306TIP3    H149113   1.521   0.305   2.117  0.6940 -0.5750  0.5552
 8306TIP3    H249114   1.507   0.305   2.267 -0.1144  0.5431  0.4906
 8307TIP3   OH249115   6.676   2.303   3.399 -0.1358  0.1104  0.1139
 8307TIP3    H149116   6.707   2.361   3.468  1.9479 -0.4073 -0.3231
 8307TIP3    H249117   6.755   2.263   3.363 -1.2274 -0.3545 -1.9419
 8308TIP3   OH249118   3.082   1.702   2.916  0.7401 -0.6072 -0.1927
 8308TIP3    H149119   3.106   1.640   2.985 -0.3387 -0.6583  0.1433
 8308TIP3    H249120   3.002   1.667   2.878 -0.6930  1.2763  0.9433
 8309TIP3   OH249121   5.077   6.217   2.487 -0.1610 -0.0724 -0.2288
 8309TIP3    H149122   5.095   6.156   2.559  0.4136  0.4639  0.0883
 8309TIP3    H249123   5.052   6.299   2.531 -0.0677  0.1802 -0.6442
 8310TIP3   OH249124   1.778   5.282   0.859 -0.8092 -0.3968 -0.1029
 8310TIP3    H149125   1.701   5.243   0.819 -1.0427  1.1267 -1.2394
 8310TIP3    H249126   1.771   5.375   0.838  1.1641 -0.1675  0.0663
 8311TIP3   OH249127   5.817   2.983   0.598  0.3446  0.1094  0.3956
 8311TIP3    H149128   5.744   2.952   0.544  0.5911 -1.8172  1.0986
 8311TIP3    H249129   5.880   2.911   0.597  1.8989  1.4032  0.4761
 8312TIP3   OH249130   2.887   2.566   1.187  0.1375  0.0897  0.1511
 8312TIP3    H149131   2.802   2.586   1.226 -0.0237  1.3773 -0.8250
 8312TIP3    H249132   2.873   2.483   1.141 -0.2274 -0.3632  1.0439
 8313TIP3   OH249133   2.389   0.894   1.133  0.0478  0.2409 -0.3077
 8313TIP3    H149134   2.441   0.948   1.192 -0.2938  0.7631 -0.4742
 8313TIP3    H249135   2.452   0.840   1.087  0.3273 -0.1276  0.4844
 8314TIP3   OH249136   2.062   2.202   3.649 -0.0360 -0.0945  0.5987
 8314TIP3    H149137   2.123   2.248   3.592  0.1026 -0.5241  0.3964
 8314TIP3    H249138   2.115   2.176   3.725 -0.2492  0.5913  0.9974
 8315TIP3   OH249139   5.592   5.053   2.107 -0.2215 -0.4728  0.4053
 8315TIP3    H149140   5.515   5.103   2.136  0.2128  1.0174 -0.8600
 8315TIP3    H249141   5.596   5.069   2.013  0.2811 -2.4988  0.0426
 8316TIP3   OH249142   0.173   2.322   1.052 -0.4558 -0.3527  0.4417
 8316TIP3    H149143   0.223   2.356   0.977 -1.0982  2.3338  1.1545
 8316TIP3    H249144   0.215   2.360   1.128 -2.4807  0.5555  1.1639
 8317TIP3   OH249145   2.889   1.662   0.609  0.2041  0.0338  0.3657
 8317TIP3    H149146   2.807   1.638   0.565  0.4724 -0.0692 -0.0863
 8317TIP3    H249147   2.892   1.606   0.687 -0.7018  0.8321  0.9934
 8318TIP3   OH249148   5.296   4.267   1.188  0.1830  0.3883  0.0099
 8318TIP3    H149149   5.354   4.192   1.175  0.2188  0.2049  1.1076
 8318TIP3    H249150   5.244   4.272   1.108 -0.5852 -1.4767  0.3442
 8319TIP3   OH249151   6.436   3.160   0.913 -0.6349 -0.4014  0.1806
 8319TIP3    H149152   6.396   3.245   0.896  1.0044  0.0772 -1.6792
 8319TIP3    H249153   6.488   3.173   0.992 -0.3880  0.3499 -0.1005
 8320TIP3   OH249154   5.344   2.549   2.202  0.0750  0.8341  0.0547
 8320TIP3    H149155   5.331   2.636   2.240 -1.9647  1.7210 -2.3555
 8320TIP3    H249156   5.259   2.507   2.210  1.0276 -0.9966  1.1561
 8321TIP3   OH249157   5.026   5.941   2.694 -0.2285  0.5459 -0.1547
 8321TIP3    H149158   4.993   5.876   2.757 -0.5276  2.3110  1.6081
 8321TIP3    H249159   5.113   5.909   2.671 -0.9621 -1.2808 -0.5663
 8322TIP3   OH249160   1.293   3.586   1.071 -0.0806 -0.1008 -0.3113
 8322TIP3    H149161   1.248   3.506   1.098  1.8259 -1.5730 -1.2672
 8322TIP3    H249162   1.360   3.556   1.009  1.5027  2.1051  0.2279
 8323TIP3   OH249163   3.654   6.114   0.789 -0.2384 -0.1901 -0.4727
 8323TIP3    H149164   3.635   6.122   0.696 -0.8644  0.2765 -0.3137
 8323TIP3    H249165   3.749   6.120   0.795 -0.2990  1.8866 -0.9202
 8324TIP3   OH249166   2.222   2.317   3.451  0.2195  0.3416 -0.5090
 8324TIP3    H149167   2.184   2.292   3.367  0.1484  0.2899 -0.4614
 8324TIP3    H249168   2.220   2.413   3.451 -1.3691  0.3365  0.1572
 8325TIP3   OH249169   6.351   1.577   2.765  0.4220  0.2015  0.7221
 8325TIP3    H149170   6.435   1.539   2.739  0.3716  0.7877 -0.3870
 8325TIP3    H249171   6.321   1.523   2.838  1.1216 -0.8458  0.2571
 8326TIP3   OH249172   0.608   1.211   0.579 -0.0457  0.4477 -0.2718
 8326TIP3    H149173   0.592   1.284   0.520 -0.3916  1.5602  1.1237
 8326TIP3    H249174   0.538   1.217   0.644 -0.9368 -2.0253 -0.9081
 8327TIP3   OH249175   4.557   5.672   3.761 -0.4763 -0.0761 -0.4697
 8327TIP3    H149176   4.648   5.646   3.772  0.0116  1.9426  0.6987
 8327TIP3    H249177   4.528   5.624   3.683  2.5133  1.5223 -2.7806
 8328TIP3   OH249178   3.195   0.004   2.292  0.3024  0.2632 -0.4329
 8328TIP3    H149179   3.100   0.017   2.282  0.2259 -0.3771 -0.5688
 8328TIP3    H249180   3.231   0.093   2.291 -0.1958  0.4659 -1.3833
 8329TIP3   OH249181   3.832   4.811   2.761  0.5980 -0.6585 -0.0167
 8329TIP3    H149182   3.791   4.841   2.680  0.4603 -1.1568 -0.1312
 8329TIP3    H249183   3.909   4.868   2.771 -0.8100  1.1996  0.8909
 8330TIP3   OH249184   0.319   3.168   1.392  0.0958  0.0660  0.8699
 8330TIP3    H149185   0.264   3.159   1.470 -0.4533 -1.0705  0.3806
 8330TIP3    H249186   0.371   3.088   1.391  0.5461  0.3668  0.4063
 8331TIP3   OH249187   2.751   0.899   2.716  0.5318  0.2814 -0.3490
 8331TIP3    H149188   2.741   0.972   2.655  0.9530 -0.5502 -1.4602
 8331TIP3    H249189   2.680   0.910   2.779 -0.7759  0.4194 -1.7811
 8332TIP3   OH249190   3.128   1.662   0.864 -0.1083 -0.8714  0.3931
 8332TIP3    H149191   3.170   1.614   0.793 -0.3879 -1.0165  0.3237
 8332TIP3    H249192   3.036   1.635   0.861 -0.3624 -0.0193  0.0890
 8333TIP3   OH249193   1.391   2.547   1.110 -0.4877 -0.2513  0.0777
 8333TIP3    H149194   1.358   2.599   1.036 -0.1066 -1.9400 -1.3410
 8333TIP3    H249195   1.326   2.560   1.179 -0.8871  1.3251 -0.5432
 8334TIP3   OH249196   1.971   4.600   2.106  0.1539  0.0037  0.0023
 8334TIP3    H149197   1.910   4.558   2.166  1.3603  0.5978  1.7279
 8334TIP3    H249198   1.975   4.691   2.135  0.3553  0.4598 -1.3621
 8335TIP3   OH249199   5.471   1.766   3.472 -0.1675  0.1160 -0.5005
 8335TIP3    H149200   5.556   1.805   3.447  0.4337 -1.1619 -0.5406
 8335TIP3    H249201   5.441   1.819   3.545  1.0679  0.1262  0.0374
 8336TIP3   OH249202   3.190   1.154  11.353 -0.0059 -0.2359  0.1395
 8336TIP3    H149203   3.110   1.171  11.305  0.3478  0.7038 -0.1483
 8336TIP3    H249204   3.166   1.166  11.445 -0.6243 -1.8028  0.2091
 8337TIP3   OH249205   0.069   1.082   2.873 -0.1588  0.1794  0.2631
 8337TIP3    H149206   0.005   1.030   2.824 -1.2492  0.3148  1.4983
 8337TIP3    H249207   0.154   1.048   2.844 -0.8108 -1.3230 -0.0019
 8338TIP3   OH249208   3.569   5.159   1.312 -0.3924 -0.4009  0.4042
 8338TIP3    H149209   3.661   5.133   1.306 -0.6237 -0.9604 -1.0988
 8338TIP3    H249210   3.570   5.240   1.363  0.6459 -1.7666  2.7306
 8339TIP3   OH249211   5.268   5.595   1.428 -0.2681 -0.0179  0.8225
 8339TIP3    H149212   5.349   5.628   1.465 -0.0950 -0.1585  0.5779
 8339TIP3    H249213   5.249   5.654   1.355  0.7623 -1.2181 -0.4612
 8340TIP3   OH249214   5.969   6.343   0.809 -0.1365  0.0546 -0.1379
 8340TIP3    H149215   5.900   6.280   0.790 -1.6530  1.7737 -0.5193
 8340TIP3    H249216   5.925   6.415   0.854  1.4566  1.1068 -0.1703
 8341TIP3   OH249217   0.388   4.075   0.976  0.1030 -0.2629  0.1099
 8341TIP3    H149218   0.446   4.001   0.999  1.2948  0.5976 -0.0220
 8341TIP3    H249219   0.371   4.118   1.060 -2.5426 -1.9953  0.5634
 8342TIP3   OH249220   6.548   4.278   3.017 -0.0315 -0.0939  0.0359
 8342TIP3    H149221   6.643   4.270   3.022  0.0578  0.5786 -0.4988
 8342TIP3    H249222   6.522   4.212   2.952  0.0080 -0.6621  0.5914
 8343TIP3   OH249223   3.933   2.844   2.796 -0.5438 -0.1142 -0.1464
 8343TIP3    H149224   3.846   2.877   2.771 -0.6681  0.1356  0.5946
 8343TIP3    H249225   3.920   2.807   2.883  0.0779 -0.1602 -0.0714
 8344TIP3   OH249226   1.656   4.721   1.323 -0.0450 -0.0900 -0.5077
 8344TIP3    H149227   1.564   4.727   1.297  0.2933 -1.2110 -2.1285
 8344TIP3    H249228   1.655   4.677   1.407 -0.9661 -0.7459 -0.8515
 8345TIP3   OH249229   3.983   1.277   3.172  0.1574  0.0005 -0.5497
 8345TIP3    H149230   4.016   1.324   3.248  2.1085  0.1390 -1.4011
 8345TIP3    H249231   3.911   1.224   3.205 -0.6657  1.8993  0.8673
 8346TIP3   OH249232   1.423   3.480   2.428 -0.2620  0.1754  0.3539
 8346TIP3    H149233   1.352   3.471   2.492 -0.1387  0.2921  0.5050
 8346TIP3    H249234   1.496   3.432   2.467  0.1526  1.1539  0.7975
 8347TIP3   OH249235   3.151   4.975   4.599  0.0345  0.1515 -0.0446
 8347TIP3    H149236   3.111   4.912   4.539  2.5664 -1.3855 -0.2649
 8347TIP3    H249237   3.109   5.059   4.577 -3.0388 -1.2615 -0.1268
 8348TIP3   OH249238   0.786   0.480   9.349 -0.6021  0.1648 -0.0447
 8348TIP3    H149239   0.878   0.492   9.324 -1.0652  1.4582 -1.3059
 8348TIP3    H249240   0.787   0.405   9.407  1.2096 -0.0995 -0.3341
 8349TIP3   OH249241   0.264   1.741   0.760 -0.0582  0.4395 -0.6958
 8349TIP3    H149242   0.285   1.768   0.670  5.1690  1.3089  0.4864
 8349TIP3    H249243   0.253   1.823   0.808 -1.8336 -0.0056 -0.2915
 8350TIP3   OH249244   3.528   3.189   3.395 -0.1401  0.1138  0.2391
 8350TIP3    H149245   3.572   3.263   3.355 -0.3761  0.0292 -0.1790
 8350TIP3    H249246   3.468   3.157   3.328  1.5991 -1.9128 -0.4929
 8351TIP3   OH249247   2.993   5.050   4.829  0.1525 -0.1527  0.1595
 8351TIP3    H149248   2.996   5.143   4.806  1.9695 -0.1071  0.3942
 8351TIP3    H249249   3.044   5.007   4.760 -0.8962 -1.0339 -0.0938
 8352TIP3   OH249250   6.425   4.303   1.127 -0.1557  0.1872  0.5196
 8352TIP3    H149251   6.378   4.386   1.132 -1.7630 -0.7052  1.3889
 8352TIP3    H249252   6.400   4.266   1.042 -0.8286 -0.1434  0.8479
 8353TIP3   OH249253   5.353   4.641   3.282 -0.2188 -0.4766 -0.1279
 8353TIP3    H149254   5.306   4.692   3.216 -0.4961 -1.3220 -0.5846
 8353TIP3    H249255   5.444   4.672   3.275 -0.5926  0.8642  0.4767
 8354TIP3   OH249256   1.430   5.495   3.085  0.0745  0.3418 -0.6307
 8354TIP3    H149257   1.417   5.411   3.040 -1.1173 -1.2211  2.3614
 8354TIP3    H249258   1.510   5.482   3.136 -1.2857  0.1418  1.5427
 8355TIP3   OH249259   0.200   3.951   3.642 -0.3725 -0.0199 -0.1370
 8355TIP3    H149260   0.152   3.894   3.582 -0.2335 -1.0799  0.7099
 8355TIP3    H249261   0.286   3.962   3.601  0.1191 -1.6692  0.3432
 8356TIP3   OH249262   6.267   0.146   2.940 -0.1285 -0.3915  0.6038
 8356TIP3    H149263   6.312   0.150   3.025  0.5518 -1.9918  0.3704
 8356TIP3    H249264   6.279   0.055   2.912 -2.3490 -0.5221 -0.1301
 8357TIP3   OH249265   5.461   6.480   2.808  0.0920 -0.3760  0.1031
 8357TIP3    H149266   5.393   6.486   2.876  0.6386 -0.1642  0.6382
 8357TIP3    H249267   5.499   6.393   2.821  0.5790 -0.1123  0.4322
 8358TIP3   OH249268   2.517   4.035   2.221  0.4446  0.1523  0.3609
 8358TIP3    H149269   2.445   4.022   2.159  0.7091 -0.5693  0.1927
 8358TIP3    H249270   2.480   4.010   2.306  0.3776  0.1808  0.3405
 8359TIP3   OH249271   4.169   0.679   0.926 -0.2211  0.1857 -0.4363
 8359TIP3    H149272   4.185   0.744   0.858 -0.9393 -0.3058 -1.0855
 8359TIP3    H249273   4.121   0.725   0.994  1.2054  0.8913  0.1339
 8360TIP3   OH249274   0.192   6.708   1.610 -0.0837 -0.3364  0.1214
 8360TIP3    H149275   0.264   6.650   1.586 -0.9183 -0.5953 -1.9177
 8360TIP3    H249276   0.124   6.692   1.544 -0.4944  2.6943 -0.3631
 8361TIP3   OH249277   0.329   2.442   3.697  0.3537  0.1464  0.1419
 8361TIP3    H149278   0.401   2.488   3.655 -0.1482  1.5297  0.7601
 8361TIP3    H249279   0.358   2.427   3.786 -0.1998  0.9192  0.4607
 8362TIP3   OH249280   5.030   2.598   3.101 -0.3620  0.0142 -0.4421
 8362TIP3    H149281   5.017   2.586   3.195 -1.3042  1.9586 -0.2737
 8362TIP3    H249282   4.983   2.679   3.081  1.6697  0.8678 -2.1647
 8363TIP3   OH249283   0.038   3.281   1.471 -0.8310  0.0968  0.0772
 8363TIP3    H149284   0.090   3.362   1.468 -1.4813  0.7103  2.6735
 8363TIP3    H249285   0.077   3.232   1.544 -1.0549 -1.5269 -0.8661
 8364TIP3   OH249286   2.704   4.711   2.027 -0.0857  0.6055 -0.5382
 8364TIP3    H149287   2.690   4.794   1.982 -3.3240  0.8591  0.6044
 8364TIP3    H249288   2.684   4.644   1.962  0.9629  0.7614 -1.0265
 8365TIP3   OH249289   4.679   2.767   3.539  0.0960  0.3798  0.1448
 8365TIP3    H149290   4.726   2.776   3.456 -1.6247 -1.5645 -1.1293
 8365TIP3    H249291   4.610   2.834   3.535 -0.0450  0.2236 -0.0407
 8366TIP3   OH249292   4.187   6.251   2.672 -0.6181  0.1994  0.1550
 8366TIP3    H149293   4.130   6.326   2.689 -3.5236 -1.2692 -2.1706
 8366TIP3    H249294   4.168   6.227   2.581  1.1520 -2.5819  0.3932
 8367TIP3   OH249295   5.883   1.330   2.222  0.0035 -0.1207 -0.6797
 8367TIP3    H149296   5.874   1.335   2.127 -2.0561 -0.3370 -0.5344
 8367TIP3    H249297   5.848   1.245   2.246  1.3056 -0.4332  0.2252
 8368TIP3   OH249298   0.348   2.880   1.345 -0.5021 -0.4532  0.6419
 8368TIP3    H149299   0.394   2.829   1.412 -0.4266  0.0090  0.9401
 8368TIP3    H249300   0.271   2.826   1.324 -1.0208 -0.1875  1.7575
 8369TIP3   OH249301   5.179   4.660   2.989  0.2806  0.5460 -1.0369
 8369TIP3    H149302   5.220   4.733   3.035  0.3296  0.6256 -1.2061
 8369TIP3    H249303   5.189   4.682   2.896  1.6659 -0.4152 -1.1412
 8370TIP3   OH249304   5.192   2.281   1.945 -0.4238  0.2261 -0.6527
 8370TIP3    H149305   5.134   2.206   1.929 -0.0616 -0.2346  0.1178
 8370TIP3    H249306   5.259   2.247   2.005  1.3204  0.4118 -2.3618
 8371TIP3   OH249307   5.717   2.689   2.347 -0.5527  0.3601  0.6539
 8371TIP3    H149308   5.642   2.747   2.331 -0.6231 -0.0548 -0.6496
 8371TIP3    H249309   5.754   2.673   2.260 -0.3804 -1.3531  1.0034
 8372TIP3   OH249310   1.759   0.696   1.282  0.1716 -0.1786 -0.0515
 8372TIP3    H149311   1.717   0.646   1.353 -0.3940  0.2627 -0.0610
 8372TIP3    H249312   1.710   0.672   1.204  0.0920  0.1579 -0.1061
 8373TIP3   OH249313   5.520   5.356   2.968 -0.2252 -0.2324 -0.0714
 8373TIP3    H149314   5.616   5.349   2.961 -0.0130  2.4155 -1.0304
 8373TIP3    H249315   5.506   5.396   3.054 -0.4573 -0.4019 -0.0316
 8374TIP3   OH249316   5.830   5.881   3.443  0.3552 -0.5940 -0.1852
 8374TIP3    H149317   5.903   5.904   3.501  2.2734 -1.0479 -2.3189
 8374TIP3    H249318   5.846   5.790   3.419 -0.8277 -0.6419 -0.8452
 8375TIP3   OH249319   0.001   0.690   1.788 -0.3600  0.2911 -0.1475
 8375TIP3    H149320   0.031   0.721   1.873 -0.4077  3.4620 -1.1378
 8375TIP3    H249321  -0.094   0.700   1.791 -0.4524 -0.5332 -0.2429
 8376TIP3   OH249322   6.173   3.197   2.070 -0.1819 -0.3313 -0.2282
 8376TIP3    H149323   6.192   3.121   2.016 -2.3730 -1.7314  0.8266
 8376TIP3    H249324   6.122   3.162   2.143 -0.1742  1.9782  0.9700
 8377TIP3   OH249325   5.729   3.283   3.438 -0.5814 -0.3584 -0.1258
 8377TIP3    H149326   5.793   3.223   3.477 -0.4842  1.2871  2.5299
 8377TIP3    H249327   5.782   3.357   3.407 -1.0245  0.3733  0.8097
 8378TIP3   OH249328   0.160   0.832   2.751  0.9199 -0.5512  0.3244
 8378TIP3    H149329   0.079   0.786   2.731  0.0248  1.3188 -0.5244
 8378TIP3    H249330   0.182   0.804   2.840 -0.4706 -1.3124  0.4534
 8379TIP3   OH249331   3.949   2.308   1.341  0.2958  0.4301 -0.4731
 8379TIP3    H149332   3.989   2.393   1.326 -0.9916  1.1355 -0.0188
 8379TIP3    H249333   3.942   2.301   1.436 -0.4241  0.2087 -0.5363
 8380TIP3   OH249334   0.887   3.563   3.887  0.0083  0.1154 -0.2031
 8380TIP3    H149335   0.793   3.564   3.906 -0.0718 -0.5117 -0.5307
 8380TIP3    H249336   0.905   3.474   3.858  0.9230 -0.0712  0.8791
 8381TIP3   OH249337   5.535   0.549   2.157 -0.3377  0.5105  0.0227
 8381TIP3    H149338   5.533   0.633   2.113  4.6074  1.1712  0.5262
 8381TIP3    H249339   5.527   0.570   2.251  0.8125  0.4469  0.1430
 8382TIP3   OH249340   5.291   4.439   2.739  0.2846  0.2916  0.2848
 8382TIP3    H149341   5.346   4.455   2.816  0.3171 -1.3719  0.6482
 8382TIP3    H249342   5.207   4.480   2.760  0.6100  0.7199  0.7713
 8383TIP3   OH249343   3.382   4.757   1.920  0.0306 -0.2587  0.4281
 8383TIP3    H149344   3.322   4.776   1.992 -0.4617  0.7773 -0.2332
 8383TIP3    H249345   3.369   4.829   1.858  0.2456 -1.2666 -0.8241
 8384TIP3   OH249346   3.844   3.277   3.461 -0.1660  0.3284  0.5073
 8384TIP3    H149347   3.938   3.290   3.472  0.2329 -1.2353 -0.7031
 8384TIP3    H249348   3.837   3.204   3.399 -2.1786  0.9037 -0.0080
 8385TIP3   OH249349   0.847   6.391   1.289 -0.4607  0.1030 -0.1862
 8385TIP3    H149350   0.818   6.418   1.202 -0.6463 -0.8179 -0.4261
 8385TIP3    H249351   0.784   6.323   1.315 -0.7419  0.7589  0.9151
 8386TIP3   OH249352   5.589   1.578   3.074  0.1048  0.2191  0.2025
 8386TIP3    H149353   5.644   1.554   3.149 -0.4270 -2.4536 -0.1521
 8386TIP3    H249354   5.642   1.641   3.025  2.4057 -1.3352  0.5079
 8387TIP3   OH249355   4.496   3.725   2.118  0.1989  0.5370 -0.3262
 8387TIP3    H149356   4.445   3.769   2.185  0.4846  0.2687  0.0737
 8387TIP3    H249357   4.533   3.648   2.162  4.4617  2.8771  0.7240
 8388TIP3   OH249358   0.451   2.710   2.706 -0.0270 -0.1788  0.4784
 8388TIP3    H149359   0.363   2.690   2.675  0.1752 -1.7336  0.7807
 8388TIP3    H249360   0.438   2.758   2.788 -0.5978 -0.2304  0.4218
 8389TIP3   OH249361   0.564   1.537   3.048 -0.1732 -0.6958 -0.2469
 8389TIP3    H149362   0.616   1.609   3.013  0.5595  0.3324  2.6772
 8389TIP3    H249363   0.612   1.508   3.126 -3.2519 -0.5523  1.8760
 8390TIP3   OH249364   4.621   0.394   4.114 -0.4747  0.2101  0.1421
 8390TIP3    H149365   4.628   0.340   4.035 -1.2965  0.7019 -0.2816
 8390TIP3    H249366   4.606   0.482   4.082  1.3795  0.8260  0.8239
 8391TIP3   OH249367   3.732   4.768   2.224  0.2364  0.3210 -0.4966
 8391TIP3    H149368   3.785   4.750   2.301  1.0712 -0.3159 -1.2002
 8391TIP3    H249369   3.663   4.827   2.255  1.1429  0.8782  0.5062
 8392TIP3   OH249370   1.227   6.015   1.919 -0.2343 -0.0170  0.3584
 8392TIP3    H149371   1.281   6.035   1.843  0.1282 -0.4862  0.4867
 8392TIP3    H249372   1.253   6.080   1.985 -0.9371  0.7355 -0.0856
 8393TIP3   OH249373   4.798   0.323   0.718  0.0656  0.1490 -0.4951
 8393TIP3    H149374   4.802   0.262   0.645 -0.3435 -0.2921 -0.1625
 8393TIP3    H249375   4.705   0.344   0.726  0.0929  0.1079 -0.0393
 8394TIP3   OH249376   1.800   1.082   0.430 -0.4282 -0.2415 -0.0502
 8394TIP3    H149377   1.725   1.060   0.485  1.7936 -0.1873  3.2551
 8394TIP3    H249378   1.839   0.998   0.407  0.0665 -0.2003  0.6197
 8395TIP3   OH249379   6.268   0.359   1.349 -0.2448 -0.0006 -0.0795
 8395TIP3    H149380   6.282   0.331   1.259 -3.6841 -0.3443 -0.6541
 8395TIP3    H249381   6.276   0.455   1.346 -0.5606  0.0072 -0.8033
 8396TIP3   OH249382   5.740   0.655   3.126  0.0919 -0.7445 -0.1360
 8396TIP3    H149383   5.807   0.692   3.184 -0.6974 -0.2114  0.4720
 8396TIP3    H249384   5.789   0.611   3.057  1.0657 -0.2566  0.2205
 8397TIP3   OH249385   2.299   1.137   1.613 -0.2464 -0.2994  0.4481
 8397TIP3    H149386   2.361   1.210   1.614 -0.4250 -0.1129 -0.7938
 8397TIP3    H249387   2.353   1.060   1.592 -0.3264 -0.2534  0.0780
 8398TIP3   OH249388   3.807   4.289   2.626 -0.6676 -0.5139  0.4728
 8398TIP3    H149389   3.805   4.378   2.663  2.2827 -0.4296  0.7391
 8398TIP3    H249390   3.842   4.235   2.697  2.0757 -0.9235 -1.0355
 8399TIP3   OH249391   0.536   5.981   3.441  0.1162 -0.2085 -0.4288
 8399TIP3    H149392   0.484   5.970   3.362 -1.4472  0.4657  0.4600
 8399TIP3    H249393   0.477   5.956   3.512  0.8626  0.9530  0.6472
 8400TIP3   OH249394   4.670   1.773   0.936  0.3924 -0.6252  0.1193
 8400TIP3    H149395   4.712   1.837   0.879  0.0100  1.9395  2.5083
 8400TIP3    H249396   4.577   1.783   0.919  0.3248 -0.4291  0.5698
 8401TIP3   OH249397   4.421   2.104   0.916  0.5280  0.1624  0.0082
 8401TIP3    H149398   4.449   2.013   0.904 -0.4495 -0.1146 -0.2614
 8401TIP3    H249399   4.356   2.118   0.847  0.3224  0.9156  0.3505
 8402TIP3   OH249400   6.026   1.857   1.104 -0.0687 -0.6203 -0.6440
 8402TIP3    H149401   6.090   1.787   1.095  0.3967 -0.3887  0.5710
 8402TIP3    H249402   5.949   1.815   1.143 -0.7891 -0.9508 -2.3441
 8403TIP3   OH249403   0.434   0.335   2.158  0.4885  0.2721  0.2653
 8403TIP3    H149404   0.363   0.346   2.096  0.1052  0.2589  0.6983
 8403TIP3    H249405   0.401   0.373   2.240  1.3738  1.2586  0.1876
 8404TIP3   OH249406   4.458   0.276   2.996  0.1136 -0.3547  0.0366
 8404TIP3    H149407   4.465   0.189   3.036 -0.7385 -0.3905  0.1078
 8404TIP3    H249408   4.508   0.333   3.055  0.3256 -0.7169  0.2122
 8405TIP3   OH249409   0.417   2.732   3.373  0.7081 -0.3823  0.6863
 8405TIP3    H149410   0.398   2.797   3.441 -0.4275  1.0911 -0.9416
 8405TIP3    H249411   0.494   2.766   3.329  0.6274 -0.6000  0.3787
 8406TIP3   OH249412   2.096   4.464   3.922 -0.0038  0.0350  0.1359
 8406TIP3    H149413   2.073   4.504   4.005 -1.2516  0.0115 -0.1832
 8406TIP3    H249414   2.051   4.516   3.856  2.0793  0.9232 -0.6867
 8407TIP3   OH249415   4.032   1.269   2.395  0.6952 -0.2101 -0.5991
 8407TIP3    H149416   4.063   1.190   2.439  0.5483  0.0227 -0.0631
 8407TIP3    H249417   3.977   1.237   2.324 -1.4995 -0.6058  1.1658
 8408TIP3   OH249418   6.106   5.671   1.529 -0.4043 -0.2271 -0.0051
 8408TIP3    H149419   6.177   5.637   1.475 -1.2058 -2.5783  0.2802
 8408TIP3    H249420   6.036   5.691   1.466 -0.4657 -0.5921 -0.0544
 8409TIP3   OH249421   2.184   1.862   3.153  0.6020 -0.3758 -0.2906
 8409TIP3    H149422   2.263   1.826   3.192  2.2081  2.6496 -0.4529
 8409TIP3    H249423   2.163   1.939   3.207  0.4051  1.4533 -2.7961
 8410TIP3   OH249424   5.347   1.504   3.287  0.2651  0.2322 -0.0939
 8410TIP3    H149425   5.370   1.444   3.216  0.7385  2.2177 -1.7152
 8410TIP3    H249426   5.343   1.590   3.246  1.6002  1.6684  2.4773
 8411TIP3   OH249427   2.877   3.510   0.757  0.0750  0.2426 -0.5729
 8411TIP3    H149428   2.953   3.510   0.815  0.4660  2.6886 -0.9963
 8411TIP3    H249429   2.815   3.452   0.800  0.7078  1.2101  1.8198
 8412TIP3   OH249430   1.508   5.699   1.150 -0.1207  0.0552 -0.1097
 8412TIP3    H149431   1.442   5.645   1.194  2.6366 -2.9759  0.7054
 8412TIP3    H249432   1.525   5.653   1.067  1.7075  0.0366  0.2230
 8413TIP3   OH249433   1.836   0.034   3.797  0.4383 -0.3823 -0.1227
 8413TIP3    H149434   1.860   0.030   3.890 -0.0596 -0.3292  0.0121
 8413TIP3    H249435   1.767   0.099   3.793  0.9911  0.1827 -0.6590
 8414TIP3   OH249436   1.206   1.028   2.336 -0.1060 -0.2585 -0.2334
 8414TIP3    H149437   1.217   1.058   2.426 -1.8774 -1.1035  0.3015
 8414TIP3    H249438   1.287   1.053   2.292  0.1360  1.6371  1.1851
 8415TIP3   OH249439   0.317   2.654   2.941  0.3202  0.5621  0.0046
 8415TIP3    H149440   0.249   2.589   2.925 -1.6347  2.4579  0.1204
 8415TIP3    H249441   0.371   2.616   3.010 -0.3019 -1.2124 -0.4258
 8416TIP3   OH249442   3.641   2.030   3.201 -0.0584 -0.1994  0.5234
 8416TIP3    H149443   3.628   1.953   3.256 -0.4127 -0.9388 -0.5697
 8416TIP3    H249444   3.733   2.024   3.173  0.8760  1.4812  2.9269
 8417TIP3   OH249445   5.101   5.701   2.399  0.2758  0.2500  0.0460
 8417TIP3    H149446   5.020   5.700   2.450  0.4307 -0.2752  0.2865
 8417TIP3    H249447   5.168   5.671   2.460  0.3958 -0.7650 -0.5651
 8418TIP3   OH249448   5.120   2.896   1.660  0.2608  0.0854 -0.1636
 8418TIP3    H149449   5.064   2.824   1.687  0.5769  0.2264  0.9409
 8418TIP3    H249450   5.172   2.917   1.738  0.2842  1.4016 -0.4950
 8419TIP3   OH249451   5.046   6.088   1.041  0.3438 -0.0671  0.6601
 8419TIP3    H149452   5.039   6.180   1.014 -1.8375 -0.0103  1.2249
 8419TIP3    H249453   5.026   6.089   1.134 -1.4356 -1.2933  0.3274
 8420TIP3   OH249454   4.737   1.675   2.403 -0.3682 -0.0342  0.0958
 8420TIP3    H149455   4.831   1.693   2.403 -0.2165 -0.7564  0.6542
 8420TIP3    H249456   4.708   1.697   2.491 -1.1682  2.2424 -0.6913
 8421TIP3   OH249457   1.782   5.932   2.566  0.4192 -0.2548 -0.0766
 8421TIP3    H149458   1.796   5.839   2.582  0.5789 -0.3564 -0.7710
 8421TIP3    H249459   1.716   5.958   2.630  1.8434 -0.3712  1.5216
 8422TIP3   OH249460   2.268   4.100   2.452  0.4040  0.0381  0.3046
 8422TIP3    H149461   2.341   4.160   2.468  0.3165  0.3428 -0.3736
 8422TIP3    H249462   2.190   4.152   2.470  0.3426 -0.0490  0.2885
 8423TIP3   OH249463   4.994   2.999   2.253 -0.4689  0.8825 -0.1631
 8423TIP3    H149464   5.011   2.960   2.339 -0.5692  0.3373 -0.3853
 8423TIP3    H249465   4.932   3.070   2.271 -0.0703  1.1206  0.2846
 8424TIP3   OH249466   1.509   2.338   1.834 -0.3020  0.1290  0.0335
 8424TIP3    H149467   1.539   2.347   1.744  0.3954  3.5327  0.4746
 8424TIP3    H249468   1.422   2.380   1.834  0.3066  1.4628  1.1537
 8425TIP3   OH249469   1.590   5.459   2.664  0.2616 -0.0637 -0.5599
 8425TIP3    H149470   1.554   5.394   2.602  0.6562 -0.6697 -0.1595
 8425TIP3    H249471   1.683   5.439   2.668  0.4417  0.7272 -0.6550
 8426TIP3   OH249472   6.720   2.953   2.612  0.8165 -0.1263  0.7579
 8426TIP3    H149473   6.777   2.892   2.566 -1.0755 -0.8194 -0.7917
 8426TIP3    H249474   6.708   2.914   2.699  2.2133 -0.2323  0.9286
 8427TIP3   OH249475   0.053   2.082   0.967 -0.5919  0.1347 -0.2596
 8427TIP3    H149476   0.071   2.162   1.017  0.7558  0.2218 -0.8404
 8427TIP3    H249477   0.139   2.048   0.944 -1.1616 -1.1405 -0.5907
 8428TIP3   OH249478   5.959   3.779   1.039 -0.2220 -0.4884  1.2125
 8428TIP3    H149479   6.052   3.767   1.053 -0.1028 -0.7970  0.2232
 8428TIP3    H249480   5.922   3.690   1.043 -0.6296 -0.2843  2.5598
 8429TIP3   OH249481   6.179   5.348   3.243 -0.4297  0.0831  0.9807
 8429TIP3    H149482   6.113   5.298   3.195  0.5455 -0.2047 -0.1007
 8429TIP3    H249483   6.155   5.337   3.335 -1.6423 -0.3465  0.6366
 8430TIP3   OH249484   0.436   6.214   3.739 -0.2607  0.1860  0.1522
 8430TIP3    H149485   0.414   6.291   3.685  0.2837  0.5531  0.4407
 8430TIP3    H249486   0.415   6.139   3.684 -0.5290  0.5498 -0.2448
 8431TIP3   OH249487   2.138   5.152   2.691 -0.3525 -0.2059 -0.6593
 8431TIP3    H149488   2.225   5.117   2.671 -1.2660 -2.0336 -1.6401
 8431TIP3    H249489   2.077   5.094   2.646 -2.2342 -0.3692  1.8537
 8432TIP3   OH249490   1.013   3.631   2.644 -0.4644  0.3547  0.2027
 8432TIP3    H149491   0.988   3.595   2.559 -1.3216  2.1367 -0.3517
 8432TIP3    H249492   0.930   3.641   2.691  0.0004 -0.6430  1.3119
 8433TIP3   OH249493   0.861   3.634   2.355  0.6451 -0.0636 -0.2617
 8433TIP3    H149494   0.854   3.728   2.339  1.5978 -0.1316 -1.1762
 8433TIP3    H249495   0.802   3.594   2.291 -0.0923 -0.0873  0.4131
 8434TIP3   OH249496   0.314   4.453   1.307  0.1678  0.3091  0.3304
 8434TIP3    H149497   0.339   4.469   1.398  1.1528  0.1421  0.0954
 8434TIP3    H249498   0.218   4.453   1.309  0.1682  0.9813  1.2479
 8435TIP3   OH249499   2.275   2.642   1.398  0.0306  0.4523  0.2223
 8435TIP3    H149500   2.305   2.581   1.465 -0.6089  0.1251  0.2068
 8435TIP3    H249501   2.355   2.687   1.369  0.2437  1.0379  1.6366
 8436TIP3   OH249502   0.505   0.122   0.408 -0.2563  0.5532  0.1679
 8436TIP3    H149503   0.480   0.037   0.445  0.2816  0.5139  0.4475
 8436TIP3    H249504   0.600   0.125   0.414 -0.2265  0.9358 -0.3837
 8437TIP3   OH249505   5.165   4.451   3.362  0.0603 -0.5683  0.0434
 8437TIP3    H149506   5.191   4.364   3.332  1.1122 -0.2846  0.0978
 8437TIP3    H249507   5.238   4.507   3.339 -1.3489  0.6731 -1.6022
 8438TIP3   OH249508   2.851   2.084   1.709  0.0084 -0.0298  0.1773
 8438TIP3    H149509   2.888   2.074   1.796 -0.2100  1.1785  0.4266
 8438TIP3    H249510   2.889   2.164   1.675 -1.5944  0.7309  0.0558
 8439TIP3   OH249511   0.692   1.303   2.558  0.2779 -0.2997  0.2606
 8439TIP3    H149512   0.710   1.306   2.652 -0.1522 -2.3901  0.4516
 8439TIP3    H249513   0.611   1.353   2.548 -0.5752 -1.4153  1.2796
 8440TIP3   OH249514   5.948   1.584   1.115  0.3735 -0.4368  0.1537
 8440TIP3    H149515   5.905   1.557   1.196  1.2766  1.0963  1.2027
 8440TIP3    H249516   6.020   1.522   1.104 -1.0949 -2.0682 -0.7784
 8441TIP3   OH249517   0.482   1.986   2.316  0.2593 -0.6281 -0.3060
 8441TIP3    H149518   0.530   1.972   2.397 -0.0348 -1.6241 -0.2786
 8441TIP3    H249519   0.527   1.931   2.252 -0.3151 -0.9098 -0.4800
 8442TIP3   OH249520   0.939   6.611   2.847  0.0822 -0.3159  0.1183
 8442TIP3    H149521   0.972   6.698   2.825 -1.1367  0.0792 -0.2434
 8442TIP3    H249522   0.909   6.575   2.764  0.2755 -0.9523  0.3193
 8443TIP3   OH249523   4.149   6.521   1.572  0.1859 -0.5151 -0.0273
 8443TIP3    H149524   4.134   6.429   1.551  0.7996 -0.7783  0.6177
 8443TIP3    H249525   4.080   6.543   1.635 -0.3559 -0.3341 -0.6663
 8444TIP3   OH249526   4.011   3.582   2.739  0.8945 -0.1401  0.4844
 8444TIP3    H149527   3.942   3.598   2.676  2.1496 -2.1089 -1.5436
 8444TIP3    H249528   4.046   3.668   2.760 -1.2009  0.7565  0.4899
 8445TIP3   OH249529   2.618   0.732   3.264  0.3685  0.0141  0.2231
 8445TIP3    H149530   2.540   0.756   3.313  0.4709  0.4242  0.1928
 8445TIP3    H249531   2.677   0.807   3.276  0.3769  0.1405 -0.5645
 8446TIP3   OH249532   2.105   4.178   3.000  0.2489  0.4282 -0.4605
 8446TIP3    H149533   2.183   4.166   2.946  0.6496  0.8337  0.0246
 8446TIP3    H249534   2.099   4.097   3.051  0.5314  0.5211 -0.2765
 8447TIP3   OH249535   1.207   5.370   3.187  0.0952 -0.2330  0.3973
 8447TIP3    H149536   1.277   5.424   3.150 -0.9554  0.1378 -1.1457
 8447TIP3    H249537   1.159   5.430   3.244  0.5555 -0.2856  0.8494
 8448TIP3   OH249538   1.232   2.539   0.808 -0.0287 -0.2747 -0.5354
 8448TIP3    H149539   1.174   2.467   0.782 -0.9002 -0.1953  1.0769
 8448TIP3    H249540   1.178   2.594   0.865  1.1227  0.7673 -0.3993
 8449TIP3   OH249541   2.578   1.728   3.560  0.2805  0.5805 -0.3869
 8449TIP3    H149542   2.643   1.755   3.625 -0.7144  1.1388  0.4193
 8449TIP3    H249543   2.604   1.640   3.536  1.2530  0.7387  0.0187
 8450TIP3   OH249544   5.653   6.772   3.020 -0.3816 -0.3093 -0.3600
 8450TIP3    H149545   5.691   6.838   2.961 -0.6624  0.0116 -0.1820
 8450TIP3    H249546   5.698   6.691   2.996 -0.7658 -0.2617 -1.2860
 8451TIP3   OH249547   3.198   2.773   1.876 -0.0496  0.3349  0.6074
 8451TIP3    H149548   3.208   2.803   1.966  1.1069  3.4562 -0.4128
 8451TIP3    H249549   3.269   2.709   1.864  0.9588  1.2621  1.4237
 8452TIP3   OH249550   6.402   0.554   0.686  0.1722  0.3139  0.6017
 8452TIP3    H149551   6.444   0.626   0.639 -0.3549  0.3811  0.2302
 8452TIP3    H249552   6.440   0.475   0.647  0.6529  0.3867  0.9192
 8453TIP3   OH249553   3.181   1.940   3.959  0.2908  0.3602  0.4483
 8453TIP3    H149554   3.211   2.013   4.014 -0.6633  1.6268 -0.6686
 8453TIP3    H249555   3.086   1.943   3.966  0.2470 -1.1681  0.8343
 8454TIP3   OH249556   6.352   0.453   2.234 -0.3842 -0.5249  0.3849
 8454TIP3    H149557   6.290   0.453   2.161  0.4166 -2.0966 -0.3430
 8454TIP3    H249558   6.319   0.520   2.294 -1.7878 -0.1119 -0.8062
 8455TIP3   OH249559   6.377   4.123   0.915  0.7000  0.2332 -0.0325
 8455TIP3    H149560   6.282   4.108   0.910  0.3771  1.7568  0.6922
 8455TIP3    H249561   6.415   4.036   0.923 -0.6412 -0.4142 -0.4147
 8456TIP3   OH249562   0.302   1.094   1.063  0.1859  0.3204  0.1386
 8456TIP3    H149563   0.243   1.029   1.023  1.0931 -0.7842  0.5482
 8456TIP3    H249564   0.388   1.072   1.029  0.3535  2.1202 -0.6991
 8457TIP3   OH249565   4.563   4.635   1.381 -0.0657  0.1600 -0.2297
 8457TIP3    H149566   4.563   4.590   1.297 -1.7897 -1.9449  0.8222
 8457TIP3    H249567   4.474   4.669   1.390 -0.1052 -0.2368  1.0248
 8458TIP3   OH249568   1.989   4.447   0.976  0.0371  0.2104  0.3537
 8458TIP3    H149569   2.079   4.415   0.970  0.1237  0.4496  0.3932
 8458TIP3    H249570   1.988   4.529   0.927 -0.7838 -1.0821 -1.9681
 8459TIP3   OH249571   6.203   4.752   1.329  0.5053 -0.1496 -0.4865
 8459TIP3    H149572   6.225   4.736   1.421  1.5445  0.4132 -0.6160
 8459TIP3    H249573   6.134   4.818   1.332  0.4207 -0.2513 -0.1028
 8460TIP3   OH249574   6.533   3.541   3.479  0.3218  0.4830 -0.2739
 8460TIP3    H149575   6.479   3.614   3.448  0.1776  0.6087  0.2614
 8460TIP3    H249576   6.471   3.477   3.513  0.5125  0.6832  0.4574
 8461TIP3   OH249577   4.619   1.259   2.151 -0.3355  0.2486 -0.0384
 8461TIP3    H149578   4.661   1.190   2.100  0.9813  0.7666  0.3060
 8461TIP3    H249579   4.589   1.322   2.086  0.9756  0.7099 -0.2249
 8462TIP3   OH249580   0.054   5.460   2.249  0.3407  0.6764  0.2490
 8462TIP3    H149581   0.036   5.368   2.230  1.7356  0.4816 -0.2096
 8462TIP3    H249582  -0.029   5.505   2.229 -0.1214 -0.3663 -0.2686
 8463TIP3   OH249583   6.127   2.731   2.079 -0.3320 -0.6668  0.5916
 8463TIP3    H149584   6.033   2.714   2.069 -0.2479 -1.5826  1.2675
 8463TIP3    H249585   6.131   2.814   2.126 -0.8218 -0.9532  1.1568
 8464TIP3   OH249586   6.497   5.139   2.304 -0.1824 -0.4307 -0.3337
 8464TIP3    H149587   6.444   5.060   2.308 -1.6567  0.5496  0.6909
 8464TIP3    H249588   6.453   5.195   2.240 -0.0542  0.1731  0.0949
 8465TIP3   OH249589   3.694   3.666   1.494  1.1110  0.3485 -0.3753
 8465TIP3    H149590   3.688   3.697   1.403  1.0443  0.6631 -0.2642
 8465TIP3    H249591   3.780   3.696   1.524  1.1540  0.2004 -0.3515
 8466TIP3   OH249592   0.480   2.682   1.533 -0.3097 -0.4453  0.3154
 8466TIP3    H149593   0.551   2.740   1.562 -0.2301  0.5067 -1.6069
 8466TIP3    H249594   0.486   2.606   1.591  0.5972  0.7494  1.8917
 8467TIP3   OH249595   1.266   0.359   3.377  0.0169 -0.1624 -0.2096
 8467TIP3    H149596   1.191   0.351   3.318 -0.4890 -2.5748  0.6610
 8467TIP3    H249597   1.233   0.333   3.463  0.8189  2.9150  1.1800
 8468TIP3   OH249598   1.703   3.791   2.681 -0.3824 -0.1960 -0.1315
 8468TIP3    H149599   1.745   3.734   2.616  1.2923  0.5588  0.2217
 8468TIP3    H249600   1.618   3.812   2.643 -1.1183 -2.9695 -0.2324
 8469TIP3   OH249601   4.012   5.512   1.937  0.8019 -0.0074 -0.5812
 8469TIP3    H149602   4.026   5.485   2.028 -0.3851 -1.4564 -0.7954
 8469TIP3    H249603   4.097   5.547   1.909  1.7359 -1.2939  0.5013
 8470TIP3   OH249604   2.372   4.890   3.478 -0.3515 -0.5379  0.2025
 8470TIP3    H149605   2.392   4.815   3.422  1.1697  0.5290 -0.7517
 8470TIP3    H249606   2.282   4.913   3.456 -0.5155 -1.4900 -0.1742
 8471TIP3   OH249607   0.384   4.270   0.539 -0.5106 -0.2285 -0.3072
 8471TIP3    H149608   0.416   4.186   0.572  0.0619  0.7994  1.9858
 8471TIP3    H249609   0.289   4.260   0.536 -0.4309 -1.0538 -0.3313
 8472TIP3   OH249610   1.081   6.274   2.458 -0.4976 -0.3831  0.0629
 8472TIP3    H149611   1.105   6.182   2.456  2.5366  0.1727  2.4816
 8472TIP3    H249612   1.001   6.277   2.510 -0.1665 -1.6300  0.6925
 8473TIP3   OH249613   3.514   5.616   3.095  0.4210  0.1665 -0.1257
 8473TIP3    H149614   3.591   5.565   3.116 -0.4659 -0.7260  1.0636
 8473TIP3    H249615   3.441   5.568   3.133 -0.6290  1.4815 -0.3693
 8474TIP3   OH249616   5.828   1.371   2.907  0.0317 -0.3938  0.6848
 8474TIP3    H149617   5.834   1.275   2.912 -0.8212 -0.3996  1.8952
 8474TIP3    H249618   5.857   1.401   2.993 -1.2076  0.3487  0.8577
 8475TIP3   OH249619   2.308   5.315   3.987 -0.1062  0.9647 -0.7937
 8475TIP3    H149620   2.245   5.248   4.012  1.0287  0.2469  0.2785
 8475TIP3    H249621   2.311   5.375   4.062  1.3998  0.2638 -0.2500
 8476TIP3   OH249622   4.265   5.252   2.499 -0.1290  0.2060  0.1812
 8476TIP3    H149623   4.280   5.224   2.590  1.8895  0.3681 -0.0468
 8476TIP3    H249624   4.353   5.253   2.460 -0.7882  1.5447 -1.3630
 8477TIP3   OH249625   0.601   4.024   3.143 -0.2097 -0.6115  0.1968
 8477TIP3    H149626   0.614   4.042   3.236  1.4438  1.0001 -0.2961
 8477TIP3    H249627   0.636   3.936   3.130  2.5066  0.3397  0.5698
 8478TIP3   OH249628   0.277   0.726   3.214 -0.0765  0.2008  0.1300
 8478TIP3    H149629   0.291   0.787   3.286 -0.9007 -0.7132  1.0978
 8478TIP3    H249630   0.340   0.656   3.229  1.0296  0.9019 -1.1084
 8479TIP3   OH249631   6.322   6.716   2.777 -0.2092 -0.8172  0.8597
 8479TIP3    H149632   6.303   6.771   2.701  1.2558 -0.7068  0.5275
 8479TIP3    H249633   6.249   6.655   2.782 -0.2277 -0.9756 -0.8050
 8480TIP3   OH249634   2.799   0.224   1.731  0.4651  0.9957 -0.5018
 8480TIP3    H149635   2.743   0.273   1.792  0.4379  0.0525  0.2498
 8480TIP3    H249636   2.738   0.194   1.663  0.1128  0.3820  0.0606
 8481TIP3   OH249637   2.072   0.634   2.654 -0.0529 -0.1217 -0.6580
 8481TIP3    H149638   2.046   0.576   2.726 -0.7668 -2.8237 -2.8945
 8481TIP3    H249639   2.168   0.636   2.657 -0.0266 -1.2308 -0.3309
 8482TIP3   OH249640   6.142   2.737   3.050 -0.1679 -0.9467 -0.3853
 8482TIP3    H149641   6.098   2.661   3.013  0.7295 -1.7133  0.0995
 8482TIP3    H249642   6.177   2.707   3.134 -2.3241  0.7941  1.2531
 8483TIP3   OH249643   6.636   5.626   2.118 -0.1112 -0.1164 -0.3371
 8483TIP3    H149644   6.576   5.691   2.080 -0.3405  0.2114  0.5578
 8483TIP3    H249645   6.629   5.640   2.212  0.6217 -0.7597 -0.1821
 8484TIP3   OH249646   6.458   1.222   1.759 -0.2212 -0.6537  0.4273
 8484TIP3    H149647   6.547   1.258   1.752 -0.3225 -0.2474  1.1377
 8484TIP3    H249648   6.459   1.173   1.842 -0.3927 -1.4296 -0.0199
 8485TIP3   OH249649   4.252   6.769   0.890  0.4962 -0.4916  0.4519
 8485TIP3    H149650   4.231   6.862   0.877  3.6657  0.5475  1.6979
 8485TIP3    H249651   4.285   6.740   0.805  1.7490  0.2710  0.6506
 8486TIP3   OH249652   5.279   2.805   0.679  0.0515 -0.1821  0.5611
 8486TIP3    H149653   5.229   2.731   0.645  0.5380 -1.2100  1.9640
 8486TIP3    H249654   5.302   2.779   0.768  2.1928  0.6731  0.3236
 8487TIP3   OH249655   4.048   6.262   1.539 -0.1706 -0.0229 -0.5449
 8487TIP3    H149656   4.045   6.196   1.608 -0.1982  0.9813  0.4409
 8487TIP3    H249657   3.972   6.243   1.484 -0.5259 -0.4395  0.0869
 8488TIP3   OH249658   2.973   3.982   2.656 -0.6129  0.2921  0.1336
 8488TIP3    H149659   3.058   3.994   2.700 -1.4579 -0.4751  2.1380
 8488TIP3    H249660   2.958   3.887   2.660 -1.0514  0.2878 -1.2493
 8489TIP3   OH249661   5.673   3.063   3.214  0.2066 -0.3047  0.5877
 8489TIP3    H149662   5.744   3.125   3.195  1.1356 -1.3256  0.5799
 8489TIP3    H249663   5.610   3.114   3.264  1.2721  0.4798  1.1868
 8490TIP3   OH249664   6.559   1.401   2.747 -0.3013  0.0137  0.7358
 8490TIP3    H149665   6.636   1.457   2.745  1.1924 -1.8720  1.5283
 8490TIP3    H249666   6.558   1.364   2.835 -1.2028 -1.1719  0.2638
 8491TIP3   OH249667   1.073   2.740   1.868 -0.2504 -0.3661  0.0605
 8491TIP3    H149668   0.991   2.787   1.850 -0.5448 -1.0084 -0.2916
 8491TIP3    H249669   1.064   2.710   1.958  0.2540  0.8707  0.5537
 8492TIP3   OH249670   2.864   0.304   2.569 -0.6518 -0.5393  0.4287
 8492TIP3    H149671   2.956   0.291   2.549 -0.8967 -0.9966 -0.4452
 8492TIP3    H249672   2.826   0.216   2.567 -1.3441 -0.2432 -0.4538
 8493TIP3   OH249673   1.084   2.298   2.592  0.2094  0.1620  0.1652
 8493TIP3    H149674   1.159   2.343   2.631  1.5312 -0.4661 -1.5305
 8493TIP3    H249675   1.023   2.285   2.665  1.0341  2.0846  1.2852
 8494TIP3   OH249676   2.240   4.371   3.495  0.4707 -0.0157 -0.7625
 8494TIP3    H149677   2.174   4.372   3.426  2.2867 -1.7864 -2.6829
 8494TIP3    H249678   2.201   4.317   3.565  0.1175 -1.6743 -2.1669
 8495TIP3   OH249679   4.641   0.693   1.240 -0.4245  0.3882  0.3184
 8495TIP3    H149680   4.629   0.787   1.256 -0.7906  0.1548  1.5014
 8495TIP3    H249681   4.604   0.679   1.153 -0.4815  1.3194  0.1788
 8496TIP3   OH249682   1.059   1.469   1.183 -0.2752 -0.1416  0.3193
 8496TIP3    H149683   1.116   1.513   1.246  2.5670 -1.0841 -1.4277
 8496TIP3    H249684   0.980   1.448   1.234 -0.1544  3.3243  2.2239
 8497TIP3   OH249685   2.485   3.979   3.067  0.5136  0.4815  0.0034
 8497TIP3    H149686   2.522   3.916   3.128  0.1861  0.5026  0.2245
 8497TIP3    H249687   2.555   3.995   3.004  1.5012  1.7867  1.3582
 8498TIP3   OH249688   0.025   6.061   1.879  0.0050 -0.3515 -0.3426
 8498TIP3    H149689   0.044   6.054   1.973 -1.7245 -1.5958 -0.0245
 8498TIP3    H249690  -0.010   5.975   1.856 -0.5987  0.2840 -1.8993
 8499TIP3   OH249691   2.341   5.958   1.532  0.3868 -0.2246  0.2468
 8499TIP3    H149692   2.432   5.967   1.504 -0.0507 -0.0466 -1.1858
 8499TIP3    H249693   2.291   5.950   1.451 -0.9024 -0.1459  0.9977
 8500TIP3   OH249694   1.384   6.417   0.642 -0.9774 -0.0606 -0.3075
 8500TIP3    H149695   1.383   6.490   0.580 -0.8125  0.9904  0.8593
 8500TIP3    H249696   1.295   6.414   0.677 -0.6587  0.4686  0.5967
 8501TIP3   OH249697   0.238   2.300   2.121  0.0940  0.0432 -0.8034
 8501TIP3    H149698   0.329   2.270   2.129  0.2511  0.1155 -2.1043
 8501TIP3    H249699   0.240   2.364   2.049 -0.9867  0.0276 -0.8618
 8502TIP3   OH249700   5.923   6.786   2.526 -0.0467 -0.0501  0.4340
 8502TIP3    H149701   5.939   6.703   2.570 -1.4232  0.4913  2.0226
 8502TIP3    H249702   5.866   6.764   2.452  1.0593 -0.7442 -0.2435
 8503TIP3   OH249703   2.905   0.584   1.102  0.4312 -0.1219 -0.2301
 8503TIP3    H149704   2.853   0.549   1.175  1.0461  2.2713  1.4832
 8503TIP3    H249705   2.927   0.673   1.129  2.6136  0.0930 -2.3911
 8504TIP3   OH249706   3.226   4.782   3.084  0.6285 -0.2820  0.4981
 8504TIP3    H149707   3.320   4.798   3.090  0.3887  1.3934  0.3129
 8504TIP3    H249708   3.190   4.865   3.051 -0.8843 -0.9625  0.3758
 8505TIP3   OH249709   1.824   2.523   1.785  0.4918  0.3802  0.4868
 8505TIP3    H149710   1.854   2.550   1.698  1.6841  0.4694  0.9050
 8505TIP3    H249711   1.830   2.427   1.783 -3.2915 -0.0031 -0.8371
 8506TIP3   OH249712   6.792   2.881   2.001  0.5533  0.2932  0.3629
 8506TIP3    H149713   6.808   2.815   1.933 -0.9702 -1.3573  1.5154
 8506TIP3    H249714   6.873   2.931   2.005  0.7975  0.2442 -2.4209
 8507TIP3   OH249715   0.702   1.958   1.678  0.4857  0.4282  0.0380
 8507TIP3    H149716   0.611   1.937   1.698  1.1126 -1.0545  1.4930
 8507TIP3    H249717   0.710   1.940   1.584 -0.7221  0.6425 -0.1216
 8508TIP3   OH249718   3.905   1.861   1.955  0.3906 -0.2728  0.0933
 8508TIP3    H149719   3.908   1.835   1.863 -1.1164  0.5111 -0.2186
 8508TIP3    H249720   3.935   1.952   1.956  0.2552 -0.2280  0.3379
 8509TIP3   OH249721   3.281   1.123   3.655 -0.4793  0.2887 -0.4121
 8509TIP3    H149722   3.376   1.117   3.658 -0.3699  1.8502  0.0401
 8509TIP3    H249723   3.253   1.039   3.618  0.8873 -1.3263  1.9620
 8510TIP3   OH249724   6.279   1.148   2.183  0.0873 -0.3164  0.1504
 8510TIP3    H149725   6.345   1.138   2.115  0.5258  0.5721  0.4280
 8510TIP3    H249726   6.303   1.230   2.228 -1.7539  0.5584 -0.3650
 8511TIP3   OH249727   6.025   5.206   3.047  0.5144  0.3510  0.4752
 8511TIP3    H149728   6.079   5.154   2.987  0.3884  0.5271  0.2120
 8511TIP3    H249729   6.009   5.147   3.121  0.9377  0.2422  0.4865
 8512TIP3   OH249730   5.434   5.992   2.412  0.1779  0.2866 -0.1739
 8512TIP3    H149731   5.364   6.020   2.352  1.0287 -1.3211 -1.9915
 8512TIP3    H249732   5.514   5.999   2.361  0.9715 -0.9331  0.8517
 8513TIP3   OH249733   1.366   4.494   3.083 -0.3901 -0.3038  0.0185
 8513TIP3    H149734   1.297   4.509   3.147 -0.4550 -0.3830 -0.0320
 8513TIP3    H249735   1.370   4.574   3.031 -0.8374 -0.5163 -0.3499
 8514TIP3   OH249736   2.993   2.246   2.852 -0.0830 -0.0178 -0.4201
 8514TIP3    H149737   3.054   2.223   2.782  0.7474  1.0802 -0.0804
 8514TIP3    H249738   2.907   2.223   2.817  0.0932  2.2371 -2.6111
 8515TIP3   OH249739   6.163   2.512   2.262  0.6651  0.7316 -0.2472
 8515TIP3    H149740   6.198   2.585   2.210  1.2276 -0.3777 -1.4852
 8515TIP3    H249741   6.240   2.461   2.286  0.1060 -0.7821 -1.5042
 8516TIP3   OH249742   2.717   6.708   3.817 -0.0961 -0.0406  0.0788
 8516TIP3    H149743   2.712   6.634   3.756  2.2229  0.4543 -0.7850
 8516TIP3    H249744   2.635   6.756   3.804 -2.0474 -2.7741  1.1985
 8517TIP3   OH249745   1.141   4.127   1.763  0.6106 -0.3814  0.0125
 8517TIP3    H149746   1.051   4.129   1.797  0.3240 -3.7333 -0.2244
 8517TIP3    H249747   1.139   4.187   1.688 -0.8038  1.2126  1.2250
 8518TIP3   OH249748   5.164   0.014   3.437 -0.2046  0.0119 -0.3234
 8518TIP3    H149749   5.188   0.053   3.521 -3.4754  2.3619 -0.2755
 8518TIP3    H249750   5.111   0.081   3.393  0.2149 -1.6441 -3.7003
 8519TIP3   OH249751   3.148   5.290   3.599 -0.1997 -0.1273  0.2604
 8519TIP3    H149752   3.137   5.292   3.694 -0.2051 -1.3757  0.2989
 8519TIP3    H249753   3.230   5.337   3.584 -0.4283  0.4812  0.8317
 8520TIP3   OH249754   5.608   1.258   2.583  0.1560 -0.1053 -0.6669
 8520TIP3    H149755   5.688   1.309   2.596 -0.8946  1.5437 -0.3489
 8520TIP3    H249756   5.635   1.167   2.594  2.2865  0.2861 -2.1498
 8521TIP3   OH249757   5.841   6.071   2.493  0.6495 -0.6360 -0.1510
 8521TIP3    H149758   5.915   6.114   2.535 -0.1021  1.9783 -1.2510
 8521TIP3    H249759   5.873   6.048   2.406  0.3634 -0.0025 -0.4333
 8522TIP3   OH249760   0.780   2.044   3.033 -0.0555 -0.3083  0.0305
 8522TIP3    H149761   0.855   2.001   3.073  0.6848 -0.1419 -1.1344
 8522TIP3    H249762   0.764   1.996   2.952 -0.4059  0.4209 -0.3515
 8523TIP3   OH249763   0.043   3.256   2.285 -0.2129 -0.3494  0.0617
 8523TIP3    H149764  -0.037   3.238   2.236 -0.7490 -0.1514  0.8530
 8523TIP3    H249765   0.069   3.344   2.255  0.0707 -0.6726 -0.6652
 8524TIP3   OH249766   5.282   4.863   3.117  0.2333  0.4445  0.4525
 8524TIP3    H149767   5.288   4.943   3.064 -0.6765  0.9918  1.1422
 8524TIP3    H249768   5.219   4.884   3.186 -2.9063 -2.0017 -1.4112
 8525TIP3   OH249769   0.297   4.514   1.579 -0.5024 -0.0763 -0.3095
 8525TIP3    H149770   0.282   4.598   1.623 -1.2628 -1.1467  1.5941
 8525TIP3    H249771   0.355   4.466   1.638 -0.5684 -1.1192 -1.0684
 8526TIP3   OH249772   2.915   3.413   2.756 -0.5710 -0.2065 -0.1078
 8526TIP3    H149773   2.990   3.467   2.783 -1.1270  1.1245 -1.1263
 8526TIP3    H249774   2.948   3.362   2.682 -0.2425 -0.7845  0.4250
 8527TIP3   OH249775   3.950   6.212   0.879 -0.1985 -0.3913  0.0644
 8527TIP3    H149776   3.969   6.157   0.954 -2.3790 -1.1905  0.1145
 8527TIP3    H249777   3.959   6.302   0.911  1.5135 -0.6983  0.5043
 8528TIP3   OH249778   4.432   1.516   3.208 -0.1725 -0.0481  0.1141
 8528TIP3    H149779   4.430   1.473   3.293  0.7159 -1.6164 -0.6200
 8528TIP3    H249780   4.341   1.535   3.189 -0.3552  0.6705  1.5671
 8529TIP3   OH249781   3.421   2.050   2.980  0.7769  0.0793 -0.3884
 8529TIP3    H149782   3.492   2.061   3.044  0.4860  0.3714 -0.1119
 8529TIP3    H249783   3.392   2.139   2.961  0.9597  0.0067 -1.0500
 8530TIP3   OH249784   5.016   1.934   3.141 -0.6682  0.2533 -0.0584
 8530TIP3    H149785   4.978   1.850   3.116 -2.1220  1.1576 -1.0496
 8530TIP3    H249786   5.100   1.937   3.095 -1.5119  0.1722 -1.6589
 8531TIP3   OH249787   2.177   4.746   2.222  0.3669  0.1019 -0.1744
 8531TIP3    H149788   2.102   4.793   2.186 -0.6926 -0.4553  1.2027
 8531TIP3    H249789   2.237   4.814   2.250  0.8812  0.5492 -2.2229
 8532TIP3   OH249790   3.228   0.326   3.958  0.4184  0.3826 -0.0736
 8532TIP3    H149791   3.136   0.321   3.932  0.0673 -0.5140  1.2727
 8532TIP3    H249792   3.249   0.237   3.988  0.6962  1.3577  2.9069
 8533TIP3   OH249793   5.429   6.273   1.843  0.1736 -0.0278  0.1691
 8533TIP3    H149794   5.367   6.294   1.914 -1.0143  2.6513 -1.4989
 8533TIP3    H249795   5.515   6.294   1.879 -0.2234 -0.3991  1.3798
 8534TIP3   OH249796   0.370   5.867   3.890  0.1576 -0.0782 -0.7315
 8534TIP3    H149797   0.447   5.818   3.864  2.5944  1.1831  3.1522
 8534TIP3    H249798   0.317   5.804   3.940  0.7893 -0.0044  0.0525
 8535TIP3   OH249799   6.447   5.834   2.122 -0.1311  0.4752  0.1967
 8535TIP3    H149800   6.444   5.904   2.056 -1.3237  0.0807 -0.1932
 8535TIP3    H249801   6.448   5.880   2.206  3.0279  1.0436 -0.0297
 8536TIP3   OH249802   0.613   4.365   3.329 -0.2918 -0.0723  0.3132
 8536TIP3    H149803   0.652   4.337   3.246 -1.1071 -1.1675  0.2774
 8536TIP3    H249804   0.648   4.304   3.394  3.2293  2.8748  1.5661
 8537TIP3   OH249805   0.725   4.883   2.796  0.0093 -0.2946 -0.4677
 8537TIP3    H149806   0.704   4.868   2.704  2.3796 -1.3107 -0.9041
 8537TIP3    H249807   0.743   4.977   2.801  0.0970 -0.2747 -1.1018
 8538TIP3   OH249808   6.161   1.213   1.845 -0.0987 -0.0194 -0.2594
 8538TIP3    H149809   6.257   1.205   1.846 -0.0965 -0.0274  1.5712
 8538TIP3    H249810   6.146   1.307   1.834  0.0946 -0.0305 -0.6815
 8539TIP3   OH249811   0.347   6.200   2.099 -0.3768 -0.2654  0.1668
 8539TIP3    H149812   0.302   6.171   2.020  0.6721 -1.5984  0.0222
 8539TIP3    H249813   0.355   6.121   2.152  0.6853  0.1978  0.7143
 8540TIP3   OH249814   4.699   1.600   2.873 -0.1795 -0.4762 -0.1626
 8540TIP3    H149815   4.711   1.652   2.794  0.0839  0.5118  0.5083
 8540TIP3    H249816   4.674   1.663   2.940 -3.2103 -1.6246 -0.0479
 8541TIP3   OH249817   2.708   6.590   0.641  0.4131 -0.0449 -0.5165
 8541TIP3    H149818   2.671   6.609   0.727 -1.0570  0.8387 -1.2852
 8541TIP3    H249819   2.661   6.513   0.611 -2.1644  1.9968 -2.1621
 8542TIP3   OH249820   5.612   1.959   2.707  0.1156 -0.2108  0.2802
 8542TIP3    H149821   5.677   1.979   2.774  1.4184 -1.5720 -0.5074
 8542TIP3    H249822   5.656   1.896   2.649 -1.7777 -0.8895 -0.5053
 8543TIP3   OH249823   3.187   3.574   2.242 -0.5862  0.1626 -0.3522
 8543TIP3    H149824   3.136   3.520   2.183 -1.7229 -0.4125  1.0964
 8543TIP3    H249825   3.278   3.552   2.223 -1.0139 -2.8664  0.6600
 8544TIP3   OH249826   3.903   5.755   1.865 -0.4113  0.2294 -0.0572
 8544TIP3    H149827   3.903   5.820   1.936 -2.8736 -1.1127  1.2930
 8544TIP3    H249828   3.955   5.682   1.899 -1.2835 -0.2620  0.2490
 8545TIP3   OH249829   3.685   2.030   0.999  0.6452  0.1371  0.4455
 8545TIP3    H149830   3.761   2.036   0.942  1.1055 -1.7263  0.8015
 8545TIP3    H249831   3.717   2.058   1.085 -0.1668  3.4179 -0.1942
 8546TIP3   OH249832   2.514   3.992   3.909 -0.1898 -0.2541  0.6264
 8546TIP3    H149833   2.581   4.041   3.862 -0.8470  1.5684  1.4537
 8546TIP3    H249834   2.563   3.939   3.972  0.5307 -0.2149  0.1157
 8547TIP3   OH249835   0.919   4.228   1.994 -0.5722 -0.2326 -0.3296
 8547TIP3    H149836   0.980   4.280   2.047  1.1884 -2.3156 -0.1950
 8547TIP3    H249837   0.895   4.155   2.050 -1.5875 -0.5391 -1.1361
 8548TIP3   OH249838   6.220   4.450   0.680 -0.0082  0.0516  0.0345
 8548TIP3    H149839   6.137   4.460   0.633  0.1127  1.0359 -0.0023
 8548TIP3    H249840   6.270   4.528   0.656  0.4364  0.0901  1.0331
 8549TIP3   OH249841   5.688   2.035   3.098  0.1439 -0.5853  0.0139
 8549TIP3    H149842   5.611   2.084   3.069  0.2349 -1.7601 -2.5756
 8549TIP3    H249843   5.761   2.095   3.081  0.0625 -0.7419 -0.9909
 8550TIP3   OH249844   6.791   3.583  11.019 -0.1978 -0.4905 -0.2784
 8550TIP3    H149845   6.811   3.501  10.973 -1.2944 -0.9059 -0.0509
 8550TIP3    H249846   6.784   3.558  11.111  0.3797  0.0368 -0.0865
 8551TIP3   OH249847   4.072   1.612   3.626 -0.5634  0.5308  0.1276
 8551TIP3    H149848   4.041   1.642   3.540 -2.7088 -3.0522 -0.5656
 8551TIP3    H249849   4.167   1.604   3.616 -0.7439  0.4218 -1.8584
 8552TIP3   OH249850   0.219   2.883   2.799 -0.2192 -0.0437  0.0813
 8552TIP3    H149851   0.211   2.923   2.886 -1.4846  0.2839 -0.1745
 8552TIP3    H249852   0.214   2.789   2.817 -0.3237  0.0164  0.3877
 8553TIP3   OH249853   6.254   5.154   0.594  0.1017  0.6721  0.7499
 8553TIP3    H149854   6.181   5.094   0.608  0.8401 -0.4556 -0.0274
 8553TIP3    H249855   6.322   5.100   0.555  1.6472  1.5167  2.1367
 8554TIP3   OH249856   6.595   2.049   1.220 -0.2944  0.0188  0.1624
 8554TIP3    H149857   6.685   2.076   1.238 -0.4817  1.0439 -0.3635
 8554TIP3    H249858   6.596   2.024   1.127 -0.1408 -1.7878  0.6174
 8555TIP3   OH249859   2.532   4.555   1.113 -0.2841  0.1127 -0.0459
 8555TIP3    H149860   2.477   4.633   1.117 -1.8663 -0.8032 -2.1196
 8555TIP3    H249861   2.610   4.584   1.064  0.3917  0.9980  1.4844
 8556TIP3   OH249862   6.481   3.276   1.680 -0.3573 -0.0187 -0.1723
 8556TIP3    H149863   6.482   3.207   1.613 -1.3237 -0.5575  0.3565
 8556TIP3    H249864   6.486   3.358   1.630  0.5640 -0.4506 -0.8214
 8557TIP3   OH249865   2.994   2.782   2.277 -0.4473  0.3575  0.1597
 8557TIP3    H149866   3.088   2.785   2.260 -0.0147  0.3286  2.2826
 8557TIP3    H249867   2.978   2.856   2.337 -1.3247 -0.9993  1.6842
 8558TIP3   OH249868   4.567   6.661   1.888  0.1712 -0.4242  0.5727
 8558TIP3    H149869   4.483   6.705   1.897  0.4528  0.3039 -0.2019
 8558TIP3    H249870   4.595   6.681   1.799  0.2260 -2.3458  0.1234
 8559TIP3   OH249871   1.203   5.644   3.658  0.5998  0.6339  0.1582
 8559TIP3    H149872   1.118   5.686   3.675  1.1320  1.9651 -0.3648
 8559TIP3    H249873   1.265   5.692   3.713  1.5143  1.7828 -1.7437
 8560TIP3   OH249874   0.067   2.663   1.465 -0.5633  0.2515 -0.3005
 8560TIP3    H149875   0.008   2.731   1.433 -0.1822  1.1788  0.9076
 8560TIP3    H249876   0.120   2.706   1.532  0.0831 -1.0924  0.0920
 8561TIP3   OH249877   5.597   5.741   0.548 -1.1194 -0.2344 -0.2424
 8561TIP3    H149878   5.516   5.762   0.501  0.7129  0.1116 -3.5692
 8561TIP3    H249879   5.615   5.650   0.524 -0.6674 -0.4062  0.7161
 8562TIP3   OH249880   2.159   4.822  11.585 -0.0815 -0.0050  0.4233
 8562TIP3    H149881   2.201   4.743  11.621 -0.5605 -0.4443  0.0420
 8562TIP3    H249882   2.136   4.798  11.495  0.6631  0.9163 -0.0288
 8563TIP3   OH249883   4.159   5.166   0.800 -0.4786  0.0942 -0.0321
 8563TIP3    H149884   4.067   5.154   0.776 -0.4686 -0.9236  0.4059
 8563TIP3    H249885   4.193   5.078   0.810  0.5083  0.4684 -0.0106
 8564TIP3   OH249886   5.182   1.518   0.703  0.6334  0.3068 -0.1948
 8564TIP3    H149887   5.136   1.551   0.779 -1.8957 -0.4447 -1.2905
 8564TIP3    H249888   5.167   1.584   0.635  0.3473 -0.4082 -0.8387
 8565TIP3   OH249889   5.472   3.774   1.331 -0.3957 -0.3703 -0.1870
 8565TIP3    H149890   5.550   3.773   1.275  0.4619  0.7311  0.9355
 8565TIP3    H249891   5.497   3.724   1.408 -0.2464  1.2101  0.8315
 8566TIP3   OH249892   5.021   4.505   1.999  0.3775 -0.2779 -0.0424
 8566TIP3    H149893   5.114   4.493   1.978  0.7850  1.2025  0.7645
 8566TIP3    H249894   5.001   4.594   1.970 -1.3036 -1.1396 -1.8292
 8567TIP3   OH249895   3.225   2.163   3.314 -0.2886  0.4980 -0.4665
 8567TIP3    H149896   3.165   2.228   3.277 -1.9828 -0.3320  0.6702
 8567TIP3    H249897   3.199   2.081   3.273  0.2599  0.1622 -0.1441
 8568TIP3   OH249898   1.692   6.753   1.825  0.1874  0.9904 -0.2551
 8568TIP3    H149899   1.729   6.826   1.775 -0.3418  1.9753  0.7427
 8568TIP3    H249900   1.735   6.759   1.911 -1.0130  1.1175  0.3619
 8569TIP3   OH249901   1.844   1.484   0.956  0.3853  0.5066 -0.3739
 8569TIP3    H149902   1.920   1.521   1.000 -0.5276 -0.7270  2.4577
 8569TIP3    H249903   1.872   1.398   0.927 -0.1086 -0.3458  1.5259
 8570TIP3   OH249904   4.167   0.406   3.142  0.1097 -0.1896 -0.1017
 8570TIP3    H149905   4.082   0.393   3.184  0.7450 -0.1881  1.2604
 8570TIP3    H249906   4.229   0.361   3.200  0.8983 -1.2833 -1.7332
 8571TIP3   OH249907   4.188   3.676   0.620 -0.5456 -0.5688 -0.0530
 8571TIP3    H149908   4.152   3.641   0.539  4.0219 -0.2553 -2.5177
 8571TIP3    H249909   4.250   3.610   0.650  0.9540  1.1210  0.7802
 8572TIP3   OH249910   5.479   2.207   3.073  0.8335  0.2118  0.2178
 8572TIP3    H149911   5.454   2.283   3.126 -0.8294 -0.8901  1.0711
 8572TIP3    H249912   5.458   2.233   2.984 -1.8513  0.0055  0.7106
 8573TIP3   OH249913   2.595   3.654   2.272 -0.2822 -0.2576 -0.0152
 8573TIP3    H149914   2.607   3.668   2.178 -0.1089 -0.6528 -0.0567
 8573TIP3    H249915   2.654   3.716   2.314 -1.3151  0.8375 -0.1361
 8574TIP3   OH249916   5.704   3.180   1.870  0.0659 -0.0680 -0.0442
 8574TIP3    H149917   5.628   3.146   1.822  1.5002  0.0220 -2.5663
 8574TIP3    H249918   5.711   3.271   1.842  0.4118  0.2635  1.0998
 8575TIP3   OH249919   4.703   3.374   1.249  0.1642 -0.5033 -0.3166
 8575TIP3    H149920   4.737   3.426   1.177 -0.1358 -1.1846 -0.9651
 8575TIP3    H249921   4.781   3.338   1.291  0.3527  0.1108 -0.1317
 8576TIP3   OH249922   0.857   6.748   0.969 -0.3296  0.4095  0.1990
 8576TIP3    H149923   0.783   6.802   0.998 -0.6599  0.0039  0.1247
 8576TIP3    H249924   0.859   6.759   0.874  1.8971  3.2128  0.4352
 8577TIP3   OH249925   4.337   6.604   3.750 -1.0047  0.6235  0.0264
 8577TIP3    H149926   4.309   6.579   3.838 -1.5031 -0.9051 -0.5430
 8577TIP3    H249927   4.398   6.535   3.723 -0.7051  1.1732 -0.7537
 8578TIP3   OH249928   3.954   2.236   3.492  0.1659 -0.3085  0.5976
 8578TIP3    H149929   4.002   2.293   3.552 -0.1711 -1.3112  1.8584
 8578TIP3    H249930   4.021   2.183   3.450  0.5079  1.1041 -0.7537
 8579TIP3   OH249931   4.598   1.120   3.935  0.3634 -0.0392 -0.5252
 8579TIP3    H149932   4.642   1.204   3.919 -0.2994  0.1277 -1.6011
 8579TIP3    H249933   4.648   1.057   3.883 -0.3482  0.0678 -1.3679
 8580TIP3   OH249934   6.719   1.307   1.738  0.0674  0.0384  0.0190
 8580TIP3    H149935   6.765   1.266   1.811 -0.8643 -1.8433 -0.3889
 8580TIP3    H249936   6.770   1.386   1.719  1.6012 -0.6011  1.2290
 8581TIP3   OH249937   5.275   3.191   2.546 -0.2734 -0.2134 -0.0276
 8581TIP3    H149938   5.222   3.247   2.489 -1.0886 -2.4350 -1.5828
 8581TIP3    H249939   5.215   3.165   2.616 -0.3764 -0.4472 -0.2038
 8582TIP3   OH249940   0.004   4.389   1.895  0.0669  0.1238 -0.0063
 8582TIP3    H149941   0.060   4.438   1.954  0.3482 -1.3947  1.0620
 8582TIP3    H249942  -0.083   4.393   1.936  0.3912 -1.4699  0.9125
 8583TIP3   OH249943   6.442   4.622   2.695 -0.2347 -0.2234  0.7464
 8583TIP3    H149944   6.521   4.658   2.736  0.1768 -0.2620 -0.0088
 8583TIP3    H249945   6.409   4.559   2.759  0.0179  0.2101  1.3189
 8584TIP3   OH249946   2.526   5.301   2.798  0.2045  0.2920 -0.1572
 8584TIP3    H149947   2.582   5.254   2.860  0.4296  1.1312  0.2925
 8584TIP3    H249948   2.541   5.393   2.818 -0.4796  0.5499 -0.8032
 8585TIP3   OH249949   4.812   3.985   1.190  0.0804  0.0295  0.2635
 8585TIP3    H149950   4.827   4.064   1.138 -0.6135 -0.1074 -0.1486
 8585TIP3    H249951   4.894   3.936   1.182  0.2192  0.3234 -0.1575
 8586TIP3   OH249952   5.001   0.979   0.960 -0.2523  0.6437 -0.2140
 8586TIP3    H149953   4.941   0.976   0.886 -0.5509  0.0023  0.0404
 8586TIP3    H249954   4.994   0.891   1.000 -0.1835  1.0095  0.6325
 8587TIP3   OH249955   5.694   3.031   2.702  0.0230 -0.3260  0.7201
 8587TIP3    H149956   5.764   2.978   2.738  0.4839 -2.0701 -2.3453
 8587TIP3    H249957   5.732   3.118   2.691  1.5320 -1.0748 -0.2622
 8588TIP3   OH249958   3.657   4.122   1.879  0.1754  0.0081  0.6877
 8588TIP3    H149959   3.582   4.181   1.869  0.5110  0.2286 -0.9063
 8588TIP3    H249960   3.715   4.168   1.940  0.5496  1.5198 -0.7234
 8589TIP3   OH249961   5.347   0.843   4.060 -0.2102  0.7340 -0.2437
 8589TIP3    H149962   5.292   0.806   4.130  1.2077  1.2504  1.2196
 8589TIP3    H249963   5.397   0.769   4.027  0.6654  0.8076  0.8228
 8590TIP3   OH249964   5.623   3.507   2.487  0.4951 -0.2102 -0.5488
 8590TIP3    H149965   5.556   3.442   2.506  0.5152  0.1231  0.7738
 8590TIP3    H249966   5.663   3.478   2.405 -1.0980 -0.5349 -1.2394
 8591TIP3   OH249967   1.621   3.597   2.282  0.5485  0.1113  0.2094
 8591TIP3    H149968   1.542   3.561   2.322  1.3757  1.2113  3.0189
 8591TIP3    H249969   1.591   3.674   2.235 -0.0228  0.8464  1.7206
 8592TIP3   OH249970   5.437   3.121   2.779  0.1532  0.0332  1.0863
 8592TIP3    H149971   5.393   3.121   2.694  0.7862  0.9373  0.7532
 8592TIP3    H249972   5.516   3.068   2.766  0.9389  1.2720  0.7399
 8593TIP3   OH249973   6.527   2.110   1.966  0.3517 -0.0954  0.2624
 8593TIP3    H149974   6.605   2.055   1.971 -0.5172 -1.6045 -1.4286
 8593TIP3    H249975   6.510   2.118   1.872  1.3517  4.5402  0.2711
 8594TIP3   OH249976   4.533   2.789   1.807  0.1627 -0.9375  0.1911
 8594TIP3    H149977   4.450   2.833   1.784  0.3205 -1.6291 -1.9568
 8594TIP3    H249978   4.599   2.833   1.754  1.2541 -0.2993  1.9908
 8595TIP3   OH249979   3.673   1.254   0.991  0.2068 -0.1329  0.0979
 8595TIP3    H149980   3.645   1.309   1.064  2.0869  1.8658 -0.5820
 8595TIP3    H249981   3.756   1.216   1.020 -0.7612 -2.2278  0.3108
 8596TIP3   OH249982   6.349   1.375   1.584  0.1320  0.0317 -0.2517
 8596TIP3    H149983   6.391   1.309   1.639  0.0304  0.5777  0.4999
 8596TIP3    H249984   6.306   1.434   1.646 -0.4959  0.3172 -0.9478
 8597TIP3   OH249985   4.726   4.939   3.645 -0.0664  0.1677 -0.2279
 8597TIP3    H149986   4.739   4.980   3.730  1.5527 -0.0888 -0.3083
 8597TIP3    H249987   4.808   4.891   3.629 -0.2652  0.3456 -1.9828
 8598TIP3   OH249988   3.721   2.317   0.730 -0.3203  0.0004 -0.3001
 8598TIP3    H149989   3.788   2.249   0.735  0.0101  0.2696 -0.8405
 8598TIP3    H249990   3.642   2.276   0.763  0.4857  0.1833  2.0532
 8599TIP3   OH249991   6.723   2.519   1.709  0.4269  0.6436 -0.6542
 8599TIP3    H149992   6.650   2.559   1.755 -0.7920 -0.2883 -1.6945
 8599TIP3    H249993   6.727   2.567   1.626  0.5700  0.2749 -0.8632
 8600TIP3   OH249994   1.572   6.692   1.338  0.2368  0.0289  0.2427
 8600TIP3    H149995   1.512   6.744   1.391  1.3621  1.4332  0.1798
 8600TIP3    H249996   1.516   6.629   1.293 -1.2050  1.3785  0.0931
 8601TIP3   OH249997   5.044   5.747   1.673  0.2836  0.5415  0.2319
 8601TIP3    H149998   5.011   5.721   1.587  2.5664 -1.5095 -0.1084
 8601TIP3    H249999   5.086   5.832   1.657 -1.1114  1.1989 -0.1657
 8602TIP3   OH250000   4.013   4.325   1.391  0.5839  0.2367  0.2438
 8602TIP3    H150001   3.989   4.348   1.480  1.2337 -1.6772  0.9515
 8602TIP3    H250002   4.014   4.409   1.344 -0.1636  1.2198  1.9102
 8603TIP3   OH250003   0.924   6.395   3.703 -0.1923 -0.5230  0.4610
 8603TIP3    H150004   0.854   6.451   3.668 -0.6205 -0.9164  0.6764
 8603TIP3    H250005   0.961   6.446   3.776  0.4188  0.1136 -0.2787
 8604TIP3   OH250006   1.365   5.838   3.752  0.6854  0.5030  0.3910
 8604TIP3    H150007   1.329   5.921   3.718  1.4707  0.2089 -1.2350
 8604TIP3    H250008   1.460   5.852   3.754  0.7870 -0.1824  0.5777
 8605TIP3   OH250009   4.303   1.109   3.945 -0.4344  0.1622  0.4206
 8605TIP3    H150010   4.258   1.028   3.924 -0.4075  0.6738 -1.9455
 8605TIP3    H250011   4.394   1.093   3.921 -0.7153  1.3388 -1.6303
 8606TIP3   OH250012   4.286   4.305   1.758 -0.1636  0.4614 -0.2534
 8606TIP3    H150013   4.272   4.398   1.740 -0.9897  0.0452 -1.9317
 8606TIP3    H250014   4.233   4.288   1.836  0.7130  1.5692  0.6244
 8607TIP3   OH250015   4.608   2.859   0.914 -0.4868 -0.5219 -0.4050
 8607TIP3    H150016   4.564   2.852   0.830  0.2672 -1.5812 -0.7381
 8607TIP3    H250017   4.698   2.830   0.896  0.2765  1.2501  0.3173
 8608TIP3   OH250018   3.351   4.458   1.009 -0.1791 -0.0204  0.2040
 8608TIP3    H150019   3.364   4.447   0.915 -1.5228  1.0204 -0.1308
 8608TIP3    H250020   3.321   4.549   1.019 -1.0293 -0.4144  1.5107
 8609TIP3   OH250021   4.714   4.715   0.770 -0.0225  0.1520 -0.8374
 8609TIP3    H150022   4.726   4.678   0.858  1.1679  2.3856  0.0146
 8609TIP3    H250023   4.659   4.651   0.725 -0.9712 -0.9167  1.6353
 8610TIP3   OH250024   1.243   2.720   1.351 -0.1226 -0.2450  0.0788
 8610TIP3    H150025   1.250   2.815   1.335  0.3699 -0.3292 -0.2068
 8610TIP3    H250026   1.204   2.714   1.438 -2.4310  0.2298 -0.8487
 8611TIP3   OH250027   2.715   3.589   4.073 -0.6459  0.2256 -0.0951
 8611TIP3    H150028   2.802   3.557   4.097  0.3668  1.7084 -1.6104
 8611TIP3    H250029   2.696   3.547   3.989 -0.5370  1.3775 -0.7114
 8612TIP3   OH250030   3.373   5.065   1.556  0.0955  0.0240 -0.4796
 8612TIP3    H150031   3.416   5.150   1.559 -0.8429  0.5168 -0.7662
 8612TIP3    H250032   3.436   5.008   1.512  1.5063  0.0966  1.3391
 8613TIP3   OH250033   1.356   2.213   3.674  0.6203 -0.3884  0.5176
 8613TIP3    H150034   1.343   2.287   3.615  0.5865 -1.2442 -0.5872
 8613TIP3    H250035   1.436   2.234   3.722  2.4083 -0.9724 -1.9664
 8614TIP3   OH250036   0.766   3.687   0.387  0.4786  0.2063  0.1450
 8614TIP3    H150037   0.768   3.713   0.294 -0.1531  3.0449  0.8310
 8614TIP3    H250038   0.674   3.667   0.404  0.6085 -0.3970  0.1744
 8615TIP3   OH250039   3.928   4.274   2.336 -1.1379  0.4578 -0.2102
 8615TIP3    H150040   3.910   4.295   2.428 -0.6425 -1.0303  0.2725
 8615TIP3    H250041   3.996   4.336   2.310  0.4041 -0.5127  1.1902
 8616TIP3   OH250042   6.636   0.022   0.701  0.3897  0.2781  0.2595
 8616TIP3    H150043   6.617  -0.001   0.610  1.6717 -0.8648  0.2646
 8616TIP3    H250044   6.557   0.067   0.730 -0.7242 -0.8476 -0.8958
 8617TIP3   OH250045   4.389   0.304   2.589  0.5240  0.2630  0.1610
 8617TIP3    H150046   4.296   0.285   2.575 -0.4696  2.9519  2.1464
 8617TIP3    H250047   4.414   0.250   2.665  0.4132 -0.0056  0.0076
 8618TIP3   OH250048   0.431   1.266   0.759  0.4405  0.1979 -0.2792
 8618TIP3    H150049   0.426   1.356   0.791 -0.4316  0.4674 -1.1144
 8618TIP3    H250050   0.341   1.234   0.764  0.6342 -0.4079 -0.5756
 8619TIP3   OH250051   3.162   1.906   3.095 -0.4247  0.1012 -0.2254
 8619TIP3    H150052   3.141   1.855   3.017 -1.1660 -2.3257  1.4108
 8619TIP3    H250053   3.248   1.944   3.077 -0.6229 -0.3004 -2.2279
 8620TIP3   OH250054   4.382   4.207   3.093 -0.1699 -0.0497 -0.1656
 8620TIP3    H150055   4.417   4.251   3.171  2.3844 -3.5785  0.9543
 8620TIP3    H250056   4.451   4.218   3.027 -0.1869 -0.9661 -0.3490
 8621TIP3   OH250057   3.346   1.299   1.710  0.3236 -0.1606 -0.4277
 8621TIP3    H150058   3.377   1.247   1.784  0.7715 -0.1072 -0.5789
 8621TIP3    H250059   3.251   1.287   1.711  0.4762 -1.7578 -1.0261
 8622TIP3   OH250060   1.612   5.296   2.289  0.3017  0.0485  0.1671
 8622TIP3    H150061   1.656   5.278   2.372  1.5898  0.3614 -0.4291
 8622TIP3    H250062   1.657   5.241   2.225  0.6442  1.2792 -0.6848
 8623TIP3   OH250063   0.737   3.815   2.987  0.6593  0.2538  0.8332
 8623TIP3    H150064   0.697   3.873   2.923  0.3006 -1.0582 -0.1803
 8623TIP3    H250065   0.700   3.729   2.967  0.3534 -0.1574  2.9589
 8624TIP3   OH250066   2.641   3.907   1.716  0.1790 -0.2121 -0.6886
 8624TIP3    H150067   2.686   3.917   1.800 -0.0043  0.7374 -0.6912
 8624TIP3    H250068   2.672   3.823   1.683 -1.3465 -1.6463  1.2812
 8625TIP3   OH250069   0.652   4.953   1.366  0.3337  0.1791  0.5233
 8625TIP3    H150070   0.563   4.919   1.372  1.2585 -2.2786  1.7893
 8625TIP3    H250071   0.643   5.035   1.316 -2.6743  0.3654  1.1610
 8626TIP3   OH250072   6.388   6.421   2.901  0.6165 -0.1378 -0.0842
 8626TIP3    H150073   6.447   6.433   2.827  0.8971  1.1288  0.3239
 8626TIP3    H250074   6.444   6.426   2.978 -0.0852  1.8900  0.3555
 8627TIP3   OH250075   2.237   6.273   1.474  0.3313  0.3387  0.4372
 8627TIP3    H150076   2.159   6.230   1.440  1.0031  0.1903 -0.9962
 8627TIP3    H250077   2.282   6.206   1.525  1.1555 -0.6240 -1.4298
 8628TIP3   OH250078   5.988   5.658   2.777  0.0506  0.0125  0.4484
 8628TIP3    H150079   5.987   5.595   2.705  2.7046  1.0116 -0.5793
 8628TIP3    H250080   5.998   5.743   2.735  1.9809  0.5951  1.9331
 8629TIP3   OH250081   2.147   0.496   1.110 -0.0246  0.1619 -0.4013
 8629TIP3    H150082   2.141   0.580   1.155 -0.9255  0.5829 -1.2818
 8629TIP3    H250083   2.241   0.482   1.098  0.2098  0.3094  1.0715
 8630TIP3   OH250084   4.593   5.762   0.711  0.1829  0.0737 -0.0447
 8630TIP3    H150085   4.517   5.758   0.769 -0.2637  0.8557 -0.5644
 8630TIP3    H250086   4.644   5.684   0.733 -0.7096 -0.3995  0.3869
 8631TIP3   OH250087   1.633   2.538   1.962  0.8322  0.1598 -0.2254
 8631TIP3    H150088   1.567   2.498   1.905  0.9318  0.8350 -0.8421
 8631TIP3    H250089   1.714   2.535   1.910  1.5346 -1.5304  0.9003
 8632TIP3   OH250090   5.412   2.108   2.584 -0.1336  0.0056  0.5198
 8632TIP3    H150091   5.462   2.188   2.567  1.9329 -1.3293  0.0260
 8632TIP3    H250092   5.472   2.051   2.631 -1.2452 -1.6421  0.0317
 8633TIP3   OH250093   6.611   5.864   2.529  0.4748  0.0774 -0.1940
 8633TIP3    H150094   6.628   5.780   2.487  0.2961 -0.2018  0.2834
 8633TIP3    H250095   6.686   5.919   2.504  1.1560 -0.5678  0.3702
 8634TIP3   OH250096   5.893   1.380   1.565 -0.7237  0.1386  0.3090
 8634TIP3    H150097   5.905   1.404   1.474  0.0685  0.9170  0.6044
 8634TIP3    H250098   5.938   1.296   1.575 -0.4294  0.2710  0.0854
 8635TIP3   OH250099   5.197   5.844   3.186 -0.1423 -0.3955  0.2186
 8635TIP3    H150100   5.251   5.902   3.240 -0.0222  0.8001 -1.1294
 8635TIP3    H250101   5.259   5.801   3.128 -0.3805 -0.9414  0.3607
 8636TIP3   OH250102   5.414   6.743   3.720 -0.1896  0.2573  0.2198
 8636TIP3    H150103   5.463   6.715   3.643 -1.1475  0.1794 -0.3877
 8636TIP3    H250104   5.422   6.838   3.721  0.1235  0.2307  0.2270
 8637TIP3   OH250105   3.285   3.945   2.423 -0.4001  0.4916 -0.4432
 8637TIP3    H150106   3.358   3.902   2.379  0.3081  1.0202  0.1978
 8637TIP3    H250107   3.301   4.038   2.413 -0.8808  0.6155 -0.1349
 8638TIP3   OH250108   6.595   0.420   2.140 -0.2872 -0.4328 -0.3876
 8638TIP3    H150109   6.572   0.424   2.047 -0.6045  0.2330 -0.2862
 8638TIP3    H250110   6.512   0.430   2.186  0.1651  2.6425 -0.0062
 8639TIP3   OH250111   2.985   6.694   0.594 -0.4352  0.1588  0.0932
 8639TIP3    H150112   3.054   6.628   0.585  0.2958  1.0492 -1.0363
 8639TIP3    H250113   2.904   6.643   0.588  0.0774 -0.8887  1.3393
 8640TIP3   OH250114   3.727   4.519   2.020  0.0750  0.4956  0.3171
 8640TIP3    H150115   3.660   4.581   2.048  1.8345  2.5929  0.1346
 8640TIP3    H250116   3.808   4.551   2.061  1.4925 -0.2672 -1.7380
 8641TIP3   OH250117   5.938   5.589   2.065 -0.2835 -0.1840  0.3274
 8641TIP3    H150118   5.929   5.505   2.111  0.1100 -0.1722  0.4376
 8641TIP3    H250119   5.951   5.565   1.973 -0.9948 -0.2109  0.2333
 8642TIP3   OH250120   3.106   6.380   4.203 -0.1902  0.3179  0.5598
 8642TIP3    H150121   3.061   6.465   4.209 -1.0729 -0.1948  1.4858
 8642TIP3    H250122   3.166   6.380   4.277  0.3322  0.4126  0.1442
 8643TIP3   OH250123   2.220   5.344   3.492 -0.5933 -0.3602  0.0639
 8643TIP3    H150124   2.172   5.380   3.567 -0.6284 -0.0828 -0.0933
 8643TIP3    H250125   2.310   5.336   3.524 -0.0429  2.1682 -0.6618
 8644TIP3   OH250126   1.850   4.016   3.534 -0.2140 -0.3617 -0.1254
 8644TIP3    H150127   1.878   3.925   3.546 -0.8083 -0.6897 -1.0585
 8644TIP3    H250128   1.757   4.015   3.558 -0.7812 -0.4994 -2.1392
 8645TIP3   OH250129   6.355   2.958   1.981 -0.4555 -0.6515  0.0770
 8645TIP3    H150130   6.432   2.932   2.031  0.6396  1.5854 -0.3168
 8645TIP3    H250131   6.312   2.876   1.957  1.5936 -1.9392  0.6328
 8646TIP3   OH250132   1.207   5.849   1.324 -0.2261 -0.1530  0.5119
 8646TIP3    H150133   1.147   5.873   1.395 -3.2105  0.2250 -1.9011
 8646TIP3    H250134   1.285   5.901   1.339 -1.4157  1.1837  2.5694
 8647TIP3   OH250135   3.360   0.572   4.114 -0.4391  0.6051  0.0712
 8647TIP3    H150136   3.334   0.647   4.060 -0.9402  1.2843  1.2133
 8647TIP3    H250137   3.288   0.509   4.105 -0.9047  1.0560  0.5596
 8648TIP3   OH250138   2.905   0.654   0.816 -0.4810 -0.2067 -0.7896
 8648TIP3    H150139   2.887   0.606   0.897  1.2668  0.1954 -0.1000
 8648TIP3    H250140   2.889   0.591   0.746 -0.4663 -1.0813 -0.0283
 8649TIP3   OH250141   6.075   4.750   2.778  0.5116 -0.0236 -0.1807
 8649TIP3    H150142   6.018   4.822   2.805  1.3633 -0.1244  2.1230
 8649TIP3    H250143   6.085   4.761   2.684 -3.4794 -0.1922 -0.7652
 8650TIP3   OH250144   3.336   3.198   3.949 -0.7850  0.0571  0.3422
 8650TIP3    H150145   3.365   3.173   3.861 -3.2867 -1.3686 -0.1870
 8650TIP3    H250146   3.361   3.290   3.958  0.4435 -0.0580 -1.4375
 8651TIP3   OH250147   4.512   0.220   4.331  0.3382  0.3249  0.1650
 8651TIP3    H150148   4.419   0.217   4.309  0.0665  0.0201  1.3014
 8651TIP3    H250149   4.553   0.262   4.255 -0.8070  1.0235 -0.0931
 8652TIP3   OH250150   4.914   3.190   2.582 -0.1016  0.5000 -0.1287
 8652TIP3    H150151   4.910   3.286   2.585 -0.7388  0.4596  1.7440
 8652TIP3    H250152   4.851   3.166   2.514  0.4459  1.3933 -0.9956
 8653TIP3   OH250153   2.939   6.136   3.455 -0.1932  0.0866  0.3694
 8653TIP3    H150154   3.013   6.195   3.471  0.4764 -0.7474  0.4021
 8653TIP3    H250155   2.978   6.049   3.449 -0.8036 -0.0940 -2.4303
 8654TIP3   OH250156   3.403   1.924   3.771 -0.0312  0.3672 -0.2005
 8654TIP3    H150157   3.333   1.928   3.836  0.9914  1.0020  0.8994
 8654TIP3    H250158   3.377   1.985   3.703  0.0741  1.6285  0.8547
 8655TIP3   OH250159   5.047   0.953   2.295  0.2279 -0.0669  0.4243
 8655TIP3    H150160   4.957   0.939   2.324  0.2415  0.5012  0.7728
 8655TIP3    H250161   5.058   1.048   2.298  1.3861 -0.2046  2.1324
 8656TIP3   OH250162   5.834   5.730   2.283 -0.1021 -0.0930  0.0407
 8656TIP3    H150163   5.828   5.667   2.211  0.0843 -1.1251  0.9028
 8656TIP3    H250164   5.823   5.815   2.241 -1.3701 -0.7435 -1.0176
 8657TIP3   OH250165   0.732   0.021   1.280  0.5257  0.3065  0.2701
 8657TIP3    H150166   0.730   0.057   1.191  0.2798  0.1551  0.2141
 8657TIP3    H250167   0.645  -0.015   1.293  0.8973 -0.6615  0.1633
 8658TIP3   OH250168   3.956   0.263   1.871 -0.9015  0.0685  0.1600
 8658TIP3    H150169   3.899   0.251   1.795 -0.3065  0.5763 -0.3830
 8658TIP3    H250170   3.899   0.299   1.939 -1.3272  0.1048 -0.2161
 8659TIP3   OH250171   0.984   4.799   3.317  0.1418 -0.3208  0.0692
 8659TIP3    H150172   0.964   4.887   3.285 -0.7004 -1.1883 -2.0099
 8659TIP3    H250173   1.079   4.798   3.330  0.0036  1.2898  1.5709
 8660TIP3   OH250174   6.114   4.337   1.951  1.0019  0.4003 -0.0911
 8660TIP3    H150175   6.077   4.422   1.978  0.6073  0.1686  0.1078
 8660TIP3    H250176   6.119   4.286   2.032 -1.7090 -0.8818 -0.6171
 8661TIP3   OH250177   4.662   4.590   3.332 -0.5128  0.1804 -0.0237
 8661TIP3    H150178   4.748   4.559   3.305 -1.3166 -0.5031 -1.9947
 8661TIP3    H250179   4.671   4.686   3.335  0.3846  0.1002  0.0633
 8662TIP3   OH250180   0.531   2.571   3.559  0.3721  0.3595 -0.3824
 8662TIP3    H150181   0.479   2.589   3.481  0.0284 -0.1293 -0.2675
 8662TIP3    H250182   0.567   2.656   3.583  1.1415  0.3953 -1.5334
 8663TIP3   OH250183   2.340   2.069   0.765 -0.3600  0.2515  0.2175
 8663TIP3    H150184   2.273   2.092   0.701  0.4595  2.5621  0.1160
 8663TIP3    H250185   2.351   2.148   0.819 -0.2065 -1.2168  2.5110
 8664TIP3   OH250186   1.382   4.764   1.603  0.5251 -0.6917  0.4017
 8664TIP3    H150187   1.331   4.718   1.670 -0.0038  0.0376  0.5052
 8664TIP3    H250188   1.440   4.697   1.568 -1.7481 -2.0383 -1.0196
 8665TIP3   OH250189   4.885   1.241   1.839 -0.5419  0.0226  0.2857
 8665TIP3    H150190   4.829   1.265   1.764  0.3329 -0.8228 -0.6684
 8665TIP3    H250191   4.969   1.218   1.799 -0.1217 -0.6460  1.5275
 8666TIP3   OH250192   3.202   0.339   1.966  0.2442  0.0117 -0.1237
 8666TIP3    H150193   3.178   0.356   1.875  0.6833 -0.8168 -0.4059
 8666TIP3    H250194   3.181   0.247   1.980  1.9817 -0.3876  0.0186
 8667TIP3   OH250195   5.140   4.001   1.686  0.1448 -0.0616  0.5504
 8667TIP3    H150196   5.199   4.054   1.632  0.4713 -1.4883 -0.5783
 8667TIP3    H250197   5.196   3.929   1.716 -0.5364 -0.3416  1.1486
 8668TIP3   OH250198   3.043   0.127   0.471  0.6483  0.6560 -0.1780
 8668TIP3    H150199   3.027   0.059   0.537 -0.5268  0.1809 -0.9110
 8668TIP3    H250200   3.016   0.087   0.388 -1.6373  2.5110 -0.4428
 8669TIP3   OH250201   5.219   5.589   0.637  0.5162 -0.4146 -0.7151
 8669TIP3    H150202   5.171   5.582   0.555  1.9776 -2.0460 -1.4906
 8669TIP3    H250203   5.311   5.577   0.612  0.9841 -1.0151  1.1551
 8670TIP3   OH250204   5.631   0.778   2.005  0.0538 -0.5060 -0.3044
 8670TIP3    H150205   5.664   0.710   1.946  0.2780 -0.1287 -0.6214
 8670TIP3    H250206   5.689   0.853   1.990 -0.8551  0.1286 -0.7865
 8671TIP3   OH250207   1.877   5.093   2.978 -0.2432 -0.1197 -0.0221
 8671TIP3    H150208   1.958   5.066   3.023 -0.7687  0.0283  1.0362
 8671TIP3    H250209   1.843   5.012   2.940  0.2418 -0.2318 -0.2388
 8672TIP3   OH250210   4.028   4.804   1.808  0.0595 -0.4797  0.9835
 8672TIP3    H150211   3.972   4.731   1.830  0.6260 -0.8331  1.2759
 8672TIP3    H250212   4.016   4.866   1.880  0.2570 -0.6780  1.1883
 8673TIP3   OH250213   0.063   4.705   3.541 -0.2881  0.2372 -0.2994
 8673TIP3    H150214  -0.024   4.673   3.562  0.3105 -1.2516  0.0548
 8673TIP3    H250215   0.122   4.640   3.579  0.9982  1.5621  0.0789
 8674TIP3   OH250216   2.880   1.619   1.752 -0.4494  0.4836 -0.4532
 8674TIP3    H150217   2.876   1.568   1.671 -0.1745 -1.1044  0.4832
 8674TIP3    H250218   2.911   1.557   1.818  1.4275  2.2821  0.4543
 8675TIP3   OH250219   6.190   1.500   3.429  0.2730 -0.1967  0.1542
 8675TIP3    H150220   6.241   1.524   3.506 -0.1115  0.2744  0.2666
 8675TIP3    H250221   6.211   1.567   3.364  0.7336 -0.6911 -0.2185
 8676TIP3   OH250222   0.646   4.484   1.996 -0.0719 -0.1430  0.1764
 8676TIP3    H150223   0.660   4.390   1.979  0.0831 -0.0837 -0.0384
 8676TIP3    H250224   0.666   4.495   2.088  0.1771 -0.2745  0.1411
 8677TIP3   OH250225   5.609   4.087   1.420  0.6622 -0.1982  0.4851
 8677TIP3    H150226   5.689   4.086   1.367  0.5461  0.2071  0.2929
 8677TIP3    H250227   5.541   4.059   1.360  0.3080  1.5279  0.0142
 8678TIP3   OH250228   2.543   4.402   3.217  0.4406  0.9754  0.1027
 8678TIP3    H150229   2.487   4.326   3.201  0.3995  0.7776  1.0712
 8678TIP3    H250230   2.530   4.459   3.142 -0.5822  0.6392  0.0131
 8679TIP3   OH250231   3.346   3.747   4.097 -0.2217  0.3091  0.1765
 8679TIP3    H150232   3.380   3.828   4.058 -0.1867 -0.2536 -1.0212
 8679TIP3    H250233   3.419   3.713   4.148  0.9507 -0.6249 -1.9688
 8680TIP3   OH250234   5.104   2.406   2.255 -0.4511 -0.2074  0.6215
 8680TIP3    H150235   5.125   2.316   2.233  2.0760  0.0887  1.4304
 8680TIP3    H250236   5.097   2.407   2.351 -2.2392  0.1772  0.5287
 8681TIP3   OH250237   3.354   1.466   4.017  0.3645  0.1446 -0.3093
 8681TIP3    H150238   3.346   1.371   4.011  0.5469  0.0177  1.2248
 8681TIP3    H250239   3.266   1.498   3.997 -0.0567 -0.4341  0.5417
 8682TIP3   OH250240   5.471   5.674   2.106 -0.3437  0.3153 -0.5863
 8682TIP3    H150241   5.500   5.626   2.029 -0.3700 -0.7106  0.0145
 8682TIP3    H250242   5.376   5.670   2.102 -0.3420 -0.0718 -0.3117
 8683TIP3   OH250243   6.681   6.142   0.437 -0.1878  0.1380  0.9459
 8683TIP3    H150244   6.662   6.235   0.425  0.5413  0.4957  2.4055
 8683TIP3    H250245   6.601   6.107   0.476 -0.4053  0.1683  0.5409
 8684TIP3   OH250246   3.468   1.987   1.188 -0.4083 -0.5840  0.5790
 8684TIP3    H150247   3.424   2.072   1.181 -1.0684 -0.7527  2.1787
 8684TIP3    H250248   3.529   1.985   1.115 -1.1777  0.7991 -0.1355
 8685TIP3   OH250249   5.894   1.576   2.357 -0.3548  0.2606 -0.5913
 8685TIP3    H150250   5.844   1.639   2.305 -0.8408 -0.3979 -0.9433
 8685TIP3    H250251   5.873   1.491   2.318  1.3125 -0.0161 -0.9797
 8686TIP3   OH250252   5.300   3.014   2.990  0.3833 -0.6044  0.1160
 8686TIP3    H150253   5.357   3.059   2.927  0.9479 -0.6441  0.5945
 8686TIP3    H250254   5.327   3.048   3.075  0.8667 -1.8939  0.4991
 8687TIP3   OH250255   2.009   1.158   2.421  0.0688  0.2255  0.2828
 8687TIP3    H150256   1.964   1.083   2.383  1.9238 -1.1221  0.6129
 8687TIP3    H250257   2.044   1.206   2.346  0.9929 -0.6562  0.1235
 8688TIP3   OH250258   3.197   5.675   4.602  0.1774  0.1192  0.2652
 8688TIP3    H150259   3.238   5.718   4.527 -1.9411  0.5832 -0.6842
 8688TIP3    H250260   3.158   5.596   4.565 -1.4227  0.6629  0.7302
 8689TIP3   OH250261   2.317   4.391   1.163 -0.2283  0.5398  0.3452
 8689TIP3    H150262   2.336   4.452   1.234 -0.5910 -1.7983  2.6168
 8689TIP3    H250263   2.398   4.341   1.152 -0.3601  0.5000 -0.4793
 8690TIP3   OH250264   4.508   1.420   2.940  0.3731  0.3220  0.6892
 8690TIP3    H150265   4.449   1.469   2.997 -1.2342 -1.5605  0.7449
 8690TIP3    H250266   4.576   1.483   2.915 -1.6529  2.6027  0.6304
 8691TIP3   OH250267   1.253   1.845   1.136 -0.4562  0.3120 -0.3762
 8691TIP3    H150268   1.293   1.761   1.154  0.0639  0.5473 -0.4208
 8691TIP3    H250269   1.300   1.879   1.060  0.0274  1.0911  0.2536
 8692TIP3   OH250270   2.147   5.539   2.440 -0.1014 -0.0958 -0.0056
 8692TIP3    H150271   2.198   5.458   2.437  0.5357  0.3051 -0.1675
 8692TIP3    H250272   2.147   5.564   2.533  1.1920  0.6381 -0.1811
 8693TIP3   OH250273   4.410   5.983   2.448  0.0019  0.0381  0.7471
 8693TIP3    H150274   4.460   6.057   2.412  0.5223 -1.7392 -2.6115
 8693TIP3    H250275   4.475   5.929   2.492  0.0473  0.3746  1.0990
 8694TIP3   OH250276   2.973   2.889   1.044 -0.2053  0.2880 -0.8096
 8694TIP3    H150277   2.973   2.805   0.999 -4.0916 -0.2483 -0.1623
 8694TIP3    H250278   3.046   2.884   1.105  1.4754 -1.3551 -2.7866
 8695TIP3   OH250279   1.899   1.940   0.688 -0.2798 -0.8635 -0.6193
 8695TIP3    H150280   1.809   1.933   0.719 -0.6548  0.5709 -1.2875
 8695TIP3    H250281   1.910   1.867   0.628 -1.9174  0.3952 -2.5848
 8696TIP3   OH250282   5.877   3.193   1.106 -0.1250 -0.4097 -0.2421
 8696TIP3    H150283   5.950   3.249   1.131 -0.6733 -0.6071  1.9774
 8696TIP3    H250284   5.800   3.234   1.146 -0.9398 -1.3065 -0.8383
 8697TIP3   OH250285   3.445   1.099   3.299  0.1489  0.3360  0.4503
 8697TIP3    H150286   3.479   1.056   3.377 -0.5738 -2.1802 -0.5211
 8697TIP3    H250287   3.521   1.140   3.258  1.1196 -0.9762  0.8842
 8698TIP3   OH250288   5.004   2.598   0.855  0.4821 -0.6964  0.1462
 8698TIP3    H150289   5.075   2.571   0.914  1.0310 -1.5270 -0.8695
 8698TIP3    H250290   5.048   2.623   0.774 -0.2714  0.4010  0.0523
 8699TIP3   OH250291   3.914   2.862   1.053 -0.3054 -0.3730  0.0058
 8699TIP3    H150292   3.945   2.923   1.120 -0.1605 -1.7906  1.2824
 8699TIP3    H250293   3.819   2.877   1.049 -0.5921 -1.3577  1.7556
 8700TIP3   OH250294   6.345   2.514   1.387 -0.0027 -0.1821  0.4888
 8700TIP3    H150295   6.385   2.539   1.303 -1.6014 -0.2700 -0.3230
 8700TIP3    H250296   6.265   2.468   1.363  0.0705 -1.1843  2.0719
 8701TIP3   OH250297   3.186   2.027   3.598  0.0544  0.1428 -0.0271
 8701TIP3    H150298   3.184   1.977   3.517  2.1075 -0.1109  0.0332
 8701TIP3    H250299   3.102   2.008   3.640 -0.9222  0.0350 -1.9167
 8702TIP3   OH250300   4.987   4.416   1.232  0.0715  0.2767 -0.4791
 8702TIP3    H150301   5.036   4.495   1.210 -0.3341  0.1514 -1.9067
 8702TIP3    H250302   4.964   4.427   1.325 -1.2319  2.5345 -0.9898
 8703TIP3   OH250303   2.834   1.517   2.110 -0.4946  0.0234  0.3020
 8703TIP3    H150304   2.922   1.552   2.096 -0.1013 -0.5574  1.2276
 8703TIP3    H250305   2.828   1.441   2.053 -0.3060 -0.0779  0.4175
 8704TIP3   OH250306   3.732   0.093   3.649  0.2198  0.6408 -0.7239
 8704TIP3    H150307   3.653   0.054   3.611  1.1439 -2.0647 -0.0991
 8704TIP3    H250308   3.800   0.027   3.635  2.4225  2.8563 -1.2044
 8705TIP3   OH250309   3.093   6.016   2.669 -0.0266  0.0528 -0.0997
 8705TIP3    H150310   3.045   6.096   2.691  0.3547  0.7174 -1.5494
 8705TIP3    H250311   3.095   5.966   2.751 -2.0357  0.5896  0.3435
 8706TIP3   OH250312   2.838   3.645   3.164  0.0905 -0.2293 -0.3204
 8706TIP3    H150313   2.837   3.576   3.096  0.5456 -0.5514 -0.0109
 8706TIP3    H250314   2.864   3.599   3.244 -1.9116 -0.1394  0.4230
 8707TIP3   OH250315   3.892   2.216   2.168 -0.1932 -0.4175  0.1056
 8707TIP3    H150316   3.839   2.263   2.232 -0.9697  1.0524 -1.5370
 8707TIP3    H250317   3.965   2.275   2.150 -0.1218 -0.6935 -0.5376
 8708TIP3   OH250318   3.263   6.090   1.105 -0.1888 -0.1008  0.0793
 8708TIP3    H150319   3.235   6.009   1.062  0.9338  0.2346 -1.3827
 8708TIP3    H250320   3.357   6.077   1.120 -0.1872  0.5783  0.6841
 8709TIP3   OH250321   0.808   6.196   3.145  0.1346  0.2185  0.1962
 8709TIP3    H150322   0.857   6.266   3.188  0.4354  0.1729 -0.0648
 8709TIP3    H250323   0.726   6.237   3.116 -0.3415  0.1060  1.3329
 8710TIP3   OH250324   0.274   1.664   1.868 -0.6599 -0.2701  0.2122
 8710TIP3    H150325   0.183   1.658   1.897 -1.1051 -0.7021 -1.2363
 8710TIP3    H250326   0.303   1.573   1.860 -0.1435 -0.1379  0.4747
 8711TIP3   OH250327   6.063   2.500   0.582  0.0665 -0.3657  0.5136
 8711TIP3    H150328   6.148   2.483   0.621 -0.8784 -0.2840  2.7574
 8711TIP3    H250329   6.052   2.595   0.588 -0.3685 -0.4231  0.7101
 8712TIP3   OH250330   3.850   4.482   0.689 -0.1184 -0.0738 -0.0685
 8712TIP3    H150331   3.841   4.559   0.632 -1.9612  0.2325  0.5496
 8712TIP3    H250332   3.777   4.426   0.664  0.7589 -1.2832  0.0234
 8713TIP3   OH250333   3.248   3.333   1.095  0.2313  0.2577  0.1804
 8713TIP3    H150334   3.206   3.322   1.180 -0.8211  1.8945 -0.0930
 8713TIP3    H250335   3.335   3.367   1.115  0.4766 -0.6164  0.6400
 8714TIP3   OH250336   2.330   5.892   1.985 -0.1751 -0.7840  0.7463
 8714TIP3    H150337   2.287   5.941   1.915  0.1837 -0.8550  0.4734
 8714TIP3    H250338   2.302   5.801   1.970  0.1521 -0.8467  0.5032
 8715TIP3   OH250339   4.521   1.451   1.726  0.1963 -0.3476 -0.1305
 8715TIP3    H150340   4.449   1.393   1.752  0.5573  0.0607  1.9488
 8715TIP3    H250341   4.478   1.520   1.675 -0.9389  0.0163  1.2766
 8716TIP3   OH250342   1.428   6.124   1.767  0.0338  0.6984  0.4237
 8716TIP3    H150343   1.487   6.200   1.765 -0.0009  0.7684 -2.6405
 8716TIP3    H250344   1.485   6.051   1.793  0.7400  1.2834  0.5744
 8717TIP3   OH250345   0.899   1.849   0.765  0.4178 -0.2644 -0.2354
 8717TIP3    H150346   0.977   1.810   0.725 -1.1579 -1.8795 -1.9835
 8717TIP3    H250347   0.867   1.781   0.824  0.6810  0.6670  1.0128
 8718TIP3   OH250348   3.736   2.595   1.355 -0.0392 -0.5212 -0.3564
 8718TIP3    H150349   3.779   2.679   1.368 -0.6010 -0.6548  4.4493
 8718TIP3    H250350   3.642   2.614   1.359 -0.2045 -1.2442 -0.5533
 8719TIP3   OH250351   5.359   5.953   3.367 -0.2233  0.2987  0.0266
 8719TIP3    H150352   5.375   5.909   3.451 -1.6853 -0.2547  0.0316
 8719TIP3    H250353   5.416   6.030   3.370  0.6078 -0.3227  1.0335
 8720TIP3   OH250354   2.110   2.367   1.556 -0.2832 -0.4024 -0.0437
 8720TIP3    H150355   2.168   2.345   1.628  0.0101  1.0596  0.2051
 8720TIP3    H250356   2.068   2.449   1.583 -0.1854  0.1726 -1.5022
 8721TIP3   OH250357   1.176   4.293   2.398 -0.1896  0.3226 -0.2985
 8721TIP3    H150358   1.248   4.346   2.364 -1.3584  1.8736 -0.4741
 8721TIP3    H250359   1.186   4.296   2.493 -0.8211  1.7833 -0.2477
 8722TIP3   OH250360   1.769   4.945   0.721  0.2364 -0.0911 -0.3591
 8722TIP3    H150361   1.709   4.954   0.646  0.5563 -0.5766 -0.6757
 8722TIP3    H250362   1.856   4.943   0.682  0.3306 -2.1826 -0.1489
 8723TIP3   OH250363   0.972   0.688   0.806  0.1758  0.1584 -0.3676
 8723TIP3    H150364   0.879   0.687   0.830  1.0387 -0.7414  3.5809
 8723TIP3    H250365   0.998   0.596   0.807  1.7249  0.5366  1.8873
 8724TIP3   OH250366   6.270   3.021   2.472 -0.0144  0.8488 -0.1332
 8724TIP3    H150367   6.362   3.044   2.484  0.4992 -1.3170  0.4618
 8724TIP3    H250368   6.263   2.930   2.500 -2.3716  0.9602 -0.0936
 8725TIP3   OH250369   0.648   4.322   2.600 -0.2255  0.1485  0.3252
 8725TIP3    H150370   0.715   4.362   2.545 -0.2583 -0.5522 -0.2358
 8725TIP3    H250371   0.566   4.361   2.571 -0.3636 -0.9160 -0.8181
 8726TIP3   OH250372   3.478   0.472   1.222 -0.0867 -0.3700 -0.4599
 8726TIP3    H150373   3.570   0.447   1.212  0.5817  1.9068 -0.4640
 8726TIP3    H250374   3.450   0.498   1.134 -0.7414 -0.9973 -0.4498
 8727TIP3   OH250375   3.758   6.437   1.431  0.5866  0.1850  0.2768
 8727TIP3    H150376   3.771   6.345   1.407  1.5654  0.2819  0.3667
 8727TIP3    H250377   3.759   6.437   1.527  0.4556  0.2739  0.2789
 8728TIP3   OH250378   4.723   3.739   2.732  0.6506 -0.0374  0.2821
 8728TIP3    H150379   4.713   3.730   2.637  0.2110  0.2144  0.3057
 8728TIP3    H250380   4.703   3.831   2.750  3.3483  0.6595  0.2826
 8729TIP3   OH250381   4.765   1.982   2.210  0.1212  0.8908 -0.1565
 8729TIP3    H150382   4.849   1.937   2.212  0.7110  1.8561 -1.3954
 8729TIP3    H250383   4.739   1.981   2.117  0.6605  3.8601 -0.4608
 8730TIP3   OH250384   1.690   1.810   1.529  0.1231 -0.0989  0.5346
 8730TIP3    H150385   1.618   1.778   1.475 -0.4257  0.1593  1.1039
 8730TIP3    H250386   1.743   1.863   1.469  0.0838 -0.6402  0.0114
 8731TIP3   OH250387   3.178   3.481   3.012  0.3033 -0.0170 -0.2823
 8731TIP3    H150388   3.136   3.420   3.073  1.2950 -0.6698 -0.2269
 8731TIP3    H250389   3.246   3.523   3.064  0.2932  0.3976 -0.5973
 8732TIP3   OH250390   3.933   4.078   1.717 -0.3398 -0.6499 -0.5183
 8732TIP3    H150391   4.014   4.056   1.672  0.1001 -1.9083  0.8169
 8732TIP3    H250392   3.939   4.172   1.734  0.6091 -0.6385 -0.8751
 8733TIP3   OH250393   4.324   4.033   2.729 -0.3108  0.4543 -0.7087
 8733TIP3    H150394   4.285   3.952   2.695 -0.4603  0.6240 -0.9455
 8733TIP3    H250395   4.250   4.094   2.736 -0.5895 -0.0563  1.4434
 8734TIP3   OH250396   2.232   6.123   0.738  0.2532  0.4491  0.0928
 8734TIP3    H150397   2.278   6.199   0.774  1.6040 -0.7816  1.0653
 8734TIP3    H250398   2.301   6.059   0.722 -1.1371 -1.6502  2.0407
 8735TIP3   OH250399   4.340   3.866   3.400 -0.4131  0.0075  0.2905
 8735TIP3    H150400   4.423   3.914   3.401  0.5814 -1.6097 -0.4869
 8735TIP3    H250401   4.309   3.872   3.490  0.2029  1.1856  0.4527
 8736TIP3   OH250402   4.510   1.121   1.643 -0.1836 -0.5761  0.0539
 8736TIP3    H150403   4.470   1.187   1.587 -2.6892 -2.0280 -0.0074
 8736TIP3    H250404   4.540   1.053   1.583  1.8579  0.1746  0.1606
 8737TIP3   OH250405   1.565   6.142   2.285 -0.4180  0.2088  0.4639
 8737TIP3    H150406   1.574   6.183   2.371 -0.7140  0.0974  0.5510
 8737TIP3    H250407   1.608   6.203   2.225  0.2843  0.0145  0.7586
 8738TIP3   OH250408   2.993   1.915   2.068  0.4417 -0.0768  0.3885
 8738TIP3    H150409   2.899   1.933   2.062  0.4095 -0.3648 -0.0044
 8738TIP3    H250410   3.032   1.966   1.997  0.8904  1.9700  1.9861
 8739TIP3   OH250411   1.219   0.220   1.309 -1.0281  0.2482  0.3770
 8739TIP3    H150412   1.206   0.174   1.226 -0.7565 -1.0706  1.0356
 8739TIP3    H250413   1.298   0.180   1.347  1.1675  3.4191 -0.4261
 8740TIP3   OH250414   3.392   2.448   3.186 -0.0462 -0.1452 -1.0435
 8740TIP3    H150415   3.299   2.425   3.184 -0.8167  2.1272  2.2140
 8740TIP3    H250416   3.435   2.367   3.214 -1.2257 -0.7514 -0.8706
 8741TIP3   OH250417   2.457   0.741   2.105  0.3124 -0.1481 -0.0201
 8741TIP3    H150418   2.495   0.713   2.188  0.2982 -0.2169 -0.0371
 8741TIP3    H250419   2.377   0.691   2.097 -2.7567  3.7017  2.6293
 8742TIP3   OH250420   5.123   1.565   1.677  0.1249 -0.0315 -0.0126
 8742TIP3    H150421   5.205   1.551   1.630  0.0038 -0.3887 -0.1187
 8742TIP3    H250422   5.140   1.532   1.765  0.6709  1.5162  0.5101
 8743TIP3   OH250423   5.124   6.141   3.095 -0.6530  0.8423  0.0951
 8743TIP3    H150424   5.116   6.138   3.000 -2.1892 -1.6677  0.2325
 8743TIP3    H250425   5.215   6.118   3.112 -0.7301 -0.1165 -0.7298
 8744TIP3   OH250426   2.194   0.883   0.614 -0.4565  0.0447  0.3085
 8744TIP3    H150427   2.261   0.940   0.653  0.2616 -0.1031 -0.6529
 8744TIP3    H250428   2.244   0.817   0.566 -1.2942 -0.1959 -0.2558
 8745TIP3   OH250429   6.086   6.173   2.621  0.4724  0.4303 -0.3842
 8745TIP3    H150430   6.095   6.240   2.553 -1.8653  0.7000 -0.5182
 8745TIP3    H250431   6.117   6.215   2.701  0.2324  1.2382 -0.7040
 8746TIP3   OH250432   0.890   0.098   3.956 -0.6267  0.5163  0.0120
 8746TIP3    H150433   0.902   0.127   4.046  0.7593  0.9140 -0.2805
 8746TIP3    H250434   0.960   0.141   3.907 -0.2923 -1.0207 -0.9498
 8747TIP3   OH250435   6.051   3.014   0.869  0.3020  0.2811 -0.2827
 8747TIP3    H150436   5.957   3.033   0.869  0.4045  0.8605  0.7213
 8747TIP3    H250437   6.093   3.100   0.865  0.7982  0.0186 -0.8676
 8748TIP3   OH250438   2.735   2.863   0.510  0.1952  0.2715  0.1278
 8748TIP3    H150439   2.716   2.918   0.435 -0.5673  0.2716  0.3171
 8748TIP3    H250440   2.798   2.914   0.562  1.2800 -0.0271 -0.8471
 8749TIP3   OH250441   2.006   0.725   1.520 -0.1097  0.3529  0.0234
 8749TIP3    H150442   2.010   0.652   1.582 -0.7388  0.7395  0.5373
 8749TIP3    H250443   2.097   0.752   1.508  0.1804 -0.8158 -0.5481
 8750TIP3   OH250444   1.469   5.618   0.790  0.3205 -0.1495 -0.1011
 8750TIP3    H150445   1.387   5.579   0.759 -0.8796 -0.1816  2.7722
 8750TIP3    H250446   1.453   5.712   0.788 -1.5182 -0.1337  4.0807
 8751TIP3   OH250447   2.057   1.800   2.520  0.2818 -0.5153  0.3125
 8751TIP3    H150448   2.050   1.874   2.460  1.9618 -1.3502 -0.9879
 8751TIP3    H250449   2.089   1.838   2.602 -1.5565  0.5584  0.5989
 8752TIP3   OH250450   4.138   3.960   1.371  0.1856  0.3686 -0.6149
 8752TIP3    H150451   4.138   4.041   1.422 -1.0185  0.0996 -0.1443
 8752TIP3    H250452   4.230   3.934   1.366  0.2913 -0.3365  2.6797
 8753TIP3   OH250453   6.324   4.565   1.156 -0.1591 -0.4034  0.1471
 8753TIP3    H150454   6.338   4.659   1.153 -1.0390 -0.2764 -0.7813
 8753TIP3    H250455   6.232   4.555   1.182 -0.3180 -0.9707 -0.5957
 8754TIP3   OH250456   3.074   4.503   4.198  0.8420  0.3879 -0.1827
 8754TIP3    H150457   3.096   4.530   4.287  0.3655  1.0073 -0.2501
 8754TIP3    H250458   3.077   4.407   4.202 -0.7430  0.3309  0.9259
 8755TIP3   OH250459   6.027   3.616   2.071 -0.0163 -0.1674  0.0060
 8755TIP3    H150460   6.097   3.587   2.130 -0.9734 -1.9289  0.3511
 8755TIP3    H250461   6.028   3.553   1.999  0.3827  1.2911 -1.3328
 8756TIP3   OH250462   6.663   4.987   1.963 -0.2408  0.2792 -0.1972
 8756TIP3    H150463   6.609   4.976   1.885  0.1915  0.6177 -0.5472
 8756TIP3    H250464   6.658   5.081   1.983  0.2440  0.3175 -0.2502
 8757TIP3   OH250465   4.202   2.133   3.339 -0.2042 -0.1176 -0.0457
 8757TIP3    H150466   4.190   2.096   3.252 -0.4643 -0.0341 -0.0455
 8757TIP3    H250467   4.288   2.101   3.367 -0.5175 -0.8939  0.0435
 8758TIP3   OH250468   6.138   0.080   1.889  0.0186 -0.5591 -0.5021
 8758TIP3    H150469   6.082   0.136   1.942 -1.4445 -1.7573 -0.6987
 8758TIP3    H250470   6.148   0.127   1.807 -0.1087  0.0028 -0.2012
 8759TIP3   OH250471   3.528   2.684   3.815 -0.4062 -0.3127  0.3395
 8759TIP3    H150472   3.553   2.765   3.770 -0.1573  0.7267  2.2382
 8759TIP3    H250473   3.433   2.680   3.807 -0.3700 -0.1499 -0.2412
 8760TIP3   OH250474   6.589   6.060   2.804 -0.7446  0.4887  0.0824
 8760TIP3    H150475   6.666   6.011   2.834 -1.1994 -0.8668 -0.8840
 8760TIP3    H250476   6.626   6.132   2.752 -0.1038 -0.3836 -0.7237
 8761TIP3   OH250477   4.018   2.977   3.096  0.1324  0.0204 -0.4519
 8761TIP3    H150478   4.050   2.890   3.073  0.7891 -0.8280  3.1083
 8761TIP3    H250479   4.080   3.037   3.054  2.6215 -1.4237  0.9317
 8762TIP3   OH250480   0.017   6.040   0.644 -0.0643  0.6585 -0.0114
 8762TIP3    H150481  -0.031   6.076   0.569 -0.8271 -0.7541 -0.2319
 8762TIP3    H250482  -0.003   5.946   0.642  0.0316  0.5671  1.8672
 8763TIP3   OH250483   4.141   4.496   2.377  0.0196 -0.2820 -0.0192
 8763TIP3    H150484   4.119   4.552   2.452 -0.2048  0.9872 -1.0134
 8763TIP3    H250485   4.236   4.485   2.384 -0.1065 -0.9228  0.9427
 8764TIP3   OH250486   0.590   0.049  11.430  0.1342 -0.5787  0.5299
 8764TIP3    H150487   0.667   0.105  11.423  1.5540 -2.5037 -0.0500
 8764TIP3    H250488   0.622  -0.039  11.410 -2.1887 -1.4842  0.4665
 8765TIP3   OH250489   5.844   1.026   2.218 -0.3770 -0.6664  0.7015
 8765TIP3    H150490   5.804   1.002   2.135 -0.8077 -1.0204  1.0052
 8765TIP3    H250491   5.772   1.060   2.271  0.2706  1.7497  0.1521
 8766TIP3   OH250492   4.497   0.639   4.096 -0.6604 -0.1388  0.0911
 8766TIP3    H150493   4.488   0.642   4.191  1.0805 -0.5452  0.2986
 8766TIP3    H250494   4.411   0.611   4.065 -1.7903  1.6182  1.3975
 8767TIP3   OH250495   0.468   1.789   1.682 -0.2351  0.7441  0.0428
 8767TIP3    H150496   0.404   1.777   1.753 -2.1916  1.4097 -1.5124
 8767TIP3    H250497   0.443   1.726   1.615  0.2908  1.4985 -0.8960
 8768TIP3   OH250498   2.039   4.346   1.920 -0.7617 -0.5599  0.3381
 8768TIP3    H150499   2.069   4.401   1.992  0.5686  1.6379 -1.7194
 8768TIP3    H250500   2.113   4.288   1.902 -0.0326  0.6679 -0.8251
 8769TIP3   OH250501   3.770   3.281   1.097 -0.3232 -0.1131  0.3695
 8769TIP3    H150502   3.813   3.332   1.166  0.1372  1.1295 -0.7730
 8769TIP3    H250503   3.839   3.263   1.034 -0.9309 -0.3794 -0.2347
 8770TIP3   OH250504   2.652   2.622   3.501  0.5843 -0.1964  0.0428
 8770TIP3    H150505   2.601   2.650   3.425  1.2018 -0.9824 -0.6806
 8770TIP3    H250506   2.743   2.645   3.479  0.5116  2.1958  1.7617
 8771TIP3   OH250507   5.501   3.654   3.924 -0.2685  0.2335 -0.4326
 8771TIP3    H150508   5.564   3.717   3.958  0.7998 -1.4696  0.9365
 8771TIP3    H250509   5.496   3.673   3.830  0.8710  1.5915 -0.2530
 8772TIP3   OH250510   3.323   0.286   1.550  0.0009  0.3324  0.2355
 8772TIP3    H150511   3.326   0.191   1.543  1.6612  0.2116  1.9510
 8772TIP3    H250512   3.380   0.307   1.624 -1.9709  2.5260  1.2690
 8773TIP3   OH250513   5.034   5.264   3.069 -0.1754  0.2161  0.0586
 8773TIP3    H150514   5.078   5.276   3.153  1.1969 -1.2871 -0.3780
 8773TIP3    H250515   4.949   5.226   3.092 -0.5793  1.5186  0.8320
 8774TIP3   OH250516   3.259   3.462   2.736  0.3778 -0.0593 -0.4700
 8774TIP3    H150517   3.239   3.555   2.743  0.0293 -0.1653  0.0244
 8774TIP3    H250518   3.275   3.434   2.826  0.8519 -0.3993 -0.6565
 8775TIP3   OH250519   2.006   3.060   0.681  0.0369 -0.2480 -0.4358
 8775TIP3    H150520   2.047   3.122   0.621  0.9232  0.1278  0.5195
 8775TIP3    H250521   2.024   3.097   0.768  0.0078 -1.5083  0.1181
 8776TIP3   OH250522   3.833   1.395  10.459 -0.2934  0.0597 -0.4385
 8776TIP3    H150523   3.827   1.435  10.546 -0.1475  0.4853 -0.6266
 8776TIP3    H250524   3.895   1.449  10.411 -1.0342  0.3341 -1.0963
 8777TIP3   OH250525   5.038   5.589   0.430  0.1569  0.5578 -0.2886
 8777TIP3    H150526   4.979   5.664   0.439  0.7854  1.1433 -0.8730
 8777TIP3    H250527   4.982   5.512   0.443 -0.7616  1.0966 -0.9144
 8778TIP3   OH250528   2.436   0.715   2.518 -0.2797  0.2029  0.0103
 8778TIP3    H150529   2.429   0.687   2.610 -2.0141  1.0848  0.1883
 8778TIP3    H250530   2.434   0.634   2.468 -1.1812 -0.2117  0.6896
 8779TIP3   OH250531   6.169   0.830   2.715  0.2838  0.4750 -0.0203
 8779TIP3    H150532   6.262   0.841   2.696  0.2423  1.2110  0.1874
 8779TIP3    H250533   6.146   0.747   2.674  1.3437 -0.3860  1.0611
 8780TIP3   OH250534   6.516   2.500   2.600  0.3694  0.1535 -0.4089
 8780TIP3    H150535   6.552   2.413   2.581  1.7572  0.8349 -1.0219
 8780TIP3    H250536   6.458   2.486   2.675  1.2558 -1.1626  0.0658
 8781TIP3   OH250537   3.585   0.803   3.888  0.4566 -0.4636  0.0242
 8781TIP3    H150538   3.502   0.822   3.931  0.2978 -1.6259  0.2713
 8781TIP3    H250539   3.615   0.888   3.855 -1.0256 -0.0788 -0.4304
 8782TIP3   OH250540   1.233   1.427   0.443 -0.1737  0.8710  0.7718
 8782TIP3    H150541   1.271   1.472   0.368 -0.9287 -0.1309 -0.2346
 8782TIP3    H250542   1.309   1.400   0.495  0.3118  3.0049  1.2753
 8783TIP3   OH250543   1.184   6.747   2.386  1.1563  0.5865  0.1355
 8783TIP3    H150544   1.173   6.741   2.291 -0.3922  1.3472  0.2385
 8783TIP3    H250545   1.214   6.660   2.412  0.3077 -0.0495 -0.9070
 8784TIP3   OH250546   5.963   1.661   1.431 -0.4406  0.0904 -0.0580
 8784TIP3    H150547   6.057   1.668   1.411 -0.4179  0.9999  0.3044
 8784TIP3    H250548   5.959   1.660   1.527 -0.7982  0.1161 -0.0709
 8785TIP3   OH250549   4.193   4.364   3.406 -0.2155  0.3109 -0.0892
 8785TIP3    H150550   4.267   4.399   3.456 -0.1298  0.2181 -0.1482
 8785TIP3    H250551   4.118   4.416   3.434 -0.4147 -0.5669  1.0740
 8786TIP3   OH250552   4.911   0.272   2.402 -0.3311  0.5597 -0.2869
 8786TIP3    H150553   4.969   0.348   2.395 -1.4673  1.6614  1.5502
 8786TIP3    H250554   4.880   0.258   2.312  2.1326  0.3922 -1.1886
 8787TIP3   OH250555   5.241   3.492   1.954 -0.0081 -0.0046 -0.0993
 8787TIP3    H150556   5.197   3.454   1.878  0.6128 -0.2529 -0.3402
 8787TIP3    H250557   5.200   3.449   2.029 -1.9772  1.6193 -0.1550
 8788TIP3   OH250558   2.280   3.230   0.341 -0.1143 -0.0150 -0.2015
 8788TIP3    H150559   2.331   3.310   0.326  0.1664  0.2431  1.8782
 8788TIP3    H250560   2.312   3.196   0.424 -1.4754 -1.3364 -0.1770
 8789TIP3   OH250561   4.818   4.592   1.748  0.1555  0.0310 -0.1166
 8789TIP3    H150562   4.818   4.505   1.707  0.6040  0.0098 -0.0763
 8789TIP3    H250563   4.867   4.581   1.829  1.3422  0.5940 -0.7208
 8790TIP3   OH250564   5.285   4.276   1.653  0.1181 -0.1695 -0.1901
 8790TIP3    H150565   5.295   4.302   1.745  0.0859 -1.8438  0.3181
 8790TIP3    H250566   5.340   4.198   1.644 -1.2063 -1.0347 -1.1382
 8791TIP3   OH250567   1.506   1.700   1.361 -0.3024 -0.4018 -0.7411
 8791TIP3    H150568   1.521   1.623   1.306 -0.5734 -0.2186 -1.0772
 8791TIP3    H250569   1.532   1.774   1.306 -1.2147 -0.1685 -0.8692
 8792TIP3   OH250570   1.549   3.190   2.413  0.4687  0.2481 -0.1709
 8792TIP3    H150571   1.642   3.210   2.429  0.3882  0.3922  0.1298
 8792TIP3    H250572   1.529   3.236   2.332  0.7496 -0.0613 -0.4195
 8793TIP3   OH250573   2.297   1.674   2.425  0.3852  0.1170 -0.7841
 8793TIP3    H150574   2.202   1.686   2.433  0.3460 -0.4373 -0.4042
 8793TIP3    H250575   2.314   1.589   2.464  1.0564  0.2528 -0.7727
 8794TIP3   OH250576   6.361   0.166   1.710 -0.0488  0.1088  0.1879
 8794TIP3    H150577   6.320   0.090   1.669 -0.8033  0.7460 -0.2690
 8794TIP3    H250578   6.357   0.148   1.804  0.1198 -0.5809  0.0650
 8795TIP3   OH250579   2.950   1.460   2.641  0.3800  0.0375 -0.2835
 8795TIP3    H150580   2.977   1.442   2.551  0.6705 -1.4487  0.0818
 8795TIP3    H250581   2.928   1.553   2.641  0.0800 -0.0098 -1.9577
 8796TIP3   OH250582   4.189   1.005   3.008  0.3837 -0.4789 -0.2186
 8796TIP3    H150583   4.210   0.964   2.924  1.9448 -2.1313  0.8859
 8796TIP3    H250584   4.095   0.991   3.018 -0.1194  1.0266 -2.2891
 8797TIP3   OH250585   2.808   5.604   4.458  0.6031 -0.1052  0.3051
 8797TIP3    H150586   2.850   5.527   4.497  0.3053 -1.0342 -1.1071
 8797TIP3    H250587   2.724   5.571   4.425  0.0886  1.0370  0.4435
 8798TIP3   OH250588   5.130   4.003   3.923  0.4878 -0.1431  0.4685
 8798TIP3    H150589   5.178   3.930   3.884 -0.6926 -0.6532 -0.0581
 8798TIP3    H250590   5.038   3.983   3.907  0.1357  3.1112 -2.8280
 8799TIP3   OH250591   2.429   1.161   2.389 -0.2063 -0.4440 -0.1890
 8799TIP3    H150592   2.445   1.254   2.371 -0.8513 -0.4060 -0.5830
 8799TIP3    H250593   2.339   1.158   2.421  0.2112 -0.7887  0.9891
 8800TIP3   OH250594   4.288   1.977   3.118  0.4631 -0.3274  0.0822
 8800TIP3    H150595   4.372   2.022   3.130 -0.2995  1.3972 -0.6069
 8800TIP3    H250596   4.258   2.006   3.031 -0.8607 -0.8545  0.3355
 8801TIP3   OH250597   2.413   0.933   1.733 -0.2695  0.2853 -0.0876
 8801TIP3    H150598   2.482   0.992   1.764 -0.5401  1.0187 -0.8245
 8801TIP3    H250599   2.458   0.850   1.717  0.5810  0.9162 -1.1033
 8802TIP3   OH250600   3.311   3.415   0.560 -0.7560  0.0433 -0.7598
 8802TIP3    H150601   3.286   3.502   0.527  0.2840  0.5606 -0.2364
 8802TIP3    H250602   3.228   3.376   0.588 -1.2031  1.0183 -0.6453
 8803TIP3   OH250603   2.489   5.604   3.029  0.5900 -0.5923  0.3103
 8803TIP3    H150604   2.560   5.599   2.964 -0.9568 -1.2036 -1.4113
 8803TIP3    H250605   2.416   5.644   2.982 -0.4202 -0.5491  1.8544
 8804TIP3   OH250606   5.080   5.959   3.961  0.3654 -0.5862 -0.8195
 8804TIP3    H150607   5.136   5.913   3.899  0.4081  0.0747 -1.2949
 8804TIP3    H250608   5.012   5.999   3.906 -0.6786 -1.5073 -0.2385
 8805TIP3   OH250609   4.222   6.729   2.229  0.3859  0.6974  0.5199
 8805TIP3    H150610   4.172   6.809   2.213 -0.2674  0.5368  1.6380
 8805TIP3    H250611   4.216   6.715   2.324 -0.2056 -1.0982  0.2633
 8806TIP3   OH250612   2.953   4.187   1.840 -0.4601 -0.0233  0.3545
 8806TIP3    H150613   2.923   4.145   1.759 -1.9779 -1.2342  1.4790
 8806TIP3    H250614   3.048   4.178   1.838 -0.4519  0.0961 -1.3406
 8807TIP3   OH250615   0.826   3.885   2.263  0.1096  0.5276  0.1645
 8807TIP3    H150616   0.747   3.939   2.260  0.7487  1.4616 -1.4937
 8807TIP3    H250617   0.830   3.844   2.176  1.7350  0.9808 -0.0056
 8808TIP3   OH250618   5.665   6.286   2.821 -0.2361  0.2702  0.5714
 8808TIP3    H150619   5.742   6.307   2.767  0.7972 -0.5981  1.6573
 8808TIP3    H250620   5.613   6.227   2.766  0.3374  0.1259  0.1698
 8809TIP3   OH250621   1.938   5.696   3.257  0.0154 -0.4622 -0.1887
 8809TIP3    H150622   1.880   5.705   3.182 -0.5785  1.6598  0.4728
 8809TIP3    H250623   2.014   5.750   3.236  0.1482 -0.3859  0.4528
 8810TIP3   OH250624   6.778   1.619   0.755 -0.4446  0.0110 -0.3033
 8810TIP3    H150625   6.788   1.707   0.719  0.0465 -0.0008 -0.2037
 8810TIP3    H250626   6.848   1.611   0.819 -1.0370 -0.1292  0.3427
 8811TIP3   OH250627   4.883   6.020   2.364 -0.1259 -0.2526 -0.3224
 8811TIP3    H150628   4.858   6.049   2.276  1.2299  0.2901 -0.5490
 8811TIP3    H250629   4.939   6.090   2.398  0.0594 -0.8424  0.6514
 8812TIP3   OH250630   5.894   5.750   3.753 -0.3089  0.1552  0.2913
 8812TIP3    H150631   5.917   5.821   3.694 -1.4312  0.3497  0.0597
 8812TIP3    H250632   5.849   5.793   3.826 -2.4579 -0.3972 -0.6110
 8813TIP3   OH250633   3.746   6.032   3.311 -0.2969 -0.2297  0.6485
 8813TIP3    H150634   3.695   5.979   3.249  0.2447  0.6807 -0.6408
 8813TIP3    H250635   3.682   6.092   3.350 -1.0367 -2.2151  2.6216
 8814TIP3   OH250636   4.035   6.638   3.848 -0.6285  0.0503  0.4133
 8814TIP3    H150637   3.956   6.593   3.876 -0.4107  0.2793  1.4330
 8814TIP3    H250638   4.107   6.587   3.886 -0.3752  1.2039  1.5778
 8815TIP3   OH250639   1.652   5.919   3.434  0.3712  0.3122 -0.7845
 8815TIP3    H150640   1.598   5.872   3.370 -0.8123  0.4015  0.1177
 8815TIP3    H250641   1.644   5.867   3.514  0.4328  1.1285 -0.2425
 8816TIP3   OH250642   2.638   1.400   3.008  0.1870  0.4442 -0.0722
 8816TIP3    H150643   2.697   1.412   3.083  0.6544 -0.2420 -0.3259
 8816TIP3    H250644   2.696   1.375   2.936 -0.2468  1.1846 -0.6934
 8817TIP3   OH250645   1.083   0.351   3.169  0.6050  0.1149 -0.3832
 8817TIP3    H150646   0.988   0.351   3.159  0.7161  1.4897 -1.7907
 8817TIP3    H250647   1.108   0.259   3.156 -0.6429 -0.6030  1.8044
 8818TIP3   OH250648   6.340   3.352   2.255  0.1655 -0.0156 -0.2301
 8818TIP3    H150649   6.432   3.341   2.279 -0.3167 -1.8701  0.9622
 8818TIP3    H250650   6.324   3.287   2.187 -0.0322  1.0631 -1.2623
 8819TIP3   OH250651   3.477   6.474   2.761  0.1908 -0.4584 -0.0657
 8819TIP3    H150652   3.562   6.519   2.758 -1.1214  2.2336  0.3467
 8819TIP3    H250653   3.421   6.524   2.701 -0.9952 -2.5630 -0.8365
 8820TIP3   OH250654   3.936   3.822   3.978  0.0890 -0.1646  0.5141
 8820TIP3    H150655   3.970   3.844   3.891 -0.7029  1.0769  0.4880
 8820TIP3    H250656   4.002   3.854   4.039  0.2456 -0.2544  0.3917
 8821TIP3   OH250657   4.220   3.844   1.915  0.4678 -0.4027  0.1074
 8821TIP3    H150658   4.281   3.906   1.955 -3.0927  2.3682  1.7619
 8821TIP3    H250659   4.253   3.833   1.825  1.7361  3.3964 -0.0756
 8822TIP3   OH250660   6.655   0.065   2.117 -0.2347  0.0814  0.1021
 8822TIP3    H150661   6.633   0.127   2.047 -0.4690 -0.6397 -0.4724
 8822TIP3    H250662   6.737   0.024   2.088 -1.1880 -1.4041 -0.5578
 8823TIP3   OH250663   6.206   0.477   3.502 -0.3609  0.5224 -0.2440
 8823TIP3    H150664   6.240   0.524   3.426 -1.0437  1.4768  0.0202
 8823TIP3    H250665   6.118   0.513   3.514 -0.6228 -0.3210  0.4066
 8824TIP3   OH250666   1.448   3.413   1.387 -0.1093 -0.3291  0.3815
 8824TIP3    H150667   1.454   3.404   1.482  0.9275  0.7860  0.4448
 8824TIP3    H250668   1.538   3.431   1.359 -0.6085  0.6138 -0.6709
 8825TIP3   OH250669   4.913   4.199   1.057  0.4202  0.5852  0.0481
 8825TIP3    H150670   4.991   4.152   1.029 -0.4208 -0.9651  0.2130
 8825TIP3    H250671   4.947   4.277   1.100  1.9145 -0.2915  0.5443
 8826TIP3   OH250672   4.876   4.797   2.272 -0.4772 -0.0766 -0.2887
 8826TIP3    H150673   4.833   4.711   2.273 -0.4272 -0.1799 -2.3510
 8826TIP3    H250674   4.910   4.805   2.183  0.4239  1.6557  0.1774
 8827TIP3   OH250675   3.553   4.666   3.354 -0.0346  0.0503  0.1013
 8827TIP3    H150676   3.623   4.648   3.292 -0.6830  0.0783 -0.6614
 8827TIP3    H250677   3.549   4.762   3.360 -1.3386  0.1410 -1.4682
 8828TIP3   OH250678   3.683   5.892   1.091 -0.4209  0.5111 -0.9501
 8828TIP3    H150679   3.679   5.842   1.172 -1.6128  0.8970 -0.7543
 8828TIP3    H250680   3.774   5.924   1.087 -0.2823  0.2903  0.0984
 8829TIP3   OH250681   3.948   4.355   1.651 -0.2928  0.1416 -0.0085
 8829TIP3    H150682   3.860   4.384   1.673 -0.5220 -0.2284 -0.4199
 8829TIP3    H250683   4.005   4.407   1.708 -0.7401  0.7542 -0.1013
 8830TIP3   OH250684   1.280   0.375   2.598  0.2854  0.2917 -0.5899
 8830TIP3    H150685   1.225   0.308   2.557 -2.4690  1.6835  0.5218
 8830TIP3    H250686   1.287   0.444   2.531 -2.1746  1.5105  0.2966
 8831TIP3   OH250687   4.152   3.615   1.659 -0.0962  0.0311  0.2389
 8831TIP3    H150688   4.181   3.642   1.572  1.4839 -0.9442  0.4095
 8831TIP3    H250689   4.232   3.621   1.713 -0.8899 -0.0211  1.4588
 8832TIP3   OH250690   3.851   4.521   2.769  0.5467 -0.1688  0.0510
 8832TIP3    H150691   3.851   4.617   2.768  2.7791 -0.1115  0.2031
 8832TIP3    H250692   3.794   4.499   2.843 -2.0748  0.9009 -1.5177
 8833TIP3   OH250693   6.480   4.910   1.741 -0.1271 -0.7529  0.0200
 8833TIP3    H150694   6.481   4.962   1.661  2.4795  0.4662  0.7431
 8833TIP3    H250695   6.519   4.826   1.715  0.6658 -0.3786 -0.0244
 8834TIP3   OH250696   4.892   0.680   2.182 -0.1880 -0.1228 -0.1802
 8834TIP3    H150697   4.923   0.770   2.195  1.2968 -0.5412 -0.5581
 8834TIP3    H250698   4.877   0.674   2.088 -0.3547 -0.2415 -0.1448
 8835TIP3   OH250699   2.949   5.197   2.738  0.4329  0.4556  0.1422
 8835TIP3    H150700   2.933   5.291   2.745  1.4068  0.6818 -0.5257
 8835TIP3    H250701   2.885   5.166   2.675  0.3807  0.7427  0.0527
 8836TIP3   OH250702   4.142   6.214   2.390 -0.3710  0.2478  0.4427
 8836TIP3    H150703   4.079   6.285   2.394  1.0855  1.6152  0.0654
 8836TIP3    H250704   4.198   6.235   2.316  2.0569  0.4480  2.2108
 8837TIP3   OH250705   2.226   0.502   2.057  0.6191 -0.4422  0.6154
 8837TIP3    H150706   2.247   0.443   1.986  0.4091  0.1271  0.0724
 8837TIP3    H250707   2.247   0.453   2.137  0.7353 -1.1233  0.1676
 8838TIP3   OH250708   4.021   4.539   2.120  0.1419  0.0107 -0.4618
 8838TIP3    H150709   4.101   4.571   2.080  0.1969  0.2747 -0.1463
 8838TIP3    H250710   4.037   4.543   2.214  1.2134 -3.6225 -0.3362
 8839TIP3   OH250711   1.393   0.692   2.207 -0.2686  0.5525 -0.0856
 8839TIP3    H150712   1.379   0.710   2.114  0.5823  0.7376 -0.1856
 8839TIP3    H250713   1.318   0.638   2.232  0.2149 -0.7132 -1.2392
 8840TIP3   OH250714   4.407   4.983   3.275  0.4868 -0.0514 -0.3368
 8840TIP3    H150715   4.480   5.027   3.232  2.7429 -1.7946  1.5207
 8840TIP3    H250716   4.419   5.000   3.368 -0.7650 -1.4443  0.1226
 8841TIP3   OH250717   0.569   1.437   1.052  0.0668  0.4880  0.1723
 8841TIP3    H150718   0.482   1.446   1.015 -0.0175  1.3416  0.5360
 8841TIP3    H250719   0.569   1.497   1.127  0.8661  0.2741  0.3546
 8842TIP3   OH250720   3.950   0.392   3.868  0.5832 -0.7018 -0.0419
 8842TIP3    H150721   4.001   0.471   3.884  0.5632 -0.9484  1.3803
 8842TIP3    H250722   3.917   0.402   3.779  0.0756  1.1734  0.3103
 8843TIP3   OH250723   3.197   5.356   1.108  0.0909  0.4983  0.2863
 8843TIP3    H150724   3.122   5.298   1.093  0.3958  0.3443 -0.6876
 8843TIP3    H250725   3.232   5.328   1.193 -0.6800  0.2735  0.5371
 8844TIP3   OH250726   1.350   5.857   0.877  0.5672 -0.3481 -0.6638
 8844TIP3    H150727   1.260   5.851   0.910  0.9969 -2.2054  0.2679
 8844TIP3    H250728   1.397   5.906   0.944  0.5612 -0.6242 -0.4578
 8845TIP3   OH250729   0.343   3.822   1.973 -1.2384  0.2559 -0.3430
 8845TIP3    H150730   0.397   3.744   1.959  0.0455  1.0182  0.1535
 8845TIP3    H250731   0.381   3.889   1.916 -0.1503  1.4637  1.6605
 8846TIP3   OH250732   5.011   3.032   1.301  0.2740 -0.4330 -0.5520
 8846TIP3    H150733   4.950   3.058   1.370  0.7258  1.4285 -0.7986
 8846TIP3    H250734   5.084   2.992   1.347  0.6714  0.9813  0.1137
 8847TIP3   OH250735   0.169   2.299   0.606 -0.1298  0.2043  0.1184
 8847TIP3    H150736   0.094   2.358   0.603 -0.9055 -0.7342  0.5295
 8847TIP3    H250737   0.216   2.323   0.686  0.5534  1.4111 -0.6138
 8848TIP3   OH250738   0.198   3.088   3.656 -0.3623  0.4610 -0.4433
 8848TIP3    H150739   0.247   3.144   3.716  0.8597 -2.5666  1.6576
 8848TIP3    H250740   0.112   3.079   3.696 -0.2896  0.2547 -0.3269
 8849TIP3   OH250741   0.969   3.342   2.902  0.0331 -0.6933  0.2809
 8849TIP3    H150742   0.953   3.437   2.910 -1.4813 -1.0055  1.4588
 8849TIP3    H250743   0.955   3.324   2.809 -1.2612  0.0022  0.3127
 8850TIP3   OH250744   3.752   2.110   1.246 -0.1818  0.0900 -0.2771
 8850TIP3    H150745   3.812   2.182   1.262 -0.8430  0.0449  3.1999
 8850TIP3    H250746   3.802   2.032   1.269  0.0203 -0.5215 -2.5037
 8851TIP3   OH250747   2.940   0.896   2.973  0.2843 -0.0475  0.3388
 8851TIP3    H150748   2.872   0.961   2.987 -0.0472 -0.8258  2.8724
 8851TIP3    H250749   2.898   0.812   2.993  1.9330 -0.5343  2.0748
 8852TIP3   OH250750   0.068   5.459   3.296  0.2050  0.7184 -0.4738
 8852TIP3    H150751   0.002   5.426   3.357  0.4239  0.7778 -0.2012
 8852TIP3    H250752   0.057   5.554   3.298  0.6316  0.7633 -0.0402
 8853TIP3   OH250753   3.385   5.084   0.790 -0.3440  0.5075  0.8133
 8853TIP3    H150754   3.451   5.059   0.725  0.4208 -2.5425  2.5717
 8853TIP3    H250755   3.428   5.151   0.843 -0.4244  1.9042 -0.7977
 8854TIP3   OH250756   2.994   0.959   3.715  0.2148 -0.7087  0.3519
 8854TIP3    H150757   3.008   0.877   3.762 -0.0434 -0.6474  0.5391
 8854TIP3    H250758   3.040   0.947   3.632  1.3916 -0.5004  0.9511
 8855TIP3   OH250759   3.676   2.895   3.747  0.0820 -0.3704  0.1964
 8855TIP3    H150760   3.663   2.982   3.708 -0.5407 -0.8746 -0.7711
 8855TIP3    H250761   3.755   2.904   3.800  0.6036  0.5203 -0.6944
 8856TIP3   OH250762   4.520   4.761   3.681  0.1960  0.1553 -0.1316
 8856TIP3    H150763   4.581   4.834   3.669 -0.1782  0.3360 -0.9955
 8856TIP3    H250764   4.571   4.694   3.727  0.6523  0.8062  0.3297
 8857TIP3   OH250765   3.095   1.510   0.486 -0.5517 -0.4549  0.4030
 8857TIP3    H150766   3.072   1.432   0.536 -0.2942 -0.6177  0.2649
 8857TIP3    H250767   3.025   1.572   0.506 -0.8367 -0.7703  0.4003
 8858TIP3   OH250768   6.674   0.324   0.946  0.4836  0.3781 -0.5827
 8858TIP3    H150769   6.633   0.246   0.908  1.7380 -0.5613 -0.0807
 8858TIP3    H250770   6.742   0.289   1.004 -1.6148  1.6883  2.9499
 8859TIP3   OH250771   3.256   1.838   1.227  0.3482 -0.4375 -0.1447
 8859TIP3    H150772   3.217   1.884   1.300 -0.7248  0.7312 -1.4051
 8859TIP3    H250773   3.330   1.892   1.200 -1.2450  0.9592 -1.9797
 8860TIP3   OH250774   4.833   6.221   2.990 -0.2254 -0.0816  0.1636
 8860TIP3    H150775   4.906   6.207   3.051  1.1127 -0.5209 -1.4440
 8860TIP3    H250776   4.758   6.241   3.046  0.3797 -2.6860  2.0674
 8861TIP3   OH250777   3.111   2.420   1.938  0.6529 -0.2652 -0.4751
 8861TIP3    H150778   3.147   2.468   1.863  0.3048  0.8199  0.0247
 8861TIP3    H250779   3.188   2.381   1.980  1.0114  0.2505 -0.6298
 8862TIP3   OH250780   0.695   2.859   1.576 -0.0002  0.2899 -0.6448
 8862TIP3    H150781   0.777   2.880   1.531 -0.5458  0.6908 -1.4775
 8862TIP3    H250782   0.631   2.921   1.540 -0.3044  1.1436  1.2421
 8863TIP3   OH250783   3.515   1.158   2.225  0.3240 -0.0351  0.0457
 8863TIP3    H150784   3.488   1.245   2.198 -0.8179 -0.3359  0.1924
 8863TIP3    H250785   3.602   1.170   2.263  0.5361  0.8995 -0.7219
 8864TIP3   OH250786   0.276   2.452   1.882  0.0946  0.4037  0.2234
 8864TIP3    H150787   0.337   2.446   1.809 -0.3768 -1.7773 -0.0547
 8864TIP3    H250788   0.321   2.506   1.947  0.6984  2.0037 -1.4573
 8865TIP3   OH250789   4.086   3.887   3.222  0.4799  0.4144  0.0311
 8865TIP3    H150790   4.027   3.897   3.296  1.1038 -2.1593  0.9773
 8865TIP3    H250791   4.168   3.858   3.260  1.1870  0.1721 -1.5801
 8866TIP3   OH250792   2.962   6.024   1.536  0.3990 -0.0448 -0.1132
 8866TIP3    H150793   2.934   6.030   1.445  0.7679  0.8995 -0.1740
 8866TIP3    H250794   2.912   5.951   1.572 -0.4876  0.2109 -0.8073
 8867TIP3   OH250795   6.732   3.144   2.972 -0.2117 -0.4920 -0.3159
 8867TIP3    H150796   6.692   3.058   2.965 -0.3510 -0.4362 -0.1977
 8867TIP3    H250797   6.694   3.183   3.050 -0.1136 -0.3408 -0.3416
 8868TIP3   OH250798   2.274   0.271   0.907 -0.1128  0.2750 -0.4076
 8868TIP3    H150799   2.212   0.198   0.896  0.3630  0.1082 -2.1215
 8868TIP3    H250800   2.280   0.312   0.821  0.4250  1.7269  0.2823
 8869TIP3   OH250801   6.047   4.509   1.108  0.0821 -0.2231  0.0478
 8869TIP3    H150802   6.014   4.440   1.166 -1.6193  0.8985  0.4775
 8869TIP3    H250803   6.086   4.462   1.034 -1.9682 -1.6778 -0.1814
 8870TIP3   OH250804   4.440   5.676   1.075 -0.2135  0.0094  0.0627
 8870TIP3    H150805   4.402   5.754   1.037  1.5277  1.0429  0.3316
 8870TIP3    H250806   4.447   5.615   1.001  0.8157  1.0769 -0.7628
 8871TIP3   OH250807   0.978   1.910   2.354 -0.1253 -0.3567  0.5511
 8871TIP3    H150808   1.039   1.898   2.281  1.3921 -0.3137  1.7700
 8871TIP3    H250809   0.999   1.839   2.415 -1.0464 -0.1126  1.1704
 8872TIP3   OH250810   1.564   6.579   0.929 -0.0664  0.3466  0.7660
 8872TIP3    H150811   1.545   6.584   0.836 -0.9227  3.3341  0.9948
 8872TIP3    H250812   1.575   6.485   0.947 -2.5057 -0.5627 -1.8137
 8873TIP3   OH250813   1.593   1.298   1.610  0.3818  0.1543 -0.6175
 8873TIP3    H150814   1.527   1.362   1.638  0.5653  0.5046 -0.9827
 8873TIP3    H250815   1.656   1.296   1.682 -0.2975 -0.5795 -0.0188
 8874TIP3   OH250816   3.598   2.968   1.703  0.4808  0.0937  0.3025
 8874TIP3    H150817   3.639   3.050   1.674  0.0327  0.3934  0.5109
 8874TIP3    H250818   3.539   2.994   1.773 -0.7934 -0.1765 -0.6244
 8875TIP3   OH250819   0.714   3.338   0.653 -0.2411  0.3997 -0.1232
 8875TIP3    H150820   0.666   3.346   0.735  0.4976  1.5640  0.2287
 8875TIP3    H250821   0.663   3.276   0.601 -0.0626 -1.3666  1.6753
 8876TIP3   OH250822   5.492   0.293   0.845 -0.4487  0.4965  0.5238
 8876TIP3    H150823   5.447   0.210   0.864 -1.2139  0.9323  0.6754
 8876TIP3    H250824   5.556   0.302   0.915  0.9440 -0.8594 -0.5020
 8877TIP3   OH250825   6.218   2.737   1.535 -0.6914 -0.8343  0.7171
 8877TIP3    H150826   6.279   2.675   1.495 -0.8890 -1.1880  0.9619
 8877TIP3    H250827   6.266   2.771   1.611 -0.8031 -1.1305  0.9234
 8878TIP3   OH250828   1.968   6.230   1.359  0.6521  0.3049  0.0228
 8878TIP3    H150829   1.957   6.154   1.302 -0.7236  1.1059 -0.8188
 8878TIP3    H250830   1.907   6.295   1.325  0.9165  1.3630  1.4785
 8879TIP3   OH250831   4.404   3.921   1.354  0.3249 -0.4589  0.3152
 8879TIP3    H150832   4.424   3.936   1.262  0.5440 -3.1217 -0.1348
 8879TIP3    H250833   4.489   3.911   1.396  0.2174  0.5603  0.8192
 8880TIP3   OH250834   0.866   0.335   1.815 -0.7636 -0.5085 -0.0108
 8880TIP3    H150835   0.879   0.362   1.905 -0.5186  0.3249 -0.2835
 8880TIP3    H250836   0.839   0.415   1.770  1.1161 -0.4175 -1.0900
 8881TIP3   OH250837   4.749   5.598   1.438  0.1778  0.1435  0.1585
 8881TIP3    H150838   4.694   5.668   1.402 -0.6362 -0.5887 -0.0602
 8881TIP3    H250839   4.701   5.566   1.514  0.3156 -0.4744 -0.0084
 8882TIP3   OH250840   5.844   6.490   2.312 -0.0549  0.1005 -0.0491
 8882TIP3    H150841   5.827   6.422   2.247  0.3771  1.5187 -1.7122
 8882TIP3    H250842   5.793   6.565   2.283  1.0739  1.1477  0.5795
 8883TIP3   OH250843   6.345   5.930   2.605  0.3868  0.0986  0.4715
 8883TIP3    H150844   6.366   6.023   2.606 -0.9450  0.4141  0.4359
 8883TIP3    H250845   6.428   5.887   2.584  1.2667  1.1874  1.6071
 8884TIP3   OH250846   4.431   1.791   3.290  0.0598  0.2209 -0.2000
 8884TIP3    H150847   4.438   1.698   3.310  0.3888  0.2119 -0.3549
 8884TIP3    H250848   4.346   1.799   3.246  0.0762 -0.0217 -0.2769
 8885TIP3   OH250849   3.422   2.240   1.127  0.2784  0.5612  0.4789
 8885TIP3    H150850   3.495   2.303   1.126  1.0799 -0.2894 -1.5513
 8885TIP3    H250851   3.362   2.272   1.059  0.3828 -0.4803 -0.1281
 8886TIP3   OH250852   4.166   3.864   1.081  0.0488 -0.4543 -0.4317
 8886TIP3    H150853   4.172   3.953   1.047  0.6214  0.0857  0.9993
 8886TIP3    H250854   4.073   3.852   1.100  0.1377  0.3431  0.5979
 8887TIP3   OH250855   3.940   5.389   2.445 -0.1368  0.1409  0.2054
 8887TIP3    H150856   4.022   5.416   2.487  0.2341  0.0050 -0.4076
 8887TIP3    H250857   3.965   5.313   2.392 -0.6202  0.2236 -0.1424
 8888TIP3   OH250858   2.404   1.118   2.745  0.1365  0.1367  0.0736
 8888TIP3    H150859   2.430   1.156   2.829 -0.6764  1.9369 -0.4336
 8888TIP3    H250860   2.347   1.185   2.705 -1.2639 -1.5816 -0.9510
 8889TIP3   OH250861   3.140   1.269   4.214  0.0303  0.1917  0.0719
 8889TIP3    H150862   3.226   1.239   4.183  0.3077 -0.1656  1.1576
 8889TIP3    H250863   3.080   1.198   4.191  0.4693 -0.6774  1.5230
 8890TIP3   OH250864   6.258   1.692   0.722  0.5049  0.2984 -0.3897
 8890TIP3    H150865   6.266   1.788   0.729 -0.1655  0.3994 -0.9450
 8890TIP3    H250866   6.324   1.659   0.783 -0.7686  1.1093  1.5230
 8891TIP3   OH250867   0.494   2.444   1.683  0.1831 -0.0761 -0.1465
 8891TIP3    H150868   0.579   2.469   1.719 -0.3756  0.6324  0.7310
 8891TIP3    H250869   0.497   2.348   1.677  0.1437 -0.2827  2.2939
 8892TIP3   OH250870   2.501   1.627   3.038  0.1715  0.5063 -0.3314
 8892TIP3    H150871   2.553   1.546   3.037  0.5853  0.7720 -1.0735
 8892TIP3    H250872   2.557   1.692   2.996 -0.2278  1.1445  0.1055
 8893TIP3   OH250873   1.360   4.815   2.108  0.0882 -0.1607  0.4493
 8893TIP3    H150874   1.282   4.830   2.055  0.5907  0.5441 -0.1128
 8893TIP3    H250875   1.397   4.902   2.121  0.5761 -0.4489  1.0335
 8894TIP3   OH250876   4.502   0.210   1.692 -0.1982  0.0436  0.6062
 8894TIP3    H150877   4.504   0.255   1.776  0.2041  1.3540 -0.0763
 8894TIP3    H250878   4.409   0.212   1.666 -0.3597 -0.5765  1.1161
 8895TIP3   OH250879   4.282   6.759   1.172 -0.7084 -0.6988 -0.1139
 8895TIP3    H150880   4.247   6.765   1.083 -1.3509 -0.8335  0.1237
 8895TIP3    H250881   4.377   6.752   1.160 -0.6521  0.8367 -0.7236
 8896TIP3   OH250882   5.199   2.269   1.239  0.0223 -0.2526 -0.1213
 8896TIP3    H150883   5.124   2.241   1.186 -1.2337  1.2135  0.7784
 8896TIP3    H250884   5.160   2.320   1.310  1.8107 -0.4945  1.0891
 8897TIP3   OH250885   1.299   2.347   2.903 -0.1569 -0.3324  0.0340
 8897TIP3    H150886   1.337   2.399   2.974  1.9573 -2.9865  1.0383
 8897TIP3    H250887   1.216   2.316   2.939 -0.5302  0.7303  0.1410
 8898TIP3   OH250888   4.680   6.199   1.569 -0.3213 -0.0580  0.0580
 8898TIP3    H150889   4.595   6.207   1.527 -0.7956 -2.2090  0.4880
 8898TIP3    H250890   4.660   6.178   1.660  0.6752  0.1399  0.3362
 8899TIP3   OH250891   1.361   2.705   1.992  0.0565  0.4325  0.2542
 8899TIP3    H150892   1.434   2.685   1.935  0.1411 -2.8905  1.2947
 8899TIP3    H250893   1.290   2.731   1.933  1.0296  0.1886 -1.0566
 8900TIP3   OH250894   3.121   4.949   3.980 -0.3648  0.0098  0.0811
 8900TIP3    H150895   3.081   4.863   3.992 -0.2387 -0.1458 -0.5928
 8900TIP3    H250896   3.115   4.990   4.067 -0.1481 -0.7945  0.4884
 8901TIP3   OH250897   4.814   3.700   1.936  0.3897 -0.0608 -0.0337
 8901TIP3    H150898   4.899   3.736   1.910 -0.2394  0.1204 -2.0227
 8901TIP3    H250899   4.830   3.607   1.948  0.8268 -0.0612 -0.5951
 8902TIP3   OH250900   3.317   1.858   1.891  0.4025 -0.0814  0.1526
 8902TIP3    H150901   3.290   1.925   1.954  0.0714  0.6026 -0.7038
 8902TIP3    H250902   3.271   1.779   1.920 -0.6659  0.5018  0.1103
 8903TIP3   OH250903   5.883   2.213   2.420  0.3075 -0.6041 -0.2144
 8903TIP3    H150904   5.957   2.199   2.361  2.3558 -0.0404  2.0602
 8903TIP3    H250905   5.902   2.296   2.464 -0.3520 -1.6414  2.2313
 8904TIP3   OH250906   6.767   5.757   0.693  0.2856 -0.2443  0.1192
 8904TIP3    H150907   6.772   5.682   0.752  1.2068 -0.2689  0.0336
 8904TIP3    H250908   6.800   5.724   0.609  0.2622  0.1341 -0.0430
 8905TIP3   OH250909   3.801   2.566   1.707  0.2034 -0.0293 -0.3826
 8905TIP3    H150910   3.744   2.574   1.784 -0.8423 -0.0157 -1.1400
 8905TIP3    H250911   3.793   2.651   1.663 -0.3552 -0.5358 -1.2748
 8906TIP3   OH250912   4.032   5.186   1.857 -0.2898 -0.5307 -0.1710
 8906TIP3    H150913   4.120   5.219   1.875 -0.1908 -1.3721  1.0096
 8906TIP3    H250914   3.998   5.245   1.790  1.0680 -0.0246 -0.4579
 8907TIP3   OH250915   5.136   6.170   1.338  0.1489  1.0215  0.1712
 8907TIP3    H150916   5.058   6.223   1.357  0.3775  1.4693 -0.1000
 8907TIP3    H250917   5.204   6.207   1.393  0.4286  1.3233 -0.3653
 8908TIP3   OH250918   6.106   2.500   1.727 -0.1958 -0.4555 -0.0213
 8908TIP3    H150919   6.172   2.459   1.671  1.1108  0.6425  0.6561
 8908TIP3    H250920   6.023   2.462   1.698  0.6186 -1.1652 -1.5380
 8909TIP3   OH250921   6.089   6.243   1.064 -0.0596 -0.6552  0.1208
 8909TIP3    H150922   6.107   6.324   1.111 -0.2013 -1.5353  1.7653
 8909TIP3    H250923   6.048   6.271   0.982  1.3669  0.9941 -0.0985
 8910TIP3   OH250924   5.854   0.797   3.737 -0.2072 -0.0466  0.1668
 8910TIP3    H150925   5.822   0.707   3.737 -0.3479 -0.0653  2.5809
 8910TIP3    H250926   5.803   0.841   3.805 -0.8073  2.1638 -1.5495
 8911TIP3   OH250927   3.673   3.132   3.613 -0.0587 -0.0974  0.2303
 8911TIP3    H150928   3.613   3.119   3.539 -0.1868  0.0678  0.3054
 8911TIP3    H250929   3.730   3.204   3.586 -0.5231  0.3968  0.5539
 8912TIP3   OH250930   5.738   1.897   0.905  0.5117  0.4809 -0.1631
 8912TIP3    H150931   5.645   1.891   0.927  0.4156  1.2300 -0.3307
 8912TIP3    H250932   5.750   1.988   0.877  0.6751 -0.3477 -3.0473
 8913TIP3   OH250933   5.288   4.741   0.979 -0.0650  0.2109  0.0897
 8913TIP3    H150934   5.328   4.811   1.031 -0.1889 -1.1373  2.1448
 8913TIP3    H250935   5.362   4.694   0.941  0.2384 -0.5711  1.5554
 8914TIP3   OH250936   4.848   4.349   1.587  0.1181 -0.4925 -0.1476
 8914TIP3    H150937   4.863   4.260   1.556  1.2988 -0.8611  1.3776
 8914TIP3    H250938   4.755   4.365   1.571  0.3179 -1.1816 -2.3953
 8915TIP3   OH250939   6.068   5.277   1.893 -0.1089 -0.3385 -0.0428
 8915TIP3    H150940   6.150   5.257   1.847 -0.8146  0.5571 -1.7823
 8915TIP3    H250941   6.096   5.304   1.980  1.2593 -2.4834  0.2457
 8916TIP3   OH250942   5.434   4.408   3.901 -0.3084  0.1922 -0.5929
 8916TIP3    H150943   5.394   4.494   3.897 -0.2393  0.2449 -0.2094
 8916TIP3    H250944   5.369   4.353   3.945 -0.2106  0.1300 -0.5257
 8917TIP3   OH250945   2.339   5.307   2.408 -0.3452 -0.5083  0.1988
 8917TIP3    H150946   2.313   5.280   2.320  0.4221  1.3449 -0.6509
 8917TIP3    H250947   2.346   5.225   2.457  0.3109 -1.7013 -1.7724
 8918TIP3   OH250948   6.640   6.420   2.421  0.5804 -0.2476 -0.1897
 8918TIP3    H150949   6.675   6.505   2.448  2.9982 -1.6617  1.5152
 8918TIP3    H250950   6.545   6.432   2.424  0.8010  2.6831 -1.1922
 8919TIP3   OH250951   0.120   1.327   3.019 -0.1002 -0.4035  0.6206
 8919TIP3    H150952   0.092   1.250   2.970  1.4594 -0.5643 -0.1136
 8919TIP3    H250953   0.214   1.312   3.034 -0.0963  0.6556  1.7964
 8920TIP3   OH250954   1.697   4.463   1.945 -0.2381 -0.2972 -0.1585
 8920TIP3    H150955   1.737   4.427   1.865 -0.0613  0.1893 -0.2942
 8920TIP3    H250956   1.765   4.520   1.982 -0.6895  0.2844 -0.2173
 8921TIP3   OH250957   5.565   2.562   3.525 -0.4008 -0.5993 -0.2643
 8921TIP3    H150958   5.657   2.546   3.546 -0.9264 -1.7199  1.4276
 8921TIP3    H250959   5.564   2.581   3.432  1.6662  0.5544 -0.1037
 8922TIP3   OH250960   2.724   5.147   2.901  0.3198 -0.3004 -0.1135
 8922TIP3    H150961   2.733   5.175   2.992  1.5389 -2.2389  0.4147
 8922TIP3    H250962   2.813   5.150   2.866 -0.1577  0.5742 -1.3231
 8923TIP3   OH250963   0.681   6.675   2.637  0.2379  0.2391  0.3983
 8923TIP3    H150964   0.625   6.602   2.609 -0.1262  0.3569  0.7948
 8923TIP3    H250965   0.619   6.744   2.661  0.4774 -0.1172  2.2243
 8924TIP3   OH250966   0.087   0.529   2.934 -0.3893 -0.2767 -0.0016
 8924TIP3    H150967   0.147   0.479   2.990 -0.0572  0.0663 -0.0469
 8924TIP3    H250968   0.105   0.621   2.956 -1.6250 -0.1990  0.7323
 8925TIP3   OH250969   4.266   6.126   1.410  0.4643  0.1042 -0.2368
 8925TIP3    H150970   4.338   6.189   1.405  0.1841  0.5306  0.9010
 8925TIP3    H250971   4.189   6.178   1.432 -0.0878 -0.4322 -0.8411
 8926TIP3   OH250972   2.157   2.598   0.952  0.2607 -0.3688 -0.0651
 8926TIP3    H150973   2.158   2.641   0.867  0.6130  0.0292  0.1365
 8926TIP3    H250974   2.245   2.610   0.986 -0.0498  0.0199  0.6246
 8927TIP3   OH250975   2.962   4.810   1.194 -0.8353  0.1051 -0.0239
 8927TIP3    H150976   2.952   4.891   1.244 -0.1300 -0.1963  0.6252
 8927TIP3    H250977   2.943   4.835   1.104  1.3691  1.4708 -0.1643
 8928TIP3   OH250978   2.678   4.001   1.453 -0.2030  0.1856  0.6210
 8928TIP3    H150979   2.667   3.965   1.541  0.1229 -1.1543  0.1343
 8928TIP3    H250980   2.687   4.096   1.466  0.0460 -0.0223  2.0388
 8929TIP3   OH250981   0.905   5.084   1.858  0.1262 -0.4275 -0.0577
 8929TIP3    H150982   0.832   5.078   1.796 -0.4049  1.6887  0.2967
 8929TIP3    H250983   0.863   5.098   1.943  0.8673  2.6801 -0.0918
 8930TIP3   OH250984   2.829   0.826   1.222  0.4091 -0.5092 -0.5273
 8930TIP3    H150985   2.801   0.898   1.278  2.6295  0.3636 -0.4725
 8930TIP3    H250986   2.757   0.816   1.159 -0.3885  1.0577  0.0787
 8931TIP3   OH250987   1.719   1.936   3.299  0.2548 -0.6445 -0.6915
 8931TIP3    H150988   1.641   1.887   3.325 -0.4982  1.0472  0.4244
 8931TIP3    H250989   1.765   1.954   3.381 -0.4108  1.9297 -0.7746
 8932TIP3   OH250990   1.829   6.780   2.320 -0.3412 -0.3387  0.2263
 8932TIP3    H150991   1.788   6.706   2.364  0.5970  0.8112  3.3367
 8932TIP3    H250992   1.802   6.857   2.371  2.8743  0.8204  0.4314
 8933TIP3   OH250993   3.355   2.774   0.887 -0.0120  0.2087 -0.2692
 8933TIP3    H150994   3.418   2.708   0.858 -0.8291  0.0166 -1.7336
 8933TIP3    H250995   3.359   2.771   0.982  0.8791 -1.0636 -0.3155
 8934TIP3   OH250996   0.819   5.417   2.069 -0.1284  0.1850 -0.5150
 8934TIP3    H150997   0.763   5.452   2.139 -1.1676  0.7433 -1.6059
 8934TIP3    H250998   0.828   5.490   2.008  3.2261  0.7185  0.4126
 8935TIP3   OH250999   0.132   0.778   2.426 -0.2012  0.4109 -0.2247
 8935TIP3    H151000   0.205   0.718   2.411  1.6053  2.3320  0.2948
 8935TIP3    H251001   0.128   0.787   2.521 -1.8265 -0.4213 -0.1848
 8936TIP3   OH251002   1.468   1.255   2.711  0.3493 -0.2485 -0.0757
 8936TIP3    H151003   1.543   1.217   2.664  1.6596 -1.4653  2.7214
 8936TIP3    H251004   1.397   1.193   2.697  1.2174 -1.5070  0.8628
 8937TIP3   OH251005   5.423   6.748   1.166 -0.0529 -0.2592  0.4743
 8937TIP3    H151006   5.417   6.792   1.251 -0.3207 -0.4308  0.5469
 8937TIP3    H251007   5.434   6.655   1.189  2.8745 -0.0271  0.3662
 8938TIP3   OH251008   2.954   4.485   1.873 -1.1041  0.3986  0.2938
 8938TIP3    H151009   2.936   4.396   1.841 -1.6996  0.2242  1.0594
 8938TIP3    H251010   2.939   4.479   1.968 -0.2932  1.1105  0.4746
 8939TIP3   OH251011   0.668   5.209   2.522  0.1754 -0.5473  0.1703
 8939TIP3    H151012   0.654   5.128   2.473 -2.4466 -1.1800  1.7628
 8939TIP3    H251013   0.636   5.190   2.610 -0.3668  2.1669  0.6619
 8940TIP3   OH251014   0.059   5.615   0.473 -0.2977 -0.4635  0.0821
 8940TIP3    H151015  -0.023   5.635   0.427 -0.0911 -0.6709 -0.3824
 8940TIP3    H251016   0.057   5.519   0.483 -0.9723 -0.3117  1.6994
 8941TIP3   OH251017   4.458   4.219   3.595  0.3447 -0.5420 -0.3695
 8941TIP3    H151018   4.498   4.263   3.670 -2.5409 -0.2134  1.1106
 8941TIP3    H251019   4.364   4.217   3.615 -0.4266 -1.4743 -3.4707
 8942TIP3   OH251020   2.303   0.415   0.667 -0.0777  0.1705 -0.2256
 8942TIP3    H151021   2.280   0.508   0.663 -1.1705 -0.1204 -2.2399
 8942TIP3    H251022   2.395   0.412   0.641 -0.3910  0.6084 -1.4585
 8943TIP3   OH251023   1.949   2.585   1.556 -0.2716  0.2864  0.0887
 8943TIP3    H151024   1.973   2.678   1.561 -0.9299  0.4373  0.4768
 8943TIP3    H251025   1.909   2.575   1.470  2.3709 -0.2673 -1.1804
 8944TIP3   OH251026   2.178   6.782   1.550 -0.3228  0.8767  0.0070
 8944TIP3    H151027   2.122   6.748   1.480 -0.3754  0.4171  0.2693
 8944TIP3    H251028   2.181   6.876   1.534 -0.6813  0.8297 -0.3635
 8945TIP3   OH251029   0.963   3.100   1.187 -0.4858 -0.6399  0.3884
 8945TIP3    H151030   1.011   3.064   1.112 -1.0800 -2.1655  0.6891
 8945TIP3    H251031   1.014   3.176   1.214  0.6911 -1.0792 -0.4862
 8946TIP3   OH251032   0.733   1.337   2.844 -0.9683 -0.2536  0.3314
 8946TIP3    H151033   0.666   1.380   2.897  0.1792 -1.6188  3.1204
 8946TIP3    H251034   0.808   1.328   2.903  0.7788 -1.0967 -1.8576
 8947TIP3   OH251035   4.474   2.576   2.611  0.8063  0.5444  0.2949
 8947TIP3    H151036   4.392   2.551   2.568  1.0799  0.4760 -0.1958
 8947TIP3    H251037   4.484   2.669   2.592  0.5447  0.6955  0.8621
 8948TIP3   OH251038   2.881   2.828   2.009  0.1585  0.2022  0.3174
 8948TIP3    H151039   2.910   2.808   2.098 -2.0394  1.0550  1.2910
 8948TIP3    H251040   2.905   2.751   1.958  1.8939 -0.1053  1.5209
 8949TIP3   OH251041   1.636   6.012   3.028  0.6514 -0.1790 -0.3346
 8949TIP3    H151042   1.607   5.922   3.047  0.5737  0.0010  0.4623
 8949TIP3    H251043   1.629   6.057   3.112  2.3521  0.1197 -0.3234
 8950TIP3   OH251044   2.867   2.243   2.000 -0.0534 -0.0702  0.0142
 8950TIP3    H151045   2.834   2.328   1.970  1.0503 -0.2997 -2.0606
 8950TIP3    H251046   2.789   2.187   2.002 -0.6304  0.7237  0.4084
 8951TIP3   OH251047   1.270   4.556   2.256  0.0413 -0.1417 -0.0881
 8951TIP3    H151048   1.318   4.558   2.339  0.9929  0.6844 -0.6361
 8951TIP3    H251049   1.336   4.574   2.189 -0.3124 -2.6951 -1.2480
 8952TIP3   OH251050   5.770   0.646   1.799  0.0608 -0.4396  0.2717
 8952TIP3    H151051   5.786   0.567   1.748 -0.2656  0.3232 -1.0738
 8952TIP3    H251052   5.844   0.704   1.777 -0.4617  0.1724  0.0827
 8953TIP3   OH251053   3.859   1.952   1.481 -0.2794  0.2585  0.3955
 8953TIP3    H151054   3.808   1.992   1.551  1.2976  0.5679  1.4248
 8953TIP3    H251055   3.950   1.959   1.510  0.1606 -4.9589  1.1985
 8954TIP3   OH251056   5.208   0.924   3.737 -0.4771 -0.4983 -0.1690
 8954TIP3    H151057   5.271   0.883   3.678 -0.0170  1.3476 -1.0457
 8954TIP3    H251058   5.130   0.937   3.683 -0.6929 -0.4287  0.1576
 8955TIP3   OH251059   3.255   1.289   2.888 -0.3211 -0.5752  0.1956
 8955TIP3    H151060   3.210   1.274   2.806  0.5182  2.2350 -0.9249
 8955TIP3    H251061   3.290   1.204   2.913  1.7600 -1.1752 -3.8671
 8956TIP3   OH251062   2.818   1.710   1.345 -0.0720 -0.2882  0.0954
 8956TIP3    H151063   2.851   1.763   1.273  1.1604  0.8621  1.4437
 8956TIP3    H251064   2.811   1.771   1.419  0.5063 -1.7893  1.4535
 8957TIP3   OH251065   3.110   4.033   3.169 -0.1651  0.1615 -0.0222
 8957TIP3    H151066   3.132   3.972   3.239  0.4351 -0.1791 -0.5000
 8957TIP3    H251067   3.050   3.984   3.113  1.7103 -0.6801 -1.3998
 8958TIP3   OH251068   1.107   6.434   0.697 -0.0983  0.3146 -0.2850
 8958TIP3    H151069   1.108   6.451   0.791  0.0487 -0.5686 -0.1189
 8958TIP3    H251070   1.037   6.370   0.684  2.5474 -2.8739 -0.1339
 8959TIP3   OH251071   2.880   6.152   2.980  0.2731  0.4362 -0.1432
 8959TIP3    H151072   2.974   6.153   2.999  0.3392 -0.2493 -0.4075
 8959TIP3    H251073   2.839   6.192   3.057  0.6635 -0.7460  0.7180
 8960TIP3   OH251074   5.133   4.213   2.640  0.1120 -0.2576  0.1982
 8960TIP3    H151075   5.088   4.183   2.719  0.3569 -0.7267  0.1657
 8960TIP3    H251076   5.194   4.279   2.671  0.7356 -0.9671  0.5175
 8961TIP3   OH251077   1.175   1.275   1.052 -0.2725 -0.2602  0.1179
 8961TIP3    H151078   1.149   1.353   1.101  0.2315  0.9271 -1.4167
 8961TIP3    H251079   1.098   1.218   1.053 -0.5403  0.0820  1.5390
 8962TIP3   OH251080   5.840   1.393   1.306 -0.3245  0.3427  0.0687
 8962TIP3    H151081   5.833   1.318   1.248  0.5303 -0.5093  1.0192
 8962TIP3    H251082   5.753   1.434   1.303 -1.0877 -1.1901  0.1938
 8963TIP3   OH251083   5.779   0.081   2.300 -0.2001 -0.3698 -0.4650
 8963TIP3    H151084   5.733   0.004   2.266 -1.3296  0.8497 -1.8365
 8963TIP3    H251085   5.710   0.132   2.343  0.5210 -0.0608  0.3495
 8964TIP3   OH251086   4.082   0.161   2.176 -0.1878 -0.5377  0.2244
 8964TIP3    H151087   4.157   0.205   2.137 -1.6144  0.2299 -1.8594
 8964TIP3    H251088   4.028   0.232   2.211 -2.0652 -0.5602 -2.3489
 8965TIP3   OH251089   4.573   3.106   3.127 -0.0567  0.2947  0.5042
 8965TIP3    H151090   4.501   3.160   3.159 -0.6804 -0.7818  0.9415
 8965TIP3    H251091   4.639   3.110   3.197  0.2871  1.1768  0.1563
 8966TIP3   OH251092   1.923   1.229   0.960  0.1494 -0.2404  0.6500
 8966TIP3    H151093   1.929   1.170   1.035 -0.3230  1.2273  1.9104
 8966TIP3    H251094   1.933   1.173   0.883  0.8575 -1.7628  1.8158
 8967TIP3   OH251095   1.347   5.456   1.934 -0.0360  0.7940 -0.3533
 8967TIP3    H151096   1.302   5.492   2.010  0.8315 -0.0315  0.5809
 8967TIP3    H251097   1.324   5.363   1.934  0.3949  0.6824 -0.7878
 8968TIP3   OH251098   4.738   0.122   1.313 -0.3889  0.1702 -0.5599
 8968TIP3    H151099   4.672   0.108   1.245 -0.4638 -0.4452 -0.3668
 8968TIP3    H251100   4.801   0.182   1.273  0.1985 -1.0909 -1.6381
 8969TIP3   OH251101   2.464   0.065   2.507 -0.2924  0.1029 -0.5620
 8969TIP3    H151102   2.389   0.113   2.543 -0.2022  0.5100 -0.9068
 8969TIP3    H251103   2.493   0.118   2.433 -0.3584 -0.6204 -1.1262
 8970TIP3   OH251104   2.757   1.288   1.953  0.2823  0.1345 -0.1588
 8970TIP3    H151105   2.759   1.250   2.041 -1.0072  1.6853  0.5855
 8970TIP3    H251106   2.664   1.304   1.936  0.6029  0.7842 -1.3980
 8971TIP3   OH251107   6.597   3.807   2.194  0.0391  0.0322 -0.1661
 8971TIP3    H151108   6.544   3.790   2.272  0.4757 -1.9231 -0.2256
 8971TIP3    H251109   6.546   3.768   2.122 -0.2049  1.5187 -0.8289
 8972TIP3   OH251110   0.889   0.951   0.851 -0.0039 -0.2841  0.0190
 8972TIP3    H151111   0.932   0.868   0.834  0.4722 -0.5228  2.0991
 8972TIP3    H251112   0.843   0.972   0.770  0.3125 -2.2839 -0.7194
 8973TIP3   OH251113   3.468   4.727   2.851  0.1055  0.0955 -0.3446
 8973TIP3    H151114   3.437   4.798   2.907  0.0314 -0.3080  0.1392
 8973TIP3    H251115   3.556   4.708   2.882  1.2660  1.8602 -2.3193
 8974TIP3   OH251116   5.854   4.534   1.721  0.2957  0.1846 -0.2547
 8974TIP3    H151117   5.760   4.534   1.738  0.3065  1.1370 -0.1196
 8974TIP3    H251118   5.861   4.543   1.626  0.2347  1.3909 -0.1645
 8975TIP3   OH251119   5.141   0.474   1.044 -0.1871  0.0243 -0.3325
 8975TIP3    H151120   5.047   0.476   1.027 -0.2247 -0.2457 -0.1523
 8975TIP3    H251121   5.151   0.509   1.132 -0.0994  0.2519 -0.4324
 8976TIP3   OH251122   1.939   4.338   1.231 -0.2780  0.3961  0.1079
 8976TIP3    H151123   1.938   4.367   1.140  0.9695  1.2854  0.3541
 8976TIP3    H251124   1.853   4.299   1.244 -1.0792  1.6843 -0.9905
 8977TIP3   OH251125   2.708   3.056   3.254  0.7126 -0.0646  0.0217
 8977TIP3    H151126   2.669   3.143   3.256  0.9081  0.0177  0.2860
 8977TIP3    H251127   2.799   3.070   3.281  1.2432 -0.0833 -1.6414
 8978TIP3   OH251128   1.079   5.255   2.950 -0.4806  0.0005 -0.3464
 8978TIP3    H151129   1.080   5.339   2.905  0.3394  0.4245  0.4291
 8978TIP3    H251130   1.111   5.275   3.038  0.9939 -1.3328 -0.5375
 8979TIP3   OH251131   0.265   4.350   0.958  0.2397  0.0274  0.2126
 8979TIP3    H151132   0.354   4.385   0.962  0.2697  0.1387 -1.1109
 8979TIP3    H251133   0.273   4.268   0.909 -0.3605 -0.0705  0.2682
 8980TIP3   OH251134   6.564   0.348   3.492  0.0426 -0.1676 -0.8447
 8980TIP3    H151135   6.598   0.296   3.419 -2.4878 -1.4928 -1.1679
 8980TIP3    H251136   6.518   0.421   3.450  2.5642  1.8287 -0.4048
 8981TIP3   OH251137   6.309   5.636   3.170  0.0019 -0.2512 -0.6825
 8981TIP3    H151138   6.262   5.555   3.190 -1.0291  0.3607 -0.5069
 8981TIP3    H251139   6.267   5.668   3.090 -1.2413  1.2856  0.5135
 8982TIP3   OH251140   4.195   1.086   2.645  0.2403 -0.5350  0.4489
 8982TIP3    H151141   4.210   1.174   2.679 -0.4555 -1.5893  3.9614
 8982TIP3    H251142   4.280   1.043   2.653  0.3113 -0.5220 -0.1870
 8983TIP3   OH251143   5.081   4.006   2.435 -0.5977 -0.5587 -0.1193
 8983TIP3    H151144   5.047   4.061   2.365  1.0368 -0.0777 -0.5641
 8983TIP3    H251145   5.076   4.061   2.513  1.6703  0.5589 -0.6788
 8984TIP3   OH251146   3.172   3.687   1.503 -0.1973  0.0399  0.6819
 8984TIP3    H151147   3.112   3.679   1.429 -1.8509 -3.0554  2.1973
 8984TIP3    H251148   3.120   3.730   1.572  0.4931  0.5259  0.9154
 8985TIP3   OH251149   0.660   4.060   2.541  0.7019  0.7767 -0.2950
 8985TIP3    H151150   0.754   4.048   2.554  0.4632 -0.6394  0.2570
 8985TIP3    H251151   0.644   4.151   2.568  2.1019  1.4661 -1.6324
 8986TIP3   OH251152   3.765   4.970   2.559  0.1163  0.5112  0.1025
 8986TIP3    H151153   3.670   4.971   2.575 -0.0199 -0.7330 -0.5229
 8986TIP3    H251154   3.782   5.051   2.510 -0.1756  2.0703  2.4346
 8987TIP3   OH251155   2.319   3.813   2.917 -0.5410 -0.1152 -0.3341
 8987TIP3    H151156   2.261   3.780   2.986  0.3129 -2.0752 -0.4982
 8987TIP3    H251157   2.383   3.867   2.964 -1.0969  0.1345  0.1450
 8988TIP3   OH251158   1.420   1.976   2.433  0.1305 -0.4440  0.1356
 8988TIP3    H151159   1.423   1.947   2.342 -2.0559 -0.4972  0.0272
 8988TIP3    H251160   1.496   1.935   2.474  2.0061  0.7587 -1.9490
 8989TIP3   OH251161   1.830   5.550   1.346 -0.2385  0.5253  0.1629
 8989TIP3    H151162   1.801   5.599   1.423 -2.1254 -1.9851  1.1780
 8989TIP3    H251163   1.751   5.509   1.313  1.0162 -0.6347 -1.5166
 8990TIP3   OH251164   6.060   2.040   3.920  0.5730  0.6930 -0.6975
 8990TIP3    H151165   6.057   1.967   3.983  0.7860 -1.3431 -2.9091
 8990TIP3    H251166   6.043   2.117   3.973 -1.9334 -1.1535  1.4736
 8991TIP3   OH251167   3.578   0.877   2.705 -0.1436 -0.0796  0.0775
 8991TIP3    H151168   3.560   0.858   2.613 -2.5554 -1.3677  0.7411
 8991TIP3    H251169   3.520   0.818   2.754 -0.7862  2.2984  2.4033
 8992TIP3   OH251170   6.420   1.026   1.437  0.1797 -0.1927  0.0365
 8992TIP3    H151171   6.426   1.110   1.390  0.1699 -0.0946  0.2105
 8992TIP3    H251172   6.363   0.972   1.382 -0.2304  0.0865  0.1817
 8993TIP3   OH251173   1.133   2.690   1.596  0.1009  0.2781  0.2826
 8993TIP3    H151174   1.151   2.597   1.611 -0.5898 -0.3608 -2.2541
 8993TIP3    H251175   1.117   2.726   1.683  0.3633 -1.9876  1.3403
 8994TIP3   OH251176   5.943   6.292   3.116  0.2648  0.4748  0.6025
 8994TIP3    H151177   5.936   6.198   3.102 -1.9744  0.6237  0.2512
 8994TIP3    H251178   5.998   6.324   3.045 -0.2071 -0.3896 -0.1601
 8995TIP3   OH251179   3.014   4.631   3.558 -1.0959 -0.4163  0.1860
 8995TIP3    H151180   2.960   4.631   3.637 -0.7555 -1.2934  0.4244
 8995TIP3    H251181   2.982   4.557   3.506  0.4553 -1.5280  0.7472
 8996TIP3   OH251182   6.681   3.644   1.014  0.4545  0.4994  0.2200
 8996TIP3    H151183   6.742   3.636   0.941  1.7638  0.8471  1.2403
 8996TIP3    H251184   6.727   3.605   1.088 -0.2358  1.4897  1.1998
 8997TIP3   OH251185   2.776   2.108   2.472  0.2966 -0.0224 -0.1903
 8997TIP3    H151186   2.795   2.124   2.564  0.8092  0.5495 -0.3846
 8997TIP3    H251187   2.854   2.064   2.438  0.7788  1.1498 -0.6872
 8998TIP3   OH251188   0.007   1.136   1.920 -0.2816  0.2251  0.7870
 8998TIP3    H151189   0.069   1.063   1.929 -0.3174  0.0872 -0.0349
 8998TIP3    H251190  -0.036   1.141   2.006  1.2754  0.7044  1.5807
 8999TIP3   OH251191   4.250   1.610   1.532 -0.2194 -0.1224 -0.1587
 8999TIP3    H151192   4.215   1.681   1.478  0.3653  0.6723  0.4846
 8999TIP3    H251193   4.326   1.648   1.576 -1.1442 -0.4798  1.8708
 9000TIP3   OH251194   0.964   2.927   2.466  0.5501  0.1971  0.0288
 9000TIP3    H151195   0.954   3.021   2.453  0.6942  0.0277 -1.5005
 9000TIP3    H251196   1.059   2.913   2.465  0.5150 -0.0954 -1.0450
 9001TIP3   OH251197   1.140   1.650   2.395 -0.0075 -0.2579 -0.8399
 9001TIP3    H151198   1.150   1.662   2.301  1.5385 -0.6273 -0.7518
 9001TIP3    H251199   1.223   1.610   2.423  0.6722  2.2618  1.0840
 9002TIP3   OH251200   3.651   3.910   2.716 -0.0407  0.4068  0.1731
 9002TIP3    H151201   3.620   3.991   2.675  0.1566  0.6001  0.4051
 9002TIP3    H251202   3.572   3.869   2.750 -0.0591  0.8508  0.6788
 9003TIP3   OH251203   0.426   5.731   2.360 -0.0313 -0.0055  0.3161
 9003TIP3    H151204   0.511   5.760   2.393  0.6771 -0.6220 -0.9180
 9003TIP3    H251205   0.443   5.647   2.318 -0.9827  0.4455 -1.0649
 9004TIP3   OH251206   1.905   1.868   1.735  0.4015  0.3799  0.2186
 9004TIP3    H151207   1.970   1.833   1.795  2.0936  1.2060 -1.0510
 9004TIP3    H251208   1.915   1.816   1.655 -1.2746 -0.1950  0.3354
 9005TIP3   OH251209   1.461   0.889   1.210  0.5824 -0.4756  1.0247
 9005TIP3    H151210   1.553   0.909   1.196  0.4312  0.3646  1.1676
 9005TIP3    H251211   1.414   0.964   1.174  0.0615  0.1585  2.8839
 9006TIP3   OH251212   4.999   3.679   2.494  0.2204  0.3411  0.1443
 9006TIP3    H151213   5.082   3.722   2.515  0.0141  1.6348 -1.4775
 9006TIP3    H251214   4.943   3.749   2.462 -1.1543 -0.6877  0.2197
 9007TIP3   OH251215   2.747   0.785   0.602  0.2702 -0.0922 -0.3163
 9007TIP3    H151216   2.779   0.695   0.599 -0.2122 -0.2377 -1.3284
 9007TIP3    H251217   2.737   0.803   0.696  0.4683 -1.0518 -0.0996
 9008TIP3   OH251218   2.055   2.216   2.963  0.4572  0.4405 -0.0799
 9008TIP3    H151219   2.006   2.178   3.036  1.0617  0.4175  0.3197
 9008TIP3    H251220   2.133   2.255   3.004 -0.0978  2.0474 -0.4927
 9009TIP3   OH251221   4.352   0.407   0.949  0.6967  0.2328  0.3909
 9009TIP3    H151222   4.288   0.354   0.902  1.2339 -0.9334  0.9491
 9009TIP3    H251223   4.314   0.495   0.951 -0.1192 -0.0881 -0.7069
 9010TIP3   OH251224   0.269   5.748   3.141 -0.5296 -0.0761 -0.4117
 9010TIP3    H151225   0.257   5.839   3.169 -1.3158 -0.7219  1.5331
 9010TIP3    H251226   0.183   5.708   3.155  0.2027 -1.4801  0.1773
 9011TIP3   OH251227   6.340   1.014   2.538  0.6005  0.8172  0.4666
 9011TIP3    H151228   6.292   1.015   2.456  1.2428 -1.7459 -0.0286
 9011TIP3    H251229   6.401   1.087   2.532  2.0666 -0.5134 -2.2802
 9012TIP3   OH251230   1.110   5.574   3.342 -0.4839 -0.4533 -0.2492
 9012TIP3    H151231   1.131   5.593   3.433  0.1417 -0.1780 -0.4406
 9012TIP3    H251232   1.059   5.650   3.313 -1.5544 -1.0030  0.1444
 9013TIP3   OH251233   3.819   0.160   4.405  0.3734  0.4392 -0.2887
 9013TIP3    H151234   3.824   0.087   4.344 -0.9424 -0.2852  0.4453
 9013TIP3    H251235   3.789   0.122   4.487  0.2010  1.7086  0.2704
 9014TIP3   OH251236   0.599   1.504   1.905 -0.0807 -0.1396  0.2330
 9014TIP3    H151237   0.516   1.458   1.920 -0.7806  0.7782 -0.6237
 9014TIP3    H251238   0.572   1.595   1.890  1.1339  0.2514  0.3725
 9015TIP3   OH251239   3.247   6.754   4.283 -0.4066  0.3690  0.9541
 9015TIP3    H151240   3.265   6.839   4.324  1.6517  0.3115  0.2882
 9015TIP3    H251241   3.235   6.774   4.190  2.4169 -0.2408  0.3794
 9016TIP3   OH251242   2.240   3.921   1.085 -0.9269  0.0246  0.1741
 9016TIP3    H151243   2.208   3.841   1.127 -0.6321 -0.2430 -0.1080
 9016TIP3    H251244   2.214   3.991   1.144 -1.1429 -0.2860  0.4488
 9017TIP3   OH251245   3.099   0.185   2.513  0.6355 -0.0033  0.0037
 9017TIP3    H151246   3.155   0.200   2.437 -1.5909  0.9856 -1.5641
 9017TIP3    H251247   3.100   0.090   2.525 -0.9297 -0.5360 -2.9947
 9018TIP3   OH251248   3.337   6.116   3.358  0.1836  0.1537 -0.2764
 9018TIP3    H151249   3.412   6.174   3.351 -0.9832  1.7214 -0.2149
 9018TIP3    H251250   3.301   6.134   3.445 -0.7410  0.0397 -0.6203
 9019TIP3   OH251251   6.072   6.595   2.716  0.5319  0.4164  0.2541
 9019TIP3    H151252   5.992   6.547   2.697  0.0655  1.3299 -0.1627
 9019TIP3    H251253   6.140   6.549   2.667  0.0884  0.2243 -0.1894
 9020TIP3   OH251254   6.493   3.851   0.933 -0.0164  0.1535 -0.2376
 9020TIP3    H151255   6.501   3.763   0.971 -1.6597  1.3290  3.3402
 9020TIP3    H251256   6.574   3.896   0.959 -1.0797  0.9151  2.0226
 9021TIP3   OH251257   6.060   2.186   3.348  0.6437 -0.0527  0.0127
 9021TIP3    H151258   6.051   2.253   3.415 -1.6317  0.0078 -0.2612
 9021TIP3    H251259   6.132   2.131   3.379  0.2910  0.5225  2.0265
 9022TIP3   OH251260   6.426   2.322   2.103  0.1618 -0.8516  0.6378
 9022TIP3    H151261   6.468   2.247   2.061  2.0871  0.9896 -0.9606
 9022TIP3    H251262   6.353   2.344   2.045  0.5946 -0.5296  0.2033
 9023TIP3   OH251263   4.565   4.410   2.090  0.3552  0.5167 -0.0732
 9023TIP3    H151264   4.541   4.478   2.027  1.6701  0.6496 -0.4690
 9023TIP3    H251265   4.633   4.359   2.045  0.2967 -0.2629  0.7028
 9024TIP3   OH251266   5.734   4.729   2.699 -0.6170  0.1049  0.0997
 9024TIP3    H151267   5.769   4.737   2.610  1.7895 -0.0688  0.9536
 9024TIP3    H251268   5.712   4.636   2.709  2.1372 -0.5803  0.6363
 9025TIP3   OH251269   4.003   6.657   4.418  0.3672 -0.3214 -0.0725
 9025TIP3    H151270   3.970   6.713   4.348 -0.4546 -1.8154 -0.9286
 9025TIP3    H251271   3.925   6.625   4.464  0.7405 -1.5265 -0.2255
 9026TIP3   OH251272   6.052   1.237   2.783 -0.9464 -0.2966  0.6347
 9026TIP3    H151273   6.055   1.326   2.748 -1.3806 -0.1183  1.0304
 9026TIP3    H251274   6.047   1.180   2.706 -1.7371  0.0749  0.4041
 9027TIP3   OH251275   6.428   2.678   2.376  1.0560 -0.3079  0.1540
 9027TIP3    H151276   6.448   2.612   2.442  0.7681 -3.0353 -2.2703
 9027TIP3    H251277   6.447   2.634   2.292  2.8613  3.4044 -1.6195
 9028TIP3   OH251278   0.644   0.737   1.431  0.1186 -0.2044  0.2388
 9028TIP3    H151279   0.578   0.669   1.417 -0.4564  0.6457 -1.6019
 9028TIP3    H251280   0.648   0.784   1.347  1.9843  0.7270  0.7820
 9029TIP3   OH251281   5.880   4.547   1.458  0.1051 -0.2883 -0.0304
 9029TIP3    H151282   5.964   4.511   1.432 -0.6383 -1.7271 -0.5376
 9029TIP3    H251283   5.849   4.595   1.381 -0.2456 -1.1113 -0.4154
 9030TIP3   OH251284   2.917   1.885   3.984 -0.3145 -0.2106 -0.2753
 9030TIP3    H151285   2.877   1.967   3.953  0.9207  0.3160 -0.5066
 9030TIP3    H251286   2.842   1.829   4.003 -1.2398 -0.6118 -4.2460
 9031TIP3   OH251287   3.649   2.133   2.745  0.4219 -0.0208  0.5577
 9031TIP3    H151288   3.734   2.118   2.785  0.1322  0.2790  1.2982
 9031TIP3    H251289   3.610   2.045   2.739  0.6943 -0.1329  0.4077
 9032TIP3   OH251290   4.484   2.904   0.630  0.0955  0.1778  0.5140
 9032TIP3    H151291   4.388   2.902   0.624  0.1692 -1.7394 -1.3163
 9032TIP3    H251292   4.509   2.976   0.572 -0.2279 -0.5734 -0.6119
 9033TIP3   OH251293   5.727   4.547   2.077  0.4140 -0.1927  0.4723
 9033TIP3    H151294   5.719   4.565   1.983  1.3682  2.1013  0.7699
 9033TIP3    H251295   5.783   4.469   2.082  2.0586  0.8471 -0.8434
 9034TIP3   OH251296   5.299   5.045   2.640  0.1828  0.0178  0.5800
 9034TIP3    H151297   5.243   5.122   2.635  2.5668  1.9889  1.8613
 9034TIP3    H251298   5.311   5.018   2.549  0.1440  1.8721 -0.0169
 9035TIP3   OH251299   2.207   0.914   2.692 -0.0887 -0.5762  0.3266
 9035TIP3    H151300   2.259   0.994   2.704 -2.9758  1.4525  0.4577
 9035TIP3    H251301   2.194   0.880   2.781 -0.8432  0.2486  0.5498
 9036TIP3   OH251302   4.525   4.925   0.963  0.1782  0.0102 -0.1773
 9036TIP3    H151303   4.491   4.837   0.978  1.1212 -0.3104  0.1527
 9036TIP3    H251304   4.619   4.918   0.979  0.0758  1.4059  1.2825
 9037TIP3   OH251305   0.100   2.885   3.391  0.0829 -0.2251 -0.5082
 9037TIP3    H151306   0.139   2.810   3.348 -0.3761  0.0793 -1.4844
 9037TIP3    H251307   0.159   2.905   3.464  1.3723 -0.1845 -1.5384
 9038TIP3   OH251308   4.062   2.734   1.735  0.1612 -0.4048 -0.4474
 9038TIP3    H151309   3.978   2.771   1.706  0.3059 -1.5908 -2.6486
 9038TIP3    H251310   4.059   2.643   1.704  1.3850 -1.1171  1.3787
 9039TIP3   OH251311   4.026   5.679   2.627  0.4148  0.3808 -0.8314
 9039TIP3    H151312   4.048   5.771   2.609  1.9780  0.2121  0.0212
 9039TIP3    H251313   4.100   5.630   2.591  1.3916 -0.2694  1.8688
 9040TIP3   OH251314   2.596   1.982   0.652  0.1646 -0.3069  0.3831
 9040TIP3    H151315   2.506   2.002   0.678 -0.3851 -0.2057 -1.4515
 9040TIP3    H251316   2.615   2.046   0.583  1.0659 -1.3178 -0.3300
 9041TIP3   OH251317   1.638   3.353   3.886  0.5686 -0.0764  0.0742
 9041TIP3    H151318   1.721   3.343   3.840  1.1708  2.7830  0.3605
 9041TIP3    H251319   1.662   3.385   3.973 -0.7709 -1.2904  0.9334
 9042TIP3   OH251320   5.691   2.232   3.352 -0.0587  0.2204  0.2773
 9042TIP3    H151321   5.599   2.251   3.333  0.0447  0.0257 -0.4483
 9042TIP3    H251322   5.740   2.290   3.295  0.2597 -0.7807 -0.4926
 9043TIP3   OH251323   6.634   6.659   1.569 -0.2980 -0.2202  0.0389
 9043TIP3    H151324   6.681   6.656   1.486  0.0222  2.0001  0.0893
 9043TIP3    H251325   6.553   6.706   1.548  0.2032  1.1909  1.1283
 9044TIP3   OH251326   4.423   6.034   3.081 -0.2522 -0.4013 -0.1422
 9044TIP3    H151327   4.453   6.103   3.141 -2.8550  1.4593 -0.8359
 9044TIP3    H251328   4.471   6.049   3.000  0.8421 -0.8648  0.3999
 9045TIP3   OH251329   5.202   1.822   1.057 -0.2991  0.0490  0.0228
 9045TIP3    H151330   5.186   1.738   1.014  1.7869 -0.7025  0.5893
 9045TIP3    H251331   5.131   1.829   1.121  0.2937 -2.0626  1.0218
 9046TIP3   OH251332   6.093   1.042   2.344 -0.4034 -0.0513 -0.1156
 9046TIP3    H151333   6.013   1.041   2.292 -0.1208 -0.4819 -0.5403
 9046TIP3    H251334   6.161   1.073   2.284  0.7826 -4.3395 -1.2724
 9047TIP3   OH251335   3.053   2.335   1.292  0.2859  0.3078 -0.8159
 9047TIP3    H151336   3.138   2.313   1.330  0.0742  2.4952  1.1292
 9047TIP3    H251337   3.053   2.430   1.286 -1.8999  0.3405 -1.1471
 9048TIP3   OH251338   1.961   0.521   1.709  0.5643 -0.5611 -0.6495
 9048TIP3    H151339   1.896   0.450   1.714  2.0315 -1.9339 -0.0514
 9048TIP3    H251340   1.983   0.539   1.800 -0.3717  1.2792 -0.7563
 9049TIP3   OH251341   5.204   5.934   1.540  0.2144  0.1858  0.3620
 9049TIP3    H151342   5.199   6.028   1.525  0.3073  0.2393  0.6523
 9049TIP3    H251343   5.142   5.896   1.478 -0.8301  0.5430  1.1679
 9050TIP3   OH251344   1.888   2.020   1.422 -0.4531 -0.2607  0.1467
 9050TIP3    H151345   1.885   2.112   1.450 -1.1284 -0.1433 -0.2841
 9050TIP3    H251346   1.928   1.974   1.495 -0.5532  0.3067  0.5681
 9051TIP3   OH251347   4.502   4.131   4.437 -0.5745  0.2924  0.6131
 9051TIP3    H151348   4.431   4.162   4.380 -0.0919 -0.5166 -0.4612
 9051TIP3    H251349   4.575   4.115   4.378 -0.0714 -0.6469  1.4603
 9052TIP3   OH251350   1.151   5.258   1.248  0.0332 -0.3922  0.4349
 9052TIP3    H151351   1.238   5.233   1.217  0.3492  0.1918  0.8464
 9052TIP3    H251352   1.149   5.230   1.340 -0.9375 -2.2131 -0.0921
 9053TIP3   OH251353   1.436   3.329   1.686 -0.2665 -0.0642 -0.1838
 9053TIP3    H151354   1.515   3.364   1.726 -1.8666  2.5885  0.9114
 9053TIP3    H251355   1.392   3.282   1.756  0.0829 -1.1942 -0.6894
 9054TIP3   OH251356   0.909   2.914   1.396 -0.3258 -0.6496 -0.2578
 9054TIP3    H151357   0.954   2.955   1.470 -1.4008 -1.1120  0.6904
 9054TIP3    H251358   0.925   2.972   1.322  1.9953 -0.9117 -0.0247
 9055TIP3   OH251359   4.065   0.613   1.797  0.2214 -0.2209  0.5147
 9055TIP3    H151360   4.125   0.548   1.761  2.2420  1.0713  1.4436
 9055TIP3    H251361   3.979   0.569   1.795  0.8606 -1.5918 -2.1943
 9056TIP3   OH251362   3.650   3.335   2.283  0.2170  0.0183  0.1416
 9056TIP3    H151363   3.613   3.253   2.317  0.8202  0.6527  2.5379
 9056TIP3    H251364   3.710   3.364   2.351  1.3363  1.5928 -1.4305
 9057TIP3   OH251365   4.615   0.092   2.117  0.8542  0.6524 -0.7465
 9057TIP3    H151366   4.667   0.022   2.155 -1.2883 -0.3094  0.5510
 9057TIP3    H251367   4.563   0.049   2.049 -0.3029  1.0136 -0.1009
 9058TIP3   OH251368   5.096   0.669   1.559  0.0973  0.0558  0.4072
 9058TIP3    H151369   5.027   0.708   1.613 -1.1041  0.5754 -1.4351
 9058TIP3    H251370   5.172   0.667   1.617 -1.6494 -1.4458  2.8508
 9059TIP3   OH251371   2.288   5.322   2.147  0.0572 -0.2563 -0.6071
 9059TIP3    H151372   2.240   5.404   2.133 -1.6470 -0.8475  1.2174
 9059TIP3    H251373   2.255   5.263   2.079 -0.1764 -0.0055 -0.7155
 9060TIP3   OH251374   4.200   6.248   3.171  0.4962  0.0600  1.0556
 9060TIP3    H151375   4.120   6.299   3.186 -0.6151 -1.2753 -0.0701
 9060TIP3    H251376   4.258   6.308   3.124 -1.8353 -0.3571 -2.8045
 9061TIP3   OH251377   3.288   5.831   4.404  0.4072 -0.1732 -0.1899
 9061TIP3    H151378   3.351   5.780   4.354  1.7601 -1.7151  2.8058
 9061TIP3    H251379   3.305   5.922   4.380  0.6033 -0.8207 -2.7887
 9062TIP3   OH251380   6.366   4.077   1.279 -0.6307  0.0110  0.0567
 9062TIP3    H151381   6.389   4.156   1.230 -2.4874  0.1596 -0.6513
 9062TIP3    H251382   6.424   4.010   1.243  0.8263  0.9734  0.5146
 9063TIP3   OH251383   3.819   5.873   2.099  0.2701 -0.0791 -0.9843
 9063TIP3    H151384   3.740   5.927   2.091  1.0020  0.9142 -1.8270
 9063TIP3    H251385   3.799   5.812   2.169 -1.0716  0.4632 -0.8585
 9064TIP3   OH251386   4.369   6.663   1.427 -0.4855  0.2415 -0.1870
 9064TIP3    H151387   4.302   6.615   1.476 -0.7621  0.9252  0.1013
 9064TIP3    H251388   4.321   6.730   1.379 -0.1856 -0.2247 -1.1722
 9065TIP3   OH251389   4.235   2.575   2.452  0.5378 -0.0863  0.1751
 9065TIP3    H151390   4.210   2.484   2.467 -2.9147  0.0654 -3.2263
 9065TIP3    H251391   4.172   2.626   2.503  0.4921  0.3869 -0.3397
 9066TIP3   OH251392   5.349   5.739   0.417 -0.4656  0.0615 -0.0431
 9066TIP3    H151393   5.389   5.655   0.398  0.5508  0.6903 -0.7990
 9066TIP3    H251394   5.291   5.756   0.343 -0.2820  0.2519 -0.1451
 9067TIP3   OH251395   5.168   5.270   1.097  0.1930  0.2036 -0.2474
 9067TIP3    H151396   5.153   5.251   1.004 -1.1302  0.3752 -0.0817
 9067TIP3    H251397   5.176   5.366   1.101  1.0098  0.1501 -0.2674
 9068TIP3   OH251398   4.815   5.879   1.840 -0.0840  0.1048 -0.2326
 9068TIP3    H151399   4.803   5.796   1.794 -1.4609  1.1365 -1.8433
 9068TIP3    H251400   4.906   5.903   1.824  0.3615 -1.1116  0.3394
 9069TIP3   OH251401   1.628   5.986   1.997  0.0586 -0.1283  0.2047
 9069TIP3    H151402   1.595   6.057   2.051 -0.3495 -0.3762  0.2853
 9069TIP3    H251403   1.663   5.923   2.059 -2.2064 -1.3525  0.3633
 9070TIP3   OH251404   0.337   1.505   0.875  0.2124  0.5283 -0.2587
 9070TIP3    H151405   0.255   1.461   0.899  1.2171 -1.1133  0.3357
 9070TIP3    H251406   0.309   1.586   0.832 -1.7342 -0.4953 -1.0660
 9071TIP3   OH251407   0.919   4.631   3.538  0.0652  0.2453  0.2142
 9071TIP3    H151408   0.966   4.690   3.479  0.3663 -2.0747 -2.0676
 9071TIP3    H251409   0.827   4.644   3.517  0.0363  0.8174  0.6741
 9072TIP3   OH251410   0.596   5.034   3.021 -0.7962  0.4163  0.2682
 9072TIP3    H151411   0.677   4.986   3.039 -1.3212 -0.1058  1.3556
 9072TIP3    H251412   0.529   4.966   3.019 -1.4144  1.0052  0.8429
 9073TIP3   OH251413   6.481   0.461   1.569  0.3270 -0.1310  0.1066
 9073TIP3    H151414   6.440   0.407   1.501  1.7361  0.5084 -1.3295
 9073TIP3    H251415   6.460   0.551   1.544  0.2463  0.0937  0.9485
 9074TIP3   OH251416   2.189   1.498   2.637  0.0090  0.0356  0.5140
 9074TIP3    H151417   2.147   1.542   2.710 -0.0023  2.9856 -1.0950
 9074TIP3    H251418   2.132   1.515   2.562  0.7580 -1.5842 -0.4927
 9075TIP3   OH251419   2.619   2.257   1.020  0.0760  0.3183 -0.1671
 9075TIP3    H151420   2.670   2.237   1.098  0.0344  3.7541  0.9098
 9075TIP3    H251421   2.685   2.268   0.951  0.4622  0.7919  0.2673
 9076TIP3   OH251422   1.793   0.582   3.059  0.6474  0.4990  0.1679
 9076TIP3    H151423   1.802   0.678   3.057  0.0732  0.5450 -1.5342
 9076TIP3    H251424   1.699   0.567   3.051  0.7660 -0.2283  0.0854
 9077TIP3   OH251425   1.048   3.256   1.392  0.1028 -0.7870  0.2443
 9077TIP3    H151426   0.960   3.244   1.427  0.1033 -2.0520 -0.1609
 9077TIP3    H251427   1.098   3.294   1.465 -0.8900  0.4846  0.2993
 9078TIP3   OH251428   4.935   6.389   0.705  0.0097  0.1602 -0.1402
 9078TIP3    H151429   4.964   6.298   0.698 -0.6128  0.0040 -0.9314
 9078TIP3    H251430   5.002   6.432   0.758  0.9734 -0.4786 -0.8101
 9079TIP3   OH251431   3.053   3.680   3.769 -0.0974  0.0300 -0.1698
 9079TIP3    H151432   3.141   3.714   3.751  0.6148 -1.2566  0.7213
 9079TIP3    H251433   3.023   3.648   3.684 -0.7755  2.6874 -1.0349
 9080TIP3   OH251434   0.823   6.354   1.653 -0.0525  0.1049 -0.0769
 9080TIP3    H151435   0.728   6.364   1.662 -0.1486 -0.6261 -0.2179
 9080TIP3    H251436   0.834   6.287   1.586  0.5553 -0.1961  0.3163
 9081TIP3   OH251437   4.204   4.484   4.712  0.5813 -0.5450 -0.3445
 9081TIP3    H151438   4.126   4.454   4.665 -0.0593 -0.4756  0.6618
 9081TIP3    H251439   4.267   4.412   4.702 -0.0010 -1.0813 -0.2222
 9082TIP3   OH251440   5.965   0.760   1.000  0.5666  0.1079  0.1138
 9082TIP3    H151441   5.955   0.668   1.023 -4.1682  0.4140  0.2397
 9082TIP3    H251442   5.973   0.805   1.084  2.6849 -0.0583  0.0588
 9083TIP3   OH251443   0.774   3.188   3.552  0.3090 -0.9673 -0.0433
 9083TIP3    H151444   0.838   3.256   3.533 -0.4510 -0.6251 -1.5412
 9083TIP3    H251445   0.807   3.111   3.507  0.6708 -1.3540  0.8533
 9084TIP3   OH251446   3.139   6.119   2.266  0.4483  0.1846  0.4315
 9084TIP3    H151447   3.110   6.053   2.330  1.9060  0.2857  1.2442
 9084TIP3    H251448   3.103   6.088   2.183 -0.1009 -0.8663  1.0286
 9085TIP3   OH251449   1.388   0.871   2.627 -0.2160  0.0844  0.4138
 9085TIP3    H151450   1.407   0.783   2.597  1.2460 -0.4707  2.7468
 9085TIP3    H251451   1.439   0.928   2.569  0.7989 -0.7690  0.4535
 9086TIP3   OH251452   4.691   5.230   2.013  0.3019 -0.2743  0.2007
 9086TIP3    H151453   4.673   5.137   1.995  0.1710 -0.3282  0.6043
 9086TIP3    H251454   4.667   5.275   1.931 -2.7873 -0.2102  1.0150
 9087TIP3   OH251455   0.060   4.769   1.453 -0.3073  0.9880  0.3172
 9087TIP3    H151456   0.141   4.759   1.502  0.6185 -1.0055 -1.4536
 9087TIP3    H251457   0.048   4.685   1.408 -2.8239  1.5774 -0.2821
 9088TIP3   OH251458   2.483   2.354   2.441  0.1727 -0.0761 -0.2017
 9088TIP3    H151459   2.500   2.310   2.358  1.8249  2.3328 -1.2510
 9088TIP3    H251460   2.411   2.413   2.423  0.7738  0.7201 -0.0420
 9089TIP3   OH251461   3.681   3.895   0.779  0.0371  0.3284 -0.2546
 9089TIP3    H151462   3.694   3.990   0.773  2.3832  0.2786  2.1290
 9089TIP3    H251463   3.767   3.858   0.759 -0.4544 -1.2054  0.3090
 9090TIP3   OH251464   2.615   1.386   2.575 -0.1116 -0.4803 -0.2071
 9090TIP3    H151465   2.661   1.403   2.492  1.4687  0.3132  0.7724
 9090TIP3    H251466   2.627   1.467   2.625 -3.9868  0.4040 -0.4340
 9091TIP3   OH251467   1.092   5.225   1.651 -0.7169 -0.2528 -0.0791
 9091TIP3    H151468   1.012   5.226   1.705 -1.8476 -0.4533 -1.6791
 9091TIP3    H251469   1.083   5.146   1.597 -0.3609  0.7266 -1.6153
 9092TIP3   OH251470   1.912   5.435   2.272  0.3096 -0.1651 -0.1131
 9092TIP3    H151471   1.989   5.476   2.310 -0.0013  0.9578 -0.6523
 9092TIP3    H251472   1.944   5.353   2.236  1.3593  0.5064 -0.7654
 9093TIP3   OH251473   2.798   6.136   3.872 -0.7535 -0.2018 -0.0010
 9093TIP3    H151474   2.854   6.094   3.807 -1.4072  0.2234 -0.8604
 9093TIP3    H251475   2.859   6.168   3.939 -0.0544 -0.5433 -0.4665
 9094TIP3   OH251476   1.059   5.699   2.545  0.5325 -0.2821  0.1567
 9094TIP3    H151477   0.976   5.677   2.587  0.3365 -0.4764 -0.3371
 9094TIP3    H251478   1.113   5.621   2.557 -0.4040 -1.3698 -2.2282
 9095TIP3   OH251479   5.949   6.615   1.750  0.1220  0.1974 -0.0140
 9095TIP3    H151480   5.887   6.682   1.779 -0.4052  0.1012 -0.8933
 9095TIP3    H251481   6.030   6.664   1.732  0.4297  0.2729  1.4612
 9096TIP3   OH251482   6.555   3.192   3.191  0.4667  0.0335  0.5420
 9096TIP3    H151483   6.509   3.274   3.207 -0.3381 -0.3363  0.1892
 9096TIP3    H251484   6.561   3.150   3.277  1.6301  0.8257  0.8704
 9097TIP3   OH251485   5.164   2.874   1.091 -0.4974 -0.3880  0.3022
 9097TIP3    H151486   5.135   2.858   1.180 -2.0161 -2.9301 -0.5302
 9097TIP3    H251487   5.096   2.930   1.053 -0.0805  0.3220  0.5788
 9098TIP3   OH251488   1.735   6.027   0.814  0.0852  0.2223  0.4452
 9098TIP3    H151489   1.794   6.102   0.822 -1.1168  1.1123  1.2333
 9098TIP3    H251490   1.656   6.062   0.774 -1.5788  0.0866  3.3023
 9099TIP3   OH251491   1.657   4.812   2.425  0.0974  0.3945  0.1791
 9099TIP3    H151492   1.648   4.804   2.330 -1.2554  0.5176  0.2810
 9099TIP3    H251493   1.736   4.865   2.437  1.0386 -0.7329 -0.8324
 9100TIP3   OH251494   2.774   1.768   3.754  0.0207 -0.0300 -0.2810
 9100TIP3    H151495   2.854   1.818   3.734 -0.3407 -0.3110 -2.7405
 9100TIP3    H251496   2.801   1.677   3.746 -0.5603 -0.1252 -1.3721
 9101TIP3   OH251497   0.991   6.081   2.947  0.3942  0.4771  0.7347
 9101TIP3    H151498   0.954   6.052   2.863  2.4646  0.5548 -0.2749
 9101TIP3    H251499   0.921   6.132   2.988 -0.6400  0.5363 -1.0045
 9102TIP3   OH251500   3.859   4.021   3.341 -0.0175 -0.0018  0.2641
 9102TIP3    H151501   3.784   3.967   3.317 -0.7680  0.6802  1.0158
 9102TIP3    H251502   3.859   4.092   3.277  1.6479 -1.4221 -1.4434
 9103TIP3   OH251503   0.294   5.185   3.792 -0.0150  0.0693  0.1330
 9103TIP3    H151504   0.228   5.198   3.724 -1.7874  2.7414  2.1829
 9103TIP3    H251505   0.357   5.257   3.778  0.5995 -0.4370  0.2510
 9104TIP3   OH251506   1.707   3.664   1.125 -0.6755  0.0564 -0.0635
 9104TIP3    H151507   1.799   3.652   1.148 -0.6457  1.1049  0.4099
 9104TIP3    H251508   1.668   3.577   1.139  0.0583 -0.1788  0.6067
 9105TIP3   OH251509   6.770   6.399   1.155 -0.2010 -0.1671 -0.3822
 9105TIP3    H151510   6.675   6.397   1.142 -0.1244 -0.5364 -0.8908
 9105TIP3    H251511   6.784   6.475   1.212 -0.9016 -0.7712  0.6059
 9106TIP3   OH251512   1.902   1.055   1.853  0.2404  0.1880  0.4729
 9106TIP3    H151513   1.831   0.995   1.830 -0.0557  0.3944  0.8419
 9106TIP3    H251514   1.981   1.002   1.847 -0.0554 -0.3509  1.1696
 9107TIP3   OH251515   6.491   1.726   2.151 -0.0836  0.0499  0.6859
 9107TIP3    H151516   6.511   1.666   2.223  0.2873 -0.2175  0.3644
 9107TIP3    H251517   6.549   1.699   2.080  0.1450  0.8314  0.5592
 9108TIP3   OH251518   6.693   0.605   0.608 -0.6707  0.3990 -0.4411
 9108TIP3    H151519   6.761   0.542   0.586  0.3016  1.2648 -0.0338
 9108TIP3    H251520   6.679   0.594   0.702 -1.4800 -0.1276 -0.6144
 9109TIP3   OH251521   0.288   6.604   1.162  0.1684 -0.1359  0.2699
 9109TIP3    H151522   0.273   6.543   1.090 -0.2255 -1.2784  1.2847
 9109TIP3    H251523   0.207   6.602   1.213  1.3844 -1.6109  2.3436
 9110TIP3   OH251524   3.682   4.044   2.435 -0.0374  0.0150 -0.4254
 9110TIP3    H151525   3.759   4.100   2.440  1.2118 -1.7100  3.6960
 9110TIP3    H251526   3.614   4.093   2.481  0.1246 -0.4835  0.3666
 9111TIP3   OH251527   1.983   2.682   2.512 -0.1554  0.7862 -0.5583
 9111TIP3    H151528   2.077   2.668   2.502 -0.3261 -1.0703  0.0633
 9111TIP3    H251529   1.944   2.636   2.438 -0.6548 -0.6237  0.5172
 9112TIP3   OH251530   4.941   0.552   3.275 -0.1665 -0.4630  0.0197
 9112TIP3    H151531   4.889   0.482   3.315  0.4463 -0.4383  0.9110
 9112TIP3    H251532   4.935   0.624   3.337 -2.0918  0.8865 -1.6382
 9113TIP3   OH251533   3.305   5.025   1.145 -0.0416  0.1297  0.2691
 9113TIP3    H151534   3.346   5.105   1.178 -0.8708  0.6525  0.0831
 9113TIP3    H251535   3.318   4.961   1.214 -1.0354  0.9707  1.2879
 9114TIP3   OH251536   3.043   3.408   0.926  0.1983  0.0965 -0.1377
 9114TIP3    H151537   3.123   3.389   0.975 -0.6893 -1.8849  0.6631
 9114TIP3    H251538   2.973   3.369   0.979 -1.1864  0.8814 -1.3290
 9115TIP3   OH251539   3.617   6.735   2.060 -0.4399 -0.1738  0.1660
 9115TIP3    H151540   3.620   6.738   2.155  0.7012 -1.5254  0.2061
 9115TIP3    H251541   3.532   6.695   2.040 -0.4736 -0.3393  0.6251
 9116TIP3   OH251542   2.256   2.654   2.530  0.5244 -0.0758 -0.7591
 9116TIP3    H151543   2.281   2.579   2.584  1.3395  1.3504  0.9490
 9116TIP3    H251544   2.337   2.703   2.518  0.2591 -0.0670 -2.9081
 9117TIP3   OH251545   2.092   0.000   2.245 -0.3139  0.2826  0.0442
 9117TIP3    H151546   2.091   0.075   2.185 -0.5921 -1.3984 -2.1506
 9117TIP3    H251547   2.004  -0.036   2.241  0.7244 -2.3207 -1.8839
 9118TIP3   OH251548   6.513   5.595   0.547 -0.9191 -0.3870 -0.3814
 9118TIP3    H151549   6.578   5.630   0.608 -2.2967  1.8450 -0.0546
 9118TIP3    H251550   6.520   5.500   0.556  1.5886 -0.1947  0.3272
 9119TIP3   OH251551   1.821   2.330   0.926 -0.4646  0.2334 -0.6354
 9119TIP3    H151552   1.736   2.323   0.969 -1.1494  0.9954 -1.8072
 9119TIP3    H251553   1.825   2.253   0.868 -0.6116  0.5050 -1.0080
 9120TIP3   OH251554   2.822   1.131   1.389  0.1437 -0.4934 -0.1622
 9120TIP3    H151555   2.884   1.188   1.343 -0.1824 -0.3876 -0.4731
 9120TIP3    H251556   2.870   1.101   1.466 -0.1455  1.3865  0.8320
 9121TIP3   OH251557   1.699   0.963   1.017  0.1891  0.1173 -0.7273
 9121TIP3    H151558   1.661   1.049   1.035  1.3311  0.1859  1.9038
 9121TIP3    H251559   1.633   0.917   0.966 -1.5612  1.6742  0.0375
 9122TIP3   OH251560   6.479   5.733   1.176  0.2114  0.1097 -0.0974
 9122TIP3    H151561   6.561   5.688   1.198 -1.1673 -1.8189  1.5073
 9122TIP3    H251562   6.453   5.694   1.093  0.7848  0.5697 -0.5030
 9123TIP3   OH251563   3.451   0.912   0.888 -0.5228 -0.2079  0.2219
 9123TIP3    H151564   3.387   0.983   0.892 -0.8652 -0.5024  0.0549
 9123TIP3    H251565   3.456   0.879   0.977 -1.9510 -1.3490 -0.0764
 9124TIP3   OH251566   1.112   3.013   0.940 -0.1216  0.0642 -0.3713
 9124TIP3    H151567   1.180   3.078   0.959 -1.6340  1.0494  2.2234
 9124TIP3    H251568   1.052   3.057   0.880 -0.7319  0.8339  0.7733
 9125TIP3   OH251569   0.396   6.252   3.283  0.5405  0.4818  0.1774
 9125TIP3    H151570   0.417   6.273   3.374  0.0119  0.9734  0.1880
 9125TIP3    H251571   0.458   6.304   3.231  0.3503  0.7777  0.2437
 9126TIP3   OH251572   3.286   4.710   0.645  0.3551  0.4097 -0.3984
 9126TIP3    H151573   3.346   4.776   0.680 -0.1764  0.3913  0.5750
 9126TIP3    H251574   3.203   4.758   0.634 -0.3208 -0.3007  1.2658
 9127TIP3   OH251575   4.989   1.842   2.095  0.0615 -0.0322 -0.3579
 9127TIP3    H151576   5.026   1.875   2.014 -0.7478  0.1220 -0.6806
 9127TIP3    H251577   4.933   1.769   2.069 -1.0621  0.6982 -0.0924
 9128TIP3   OH251578   5.197   1.194   3.525  0.2165  0.1126 -0.0266
 9128TIP3    H151579   5.139   1.175   3.599 -1.3017 -0.4773 -1.3068
 9128TIP3    H251580   5.175   1.283   3.499  0.0346 -0.0287 -0.3684
 9129TIP3   OH251581   4.285   5.648   1.343 -0.0066  0.0990  0.4066
 9129TIP3    H151582   4.217   5.583   1.358  0.6341 -0.6699  0.0371
 9129TIP3    H251583   4.296   5.651   1.248 -1.0025  1.7879  0.3000
 9130TIP3   OH251584   0.557   0.388   0.971  0.4980 -0.1768  0.0231
 9130TIP3    H151585   0.625   0.424   1.028  0.6373 -1.6306  0.8370
 9130TIP3    H251586   0.506   0.464   0.942 -0.3719  0.5549  3.1227
 9131TIP3   OH251587   1.010   1.403   1.816 -0.5755 -0.3879  0.6088
 9131TIP3    H151588   1.015   1.446   1.901 -0.2304  1.7109 -0.4290
 9131TIP3    H251589   0.994   1.311   1.838 -0.6794  0.1071  2.9247
 9132TIP3   OH251590   4.538   6.591   4.044 -0.4610 -0.1536 -0.3389
 9132TIP3    H151591   4.591   6.608   3.966 -1.4823 -1.0527 -1.2608
 9132TIP3    H251592   4.602   6.578   4.114  0.5263 -0.9356 -1.3602
 9133TIP3   OH251593   6.557   2.634   0.916  0.1548 -0.1247  0.4230
 9133TIP3    H151594   6.547   2.652   0.822  1.7927  1.1275  0.4450
 9133TIP3    H251595   6.610   2.554   0.919 -0.6443 -0.6635  0.2896
 9134TIP3   OH251596   3.728   5.428   1.883 -0.1047 -0.1667 -0.5133
 9134TIP3    H151597   3.808   5.482   1.883 -0.9622  1.1372 -0.8785
 9134TIP3    H251598   3.718   5.402   1.975 -0.5508  1.6660 -0.0096
 9135TIP3   OH251599   6.272   5.620   3.565  0.3207 -0.0208  0.0338
 9135TIP3    H151600   6.233   5.534   3.551  0.8612 -0.3252  0.3470
 9135TIP3    H251601   6.240   5.647   3.651  1.3423 -0.5896  0.6151
 9136TIP3   OH251602   2.784   5.124   2.538  0.2022  0.7831 -0.2584
 9136TIP3    H151603   2.740   5.186   2.480 -1.0843 -1.9603 -2.4188
 9136TIP3    H251604   2.723   5.050   2.545  2.5339 -1.2173  0.3992
 9137TIP3   OH251605   2.230   1.363   1.774  0.2209  0.2381  0.0642
 9137TIP3    H151606   2.187   1.311   1.842  1.3643 -0.7856  0.0465
 9137TIP3    H251607   2.177   1.347   1.695 -0.7578  0.9521  0.5577
 9138TIP3   OH251608   2.242   5.117   3.315 -0.4824 -0.4610  0.2398
 9138TIP3    H151609   2.244   5.183   3.384 -2.2674  2.1044 -1.9334
 9138TIP3    H251610   2.325   5.129   3.268 -0.7022  0.1479 -0.0101
 9139TIP3   OH251611   3.203   4.094   1.775  0.2653 -0.0892  0.3634
 9139TIP3    H151612   3.225   4.125   1.687  0.0478 -0.7361  0.0766
 9139TIP3    H251613   3.272   4.129   1.831 -0.2042  1.2816  0.1265
 9140TIP3   OH251614   4.721   2.040   1.933  0.2701  0.1156  0.1282
 9140TIP3    H151615   4.763   2.014   1.851  0.0812 -1.6905  0.5494
 9140TIP3    H251616   4.634   2.070   1.907  0.1008 -0.7347 -0.3229
 9141TIP3   OH251617   6.200   0.048   4.017 -0.5622  0.6462 -0.3306
 9141TIP3    H151618   6.272   0.018   3.961  0.4805 -1.5426  1.9943
 9141TIP3    H251619   6.228   0.135   4.045  0.2395  0.6227 -0.9840
 9142TIP3   OH251620   4.296   3.374   1.396 -0.4120 -0.5058  0.1304
 9142TIP3    H151621   4.290   3.467   1.414 -0.0867  0.1620 -2.7745
 9142TIP3    H251622   4.383   3.361   1.359 -0.1312 -2.1391  1.2429
 9143TIP3   OH251623   6.232   6.785   0.661  0.1955  0.1063 -0.3721
 9143TIP3    H151624   6.227   6.701   0.615 -0.4819  0.9967 -2.0237
 9143TIP3    H251625   6.143   6.820   0.656  0.3301  0.6746  0.8374
 9144TIP3   OH251626   0.707   6.796   3.779  0.5766  0.2003 -0.4298
 9144TIP3    H151627   0.702   6.863   3.711 -1.6901  0.0055 -0.5266
 9144TIP3    H251628   0.766   6.832   3.844  0.6337  1.6046 -1.2142
 9145TIP3   OH251629   0.543   6.084   1.321  0.2635 -0.1740 -0.1948
 9145TIP3    H151630   0.536   6.086   1.416 -0.8359  1.9812 -0.2651
 9145TIP3    H251631   0.455   6.063   1.290 -0.1960  2.2667 -0.7349
 9146TIP3   OH251632   1.642   4.315   2.619  0.2193 -0.0172  0.0842
 9146TIP3    H151633   1.611   4.401   2.591 -0.9225 -1.0569 -2.0981
 9146TIP3    H251634   1.737   4.322   2.618  0.1488  1.0553 -0.6067
 9147TIP3   OH251635   1.101   6.379   1.517  0.2718 -0.3955 -0.1228
 9147TIP3    H151636   1.019   6.341   1.547  0.8809 -1.4816  0.1964
 9147TIP3    H251637   1.074   6.448   1.456 -0.8446 -2.0955 -1.6552
 9148TIP3   OH251638   5.102   1.587   0.969 -0.0315  0.4405  0.0184
 9148TIP3    H151639   5.010   1.610   0.956 -0.2830  0.7993  2.1236
 9148TIP3    H251640   5.101   1.520   1.037  1.2575  0.1432 -0.2248
 9149TIP3   OH251641   2.189   6.121   2.226  0.4723  0.2865  0.2656
 9149TIP3    H151642   2.108   6.094   2.269 -0.1249 -1.9981 -2.0683
 9149TIP3    H251643   2.258   6.077   2.276  0.0822  0.3262  0.8503
 9150TIP3   OH251644   1.807   5.597   4.585  0.2093 -0.4373 -0.2946
 9150TIP3    H151645   1.871   5.596   4.657 -1.3030  0.9617  1.1470
 9150TIP3    H251646   1.770   5.509   4.585  1.8795 -1.1909 -0.9826
 9151TIP3   OH251647   6.318   6.358   0.937  0.6778 -0.5514 -0.7276
 9151TIP3    H151648   6.312   6.423   0.867 -2.6588  2.8433  2.2467
 9151TIP3    H251649   6.281   6.278   0.899 -0.4616  0.9456 -3.0039
 9152TIP3   OH251650   5.157   0.523   1.927  0.3632 -0.0511  0.2511
 9152TIP3    H151651   5.207   0.521   1.846 -0.7072 -0.6469 -0.4106
 9152TIP3    H251652   5.213   0.570   1.989  0.7334  1.4025 -1.1334
 9153TIP3   OH251653   4.127   4.879   2.561 -0.4166  0.3521  0.0372
 9153TIP3    H151654   4.097   4.939   2.629 -0.2681  0.2940  0.1535
 9153TIP3    H251655   4.222   4.888   2.560 -0.1802 -1.3233  1.4252
 9154TIP3   OH251656   0.281   0.636   1.808  0.4520 -0.3068  0.4178
 9154TIP3    H151657   0.338   0.699   1.764 -0.0559 -0.2462 -0.1653
 9154TIP3    H251658   0.207   0.625   1.748  0.5412 -1.4745  0.5118
 9155TIP3   OH251659   6.277   2.078   1.133  0.4704  0.2246 -0.4907
 9155TIP3    H151660   6.268   2.113   1.221 -0.2589 -1.2388  0.0488
 9155TIP3    H251661   6.209   2.122   1.082 -0.0177  0.0658  0.0194
 9156TIP3   OH251662   4.406   1.807   0.877  0.4265 -0.0932 -0.2955
 9156TIP3    H151663   4.348   1.815   0.953 -0.2005 -0.3417 -0.7419
 9156TIP3    H251664   4.364   1.858   0.808  1.2250  0.5083 -0.3561
 9157TIP3   OH251665   3.918   0.958   3.047 -0.1919 -0.1922  0.2562
 9157TIP3    H151666   3.844   0.974   2.988 -0.1568 -0.6099  0.0890
 9157TIP3    H251667   3.923   0.862   3.053  1.4584 -0.2450 -1.1721
 9158TIP3   OH251668   1.171   6.533   1.958  0.2922  0.0414 -0.3767
 9158TIP3    H151669   1.185   6.486   2.041  1.0752  2.1055  0.7483
 9158TIP3    H251670   1.195   6.470   1.890  0.7635 -1.3485  1.0127
 9159TIP3   OH251671   0.827   1.329   1.050  0.4116 -0.4019 -0.2616
 9159TIP3    H151672   0.742   1.364   1.024  1.0150  0.4080 -1.2004
 9159TIP3    H251673   0.870   1.306   0.968  2.1917  1.7980 -0.0428
 9160TIP3   OH251674   0.338   4.820   0.407  0.2673  0.0975  0.1930
 9160TIP3    H151675   0.326   4.733   0.369  0.4480 -0.4437  1.3323
 9160TIP3    H251676   0.354   4.804   0.500  1.6950  1.2647  0.1878
 9161TIP3   OH251677   5.130   3.846   3.445 -1.1499 -0.2763  0.4264
 9161TIP3    H151678   5.226   3.849   3.446 -1.0924 -0.8527 -0.7291
 9161TIP3    H251679   5.104   3.859   3.536 -0.0197  0.9887  0.5976
 9162TIP3   OH251680   5.621   1.105   2.861 -0.8713  0.7633 -0.1756
 9162TIP3    H151681   5.679   1.051   2.914  0.2249  2.1363  0.1010
 9162TIP3    H251682   5.644   1.084   2.770 -0.2081  1.0091 -0.0673
 9163TIP3   OH251683   5.997   3.018   1.531 -0.0276 -0.0838 -0.4589
 9163TIP3    H151684   6.051   3.020   1.610  2.5534 -0.2150 -2.0865
 9163TIP3    H251685   6.022   2.936   1.487  0.1222  0.9148 -2.3493
 9164TIP3   OH251686   5.099   1.896   3.640 -0.7483  0.3769 -0.5420
 9164TIP3    H151687   5.045   1.975   3.638 -0.4653  0.6374  0.8046
 9164TIP3    H251688   5.187   1.926   3.619 -0.9373  0.1030 -1.8111
 9165TIP3   OH251689   5.739   0.355   2.036  0.8758 -0.1024 -0.2511
 9165TIP3    H151690   5.692   0.304   1.970  2.7335 -1.0829 -0.8729
 9165TIP3    H251691   5.672   0.376   2.101 -0.7774 -0.0412 -1.8633
 9166TIP3   OH251692   1.222   1.907   2.590  0.0302 -0.1908  0.1780
 9166TIP3    H151693   1.285   1.972   2.559 -0.0562  0.1187  0.6468
 9166TIP3    H251694   1.260   1.823   2.563  0.4384  0.0177  0.0911
 9167TIP3   OH251695   0.431   3.482   1.413 -0.6116  0.0014  0.3257
 9167TIP3    H151696   0.444   3.387   1.417 -0.7363 -0.0252  0.0996
 9167TIP3    H251697   0.502   3.518   1.466 -0.5884 -0.2206  0.4446
 9168TIP3   OH251698   0.125   6.492   0.435 -0.0898  0.3209 -0.1603
 9168TIP3    H151699   0.075   6.567   0.402  0.8676  0.5097 -1.2700
 9168TIP3    H251700   0.210   6.529   0.459  0.0256 -0.2354  0.2960
 9169TIP3   OH251701   3.730   1.626   2.360 -0.0102  0.8048 -0.0732
 9169TIP3    H151702   3.672   1.657   2.430 -0.7924  1.1779 -0.8734
 9169TIP3    H251703   3.699   1.669   2.281 -0.0112 -0.6410 -0.9075
 9170TIP3   OH251704   0.169   4.674   0.630  0.0352 -0.3603 -0.5021
 9170TIP3    H151705   0.122   4.614   0.688  1.3262 -1.7933 -0.8680
 9170TIP3    H251706   0.235   4.715   0.685 -0.5551  0.4193 -0.3557
 9171TIP3   OH251707   0.161   3.541   1.474  0.4602  0.3389 -0.2101
 9171TIP3    H151708   0.249   3.529   1.437  0.9043  0.5491  0.7639
 9171TIP3    H251709   0.176   3.580   1.560 -0.4896 -1.1052  0.6522
 9172TIP3   OH251710   2.602   6.067   1.445  0.4499 -0.1248  0.2799
 9172TIP3    H151711   2.687   6.041   1.410  1.1476  1.0344  1.0705
 9172TIP3    H251712   2.563   6.122   1.377  0.8954  0.4073  0.4545
 9173TIP3   OH251713   2.780   6.640   1.417  0.7179 -0.4640  0.4312
 9173TIP3    H151714   2.753   6.671   1.331  0.7715 -2.1205 -0.2125
 9173TIP3    H251715   2.864   6.597   1.403  1.1677  0.0278  1.4857
 9174TIP3   OH251716   5.229   2.312   0.610 -0.3298 -0.8741  0.1963
 9174TIP3    H151717   5.281   2.242   0.572  0.5686 -0.6952  1.0648
 9174TIP3    H251718   5.284   2.349   0.678  0.1543  2.2302 -1.7271
 9175TIP3   OH251719   4.923   2.699   2.689  0.1013 -0.5725 -0.0524
 9175TIP3    H151720   4.897   2.790   2.705  0.3157 -0.4027 -0.6293
 9175TIP3    H251721   4.992   2.681   2.753 -1.1735 -0.9131  1.2570
 9176TIP3   OH251722   0.929   3.181   2.375 -0.3556  0.4937  0.3860
 9176TIP3    H151723   1.009   3.176   2.324 -1.0196  1.8544 -0.8670
 9176TIP3    H251724   0.859   3.183   2.310 -1.5572 -1.9290  1.4567
 9177TIP3   OH251725   3.376   1.705   1.464 -0.4420  0.1361 -0.4163
 9177TIP3    H151726   3.331   1.721   1.381 -1.3071 -0.9853 -0.2006
 9177TIP3    H251727   3.425   1.785   1.481 -0.2733  0.3973 -1.9821
 9178TIP3   OH251728   1.232   0.462   2.219  0.3427  0.6581 -0.6646
 9178TIP3    H151729   1.196   0.396   2.159  1.4213 -1.8227  1.2302
 9178TIP3    H251730   1.326   0.443   2.222  0.5647  1.8127  0.5234
 9179TIP3   OH251731   2.400   5.082   2.639  0.2878  0.5840  0.0179
 9179TIP3    H151732   2.434   5.145   2.702  0.4414 -1.4046  2.0295
 9179TIP3    H251733   2.478   5.034   2.609 -0.0245  0.1077 -0.0442
 9180TIP3   OH251734   1.989   6.587   2.546  0.1674  0.0572 -0.5149
 9180TIP3    H151735   1.989   6.577   2.451  2.1613 -2.6951 -0.3847
 9180TIP3    H251736   2.065   6.642   2.564 -0.3410  0.7628 -0.5168
 9181TIP3   OH251737   6.746   6.459   1.722 -0.8147 -0.3125  0.1580
 9181TIP3    H151738   6.721   6.376   1.681 -0.5827 -0.1669 -0.2778
 9181TIP3    H251739   6.703   6.526   1.669 -2.0156 -0.1877  1.2159
 9182TIP3   OH251740   6.127   6.399   2.472 -0.1635  0.1831  1.0602
 9182TIP3    H151741   6.196   6.458   2.442  0.1813 -0.0009  1.4751
 9182TIP3    H251742   6.048   6.428   2.426 -0.0184  1.0224  1.3327
 9183TIP3   OH251743   4.150   2.049   2.432  0.0777  0.4244 -0.4336
 9183TIP3    H151744   4.114   1.962   2.447 -0.4258  0.6357 -0.3788
 9183TIP3    H251745   4.095   2.086   2.363 -0.6448  1.2288  0.5360
 9184TIP3   OH251746   2.933   5.696   3.880  0.3157  0.2044  0.3387
 9184TIP3    H151747   2.909   5.646   3.958  1.6347  0.5563  0.9921
 9184TIP3    H251748   3.001   5.757   3.910 -1.2524  2.4588 -0.4119
 9185TIP3   OH251749   0.802   3.120   1.995  0.4283 -0.3371  0.1705
 9185TIP3    H151750   0.772   3.195   1.943  1.4696 -0.7191 -1.0434
 9185TIP3    H251751   0.779   3.142   2.085  0.5914  1.3810 -0.1756
 9186TIP3   OH251752   0.952   1.243   0.505 -0.3745 -0.9056 -0.2909
 9186TIP3    H151753   0.987   1.154   0.495  0.6465 -0.8271  1.9190
 9186TIP3    H251754   1.025   1.300   0.478  0.2704 -0.7577  1.6455
 9187TIP3   OH251755   2.580   4.512   1.376 -0.0742 -0.2421 -0.6768
 9187TIP3    H151756   2.566   4.524   1.282  2.2276  1.6694 -0.8844
 9187TIP3    H251757   2.640   4.583   1.400 -0.2121 -0.9752  2.1560
 9188TIP3   OH251758   2.137   5.521   2.987 -0.1706 -0.4694  0.1048
 9188TIP3    H151759   2.164   5.511   3.078 -0.3561 -0.0393  0.2081
 9188TIP3    H251760   2.121   5.431   2.957 -0.3943 -0.5943  0.5821
 9189TIP3   OH251761   2.770   0.161   1.461  0.8787  0.4242 -0.2829
 9189TIP3    H151762   2.744   0.253   1.470  0.0356  0.0329  2.2100
 9189TIP3    H251763   2.865   0.163   1.455  0.8102  1.4923 -1.3841
 9190TIP3   OH251764   4.306   0.208   3.289  0.4704  0.4259  0.7057
 9190TIP3    H151765   4.319   0.127   3.240 -0.3714 -0.3607  1.7379
 9190TIP3    H251766   4.296   0.179   3.380 -0.1030  1.6707  1.0518
 9191TIP3   OH251767   0.640   1.166   1.896  0.4680 -0.3767  0.4660
 9191TIP3    H151768   0.735   1.158   1.882  0.2127  1.2120 -4.3304
 9191TIP3    H251769   0.628   1.256   1.929  0.6205 -0.3337  0.4058
 9192TIP3   OH251770   5.764   5.453   0.768 -0.0897 -0.2875 -0.3829
 9192TIP3    H151771   5.697   5.431   0.703  0.5435 -1.3238 -0.7011
 9192TIP3    H251772   5.827   5.507   0.720 -0.0178 -0.4168 -0.4353
 9193TIP3   OH251773   2.999   1.284   0.304  0.5700 -0.5071 -0.3505
 9193TIP3    H151774   3.032   1.355   0.359 -2.2233  1.1127 -0.5426
 9193TIP3    H251775   2.981   1.326   0.220 -0.0585 -1.7254 -0.8458
 9194TIP3   OH251776   1.668   1.061   3.672 -0.1810 -0.1365 -0.1322
 9194TIP3    H151777   1.723   1.071   3.594 -0.0235 -1.3202 -0.1890
 9194TIP3    H251778   1.717   1.003   3.729 -0.6003  0.1855  0.5749
 9195TIP3   OH251779   3.444   3.770   2.796  0.1358 -0.3683 -0.7730
 9195TIP3    H151780   3.387   3.703   2.758  0.7505 -1.6521  0.4633
 9195TIP3    H251781   3.404   3.792   2.880  0.6781 -0.2124 -0.5473
 9196TIP3   OH251782   4.159   0.920   3.627  0.5863 -0.0146 -0.1034
 9196TIP3    H151783   4.173   0.936   3.720  2.4920 -1.4635 -0.0651
 9196TIP3    H251784   4.096   0.849   3.624 -0.8933  1.2503 -0.0142
 9197TIP3   OH251785   0.732   3.191   3.075  0.5670  0.1503  0.3049
 9197TIP3    H151786   0.817   3.218   3.042  0.4744  0.9727  0.7071
 9197TIP3    H251787   0.739   3.200   3.170  0.5488 -1.3293  0.4724
 9198TIP3   OH251788   6.031   2.002   1.347  0.3353 -0.4522 -0.1353
 9198TIP3    H151789   6.043   1.960   1.262  0.2607  0.7872 -0.7830
 9198TIP3    H251790   6.117   1.998   1.388  0.7208  0.1541 -0.8547
 9199TIP3   OH251791   0.944   5.791   3.360  0.2953  0.0473  0.0070
 9199TIP3    H151792   0.882   5.855   3.324 -0.7138  0.1078  1.7118
 9199TIP3    H251793   0.904   5.764   3.443  2.6538  0.2346  1.2881
 9200TIP3   OH251794   5.536   0.814   2.716  0.3812 -0.0115 -0.4246
 9200TIP3    H151795   5.554   0.791   2.808 -1.5814 -0.1425 -0.0240
 9200TIP3    H251796   5.598   0.884   2.696  2.4381 -1.5445  0.2350
 9201TIP3   OH251797   5.581   0.201   2.448  0.2926  0.1500 -0.4500
 9201TIP3    H151798   5.504   0.161   2.407  0.0895  0.8741 -0.8002
 9201TIP3    H251799   5.577   0.174   2.539 -0.8522  0.8614 -0.2669
 9202TIP3   OH251800   4.068   3.238   1.437  0.1967  0.0584  0.3527
 9202TIP3    H151801   4.153   3.270   1.408 -1.0321  2.1717 -1.3375
 9202TIP3    H251802   4.055   3.278   1.523  0.9583 -0.4002  0.6870
 9203TIP3   OH251803   3.123   3.065   2.130  0.4069  0.0902 -0.0055
 9203TIP3    H151804   3.146   3.119   2.055 -0.6675 -2.2049 -2.1532
 9203TIP3    H251805   3.035   3.094   2.154 -0.4484 -1.0309 -1.5871
 9204TIP3   OH251806   3.870   1.941   2.515 -0.4360 -0.2310  0.2934
 9204TIP3    H151807   3.856   2.036   2.506  0.3023 -0.0290  1.1010
 9204TIP3    H251808   3.800   1.902   2.463 -0.2604  0.7627 -0.7510
 9205TIP3   OH251809   0.097   0.260   2.506  0.6826  0.2319 -0.7189
 9205TIP3    H151810   0.001   0.256   2.506  0.6893 -0.1911 -1.5343
 9205TIP3    H251811   0.119   0.304   2.423  1.2031  0.1026 -0.6516
 9206TIP3   OH251812   3.409   4.326   1.246  0.7604  0.5670 -0.1555
 9206TIP3    H151813   3.447   4.240   1.227  1.3763  0.3883  1.7386
 9206TIP3    H251814   3.401   4.367   1.160  2.3266 -0.5993 -0.9142
 9207TIP3   OH251815   5.917   0.400   1.329  0.4832  0.3097  0.5509
 9207TIP3    H151816   5.961   0.417   1.246  1.6312 -0.6597  0.9417
 9207TIP3    H251817   5.944   0.472   1.386 -0.6033  1.1842  0.0036
 9208TIP3   OH251818   6.795   2.733   3.127  0.4065  0.0799 -0.1662
 9208TIP3    H151819   6.878   2.693   3.151  2.4039  2.7067 -2.0464
 9208TIP3    H251820   6.761   2.678   3.056  0.4377 -1.0581  0.6785
 9209TIP3   OH251821   0.060   3.717   2.608 -0.3743  0.3401 -0.0373
 9209TIP3    H151822   0.144   3.727   2.654 -0.3653  1.3068 -0.2280
 9209TIP3    H251823   0.083   3.724   2.515 -0.2950 -2.2737 -0.2970
 9210TIP3   OH251824   5.745   5.309   2.125  0.0804 -0.2265  0.1324
 9210TIP3    H151825   5.742   5.366   2.202 -0.8681 -0.5410  0.3416
 9210TIP3    H251826   5.695   5.232   2.150  1.8951 -1.4750  0.0818
 9211TIP3   OH251827   2.124   0.283   1.607  0.2065  0.0191  0.1321
 9211TIP3    H151828   2.069   0.357   1.635  1.3367  0.5187  1.1065
 9211TIP3    H251829   2.156   0.309   1.520 -1.9860 -0.8032 -0.9889
 9212TIP3   OH251830   4.069   4.368   0.776 -0.0365  0.2366 -0.5883
 9212TIP3    H151831   3.991   4.416   0.749  0.2856  0.9404 -0.2888
 9212TIP3    H251832   4.040   4.314   0.849 -0.2949  0.3264 -0.6239
 9213TIP3   OH251833   2.310   0.982   2.062 -0.3756  0.7057  0.8778
 9213TIP3    H151834   2.336   1.000   2.153  1.1186 -0.6792  0.7671
 9213TIP3    H251835   2.362   0.906   2.037 -1.2173  0.6856 -0.9605
 9214TIP3   OH251836   0.414   5.473   2.213  0.2426  0.2775  0.4522
 9214TIP3    H151837   0.356   5.511   2.147 -1.6834 -1.6499  0.9381
 9214TIP3    H251838   0.502   5.487   2.178 -0.5661  1.9899 -1.0299
 9215TIP3   OH251839   1.764   2.704   3.172  0.2227 -0.2423  0.3635
 9215TIP3    H151840   1.675   2.672   3.188 -0.2125  1.1715  1.0191
 9215TIP3    H251841   1.765   2.725   3.078  0.1258 -0.9882  0.1894
 9216TIP3   OH251842   0.903   0.109   1.669  0.4762 -0.6846  0.2247
 9216TIP3    H151843   0.905   0.102   1.573  0.9921 -1.3483  0.2764
 9216TIP3    H251844   0.918   0.202   1.686 -1.8172 -0.1455 -0.3811
 9217TIP3   OH251845   0.406   6.591   1.441  0.2737  0.0672 -0.3865
 9217TIP3    H151846   0.376   6.605   1.351  1.1590  0.9320 -0.5680
 9217TIP3    H251847   0.499   6.613   1.439  0.1758  0.7215  0.8674
 9218TIP3   OH251848   4.437   4.410   2.414 -0.3186  0.1074 -0.2596
 9218TIP3    H151849   4.511   4.349   2.418 -2.0490 -2.1806 -1.0183
 9218TIP3    H251850   4.439   4.444   2.325  1.6357  2.6395  0.6184
 9219TIP3   OH251851   5.416   4.167   2.944 -0.2426  0.1036  0.1769
 9219TIP3    H151852   5.475   4.095   2.920 -0.8851 -0.6374  0.7634
 9219TIP3    H251853   5.462   4.214   3.013 -1.1481 -1.7011  2.1241
 9220TIP3   OH251854   4.575   0.983   2.005 -0.5200 -0.3567  1.0099
 9220TIP3    H151855   4.533   0.901   2.030 -1.3500 -0.1620  0.3123
 9220TIP3    H251856   4.506   1.033   1.962  0.1726  0.3978  0.7483
 9221TIP3   OH251857   0.234   5.819   2.518  0.0831  0.1172 -0.6049
 9221TIP3    H151858   0.183   5.884   2.471 -0.1922 -0.7582 -1.5686
 9221TIP3    H251859   0.304   5.795   2.457  0.5854  0.0003  0.0026
 9222TIP3   OH251860   2.220   4.016   2.762  0.1731  0.4793  0.0295
 9222TIP3    H151861   2.292   4.050   2.708  0.2419  0.2913  0.0013
 9222TIP3    H251862   2.260   3.945   2.812 -0.2874 -0.4910 -0.9373
 9223TIP3   OH251863   4.383   3.531   3.511  0.4639  0.0080  0.0910
 9223TIP3    H151864   4.296   3.548   3.473 -0.4640  0.9466  2.4371
 9223TIP3    H251865   4.385   3.437   3.526  1.1416 -0.5266 -2.7362
 9224TIP3   OH251866   3.013   6.693   4.807 -0.0336 -0.2726  0.0141
 9224TIP3    H151867   2.954   6.757   4.769  1.7402  0.7917 -1.0925
 9224TIP3    H251868   2.984   6.685   4.898 -1.7690  0.2741 -0.4460
 9225TIP3   OH251869   1.730   3.389   1.198  0.6081 -0.1907  0.2545
 9225TIP3    H151870   1.810   3.402   1.147  0.3271 -2.6345 -0.9582
 9225TIP3    H251871   1.712   3.295   1.190 -1.8821  0.1345  1.2794
 9226TIP3   OH251872   2.290   4.357   2.625 -0.3599 -0.3546  0.4953
 9226TIP3    H151873   2.249   4.421   2.684 -2.1048 -0.7312 -0.2229
 9226TIP3    H251874   2.217   4.326   2.571  1.2489  0.4376 -2.2905
 9227TIP3   OH251875   2.578   1.673   1.542  0.0097  0.3241 -0.2910
 9227TIP3    H151876   2.581   1.769   1.541 -0.7403  0.3526 -0.0608
 9227TIP3    H251877   2.643   1.647   1.476 -0.1386  0.9987 -0.7112
 9228TIP3   OH251878   2.882   1.506   0.817 -0.2015 -0.0422 -0.3389
 9228TIP3    H151879   2.817   1.436   0.802 -0.2478 -0.6851  2.3568
 9228TIP3    H251880   2.893   1.508   0.912  3.2980  0.4808 -0.6470
 9229TIP3   OH251881   5.676   5.099   2.764 -0.6480 -0.5914 -0.1372
 9229TIP3    H151882   5.634   5.091   2.679  0.5923  2.1774 -1.1460
 9229TIP3    H251883   5.700   5.192   2.770  0.9298 -1.0543  2.4554
 9230TIP3   OH251884   2.863   4.630   0.644  0.1670  0.4172 -0.0133
 9230TIP3    H151885   2.767   4.634   0.639  0.1305  2.3343  1.1898
 9230TIP3    H251886   2.886   4.548   0.600 -1.8591  1.0248 -2.4841
 9231TIP3   OH251887   3.835   2.461   2.617 -0.3594 -0.3240 -0.0696
 9231TIP3    H151888   3.922   2.493   2.594 -0.2349  0.3923  1.2658
 9231TIP3    H251889   3.849   2.414   2.699 -1.2613  0.0292  0.2952
 9232TIP3   OH251890   2.388   0.514   3.875 -0.2058 -0.0927 -0.3291
 9232TIP3    H151891   2.471   0.524   3.921  0.5019  0.5935 -1.6837
 9232TIP3    H251892   2.396   0.431   3.829 -2.4141 -2.7970  3.5973
 9233TIP3   OH251893   0.792   5.399   2.969 -0.2766 -0.0004  0.4801
 9233TIP3    H151894   0.725   5.429   2.908 -0.9346  0.0469  1.2005
 9233TIP3    H251895   0.747   5.396   3.054  0.2040 -1.4935  0.7122
 9234TIP3   OH251896   3.289   2.262   1.790 -0.2903 -0.3790  0.5836
 9234TIP3    H151897   3.344   2.191   1.756  1.6224  2.0403 -1.7987
 9234TIP3    H251898   3.338   2.298   1.864 -0.2464 -0.2327  0.4829
 9235TIP3   OH251899   2.980   6.378   1.584 -0.2905  0.0893 -0.3701
 9235TIP3    H151900   2.971   6.440   1.512 -0.5248 -0.5408 -0.8965
 9235TIP3    H251901   2.890   6.363   1.614 -0.3108 -0.4897 -0.6881
 9236TIP3   OH251902   2.852   4.208   2.535 -0.0114  0.7638  0.2565
 9236TIP3    H151903   2.900   4.128   2.558 -1.8889 -0.1715  1.1756
 9236TIP3    H251904   2.792   4.181   2.465  0.0249  1.6275 -0.1219
 9237TIP3   OH251905   1.625   4.545   1.108 -0.5023 -0.2899  0.1743
 9237TIP3    H151906   1.662   4.621   1.153  0.5409 -0.6758  0.0110
 9237TIP3    H251907   1.554   4.580   1.054 -1.0570  0.3318  1.2728
 9238TIP3   OH251908   5.475   2.641   3.259  0.0480 -0.0175  0.1939
 9238TIP3    H151909   5.542   2.688   3.210 -0.1512 -0.5118 -0.5713
 9238TIP3    H251910   5.393   2.683   3.235 -0.4179 -2.0614 -2.2531
 9239TIP3   OH251911   1.087   5.285   0.872  0.1042  0.6193  0.0019
 9239TIP3    H151912   1.116   5.280   0.963 -0.3047  0.4809  0.1240
 9239TIP3    H251913   1.159   5.330   0.827  1.0582 -0.7852  0.0596
 9240TIP3   OH251914   4.083   1.435   3.390  0.2998  0.8337 -0.6784
 9240TIP3    H151915   4.117   1.355   3.431 -1.3000  0.5774  0.2416
 9240TIP3    H251916   3.998   1.449   3.432 -0.6849  1.5169 -2.7704
 9241TIP3   OH251917   5.416   2.282   2.834 -0.4418 -0.5331  0.0265
 9241TIP3    H151918   5.479   2.304   2.765  1.0131 -0.3578  1.3486
 9241TIP3    H251919   5.342   2.245   2.787 -0.3145  1.2959 -1.7825
 9242TIP3   OH251920   2.981   5.410   2.216 -0.2524 -0.1049 -0.1205
 9242TIP3    H151921   3.009   5.423   2.307  1.4440  0.0687 -0.6211
 9242TIP3    H251922   2.969   5.499   2.181  0.9844 -0.0999 -0.5805
 9243TIP3   OH251923   2.779   0.352   1.239  0.1287  0.1831  0.1531
 9243TIP3    H151924   2.686   0.348   1.215  0.2827  1.0888 -0.6822
 9243TIP3    H251925   2.810   0.262   1.233 -0.6902 -0.1262  0.4248
 9244TIP3   OH251926   5.604   5.121   2.414  0.9643 -0.1692  0.6065
 9244TIP3    H151927   5.671   5.103   2.348 -0.3664  0.1798 -0.8882
 9244TIP3    H251928   5.527   5.072   2.386 -0.4447  1.9737  0.4143
 9245TIP3   OH251929   2.121   1.493   3.389  0.1560  1.0806 -0.4298
 9245TIP3    H151930   2.129   1.573   3.440  0.1841  1.3161 -0.8016
 9245TIP3    H251931   2.056   1.441   3.437 -1.0368  1.9801 -1.0054
 9246TIP3   OH251932   6.711   0.538   2.448 -0.1080  0.3222 -0.1284
 9246TIP3    H151933   6.767   0.501   2.381  0.4663 -0.8440  0.9583
 9246TIP3    H251934   6.733   0.631   2.450  3.1476 -0.3600  1.4756
 9247TIP3   OH251935   5.672   4.363   1.414  0.3154  0.1767  0.2104
 9247TIP3    H151936   5.663   4.269   1.429 -0.5886  0.3239  0.6839
 9247TIP3    H251937   5.766   4.379   1.420  0.7497 -1.0459 -2.1137
 9248TIP3   OH251938   2.806   0.907   2.244  0.2313  0.1264 -0.7735
 9248TIP3    H151939   2.727   0.901   2.297  1.6251 -0.6547  1.3134
 9248TIP3    H251940   2.839   0.817   2.239 -0.0460  0.0879 -3.3729
 9249TIP3   OH251941   5.976   4.018   3.530 -0.1268 -0.1316 -0.4369
 9249TIP3    H151942   5.998   3.943   3.475  0.0160  0.1404 -0.7572
 9249TIP3    H251943   5.927   3.981   3.603 -0.2566 -0.5090 -0.7122
 9250TIP3   OH251944   2.196   2.030   1.276 -0.3334 -0.0672  0.3312
 9250TIP3    H151945   2.253   1.954   1.266  0.5557  0.8056 -1.9807
 9250TIP3    H251946   2.108   1.998   1.258  0.0930 -0.4999 -1.0758
 9251TIP3   OH251947   0.991   5.434   3.738 -0.5854  0.2543 -0.6634
 9251TIP3    H151948   0.897   5.415   3.738 -0.9404  1.8281  0.3947
 9251TIP3    H251949   0.997   5.525   3.769  1.3250 -0.0347 -0.0746
 9252TIP3   OH251950   2.770   4.252   3.532  0.3811  0.0464  0.0581
 9252TIP3    H151951   2.693   4.308   3.538 -0.3903 -0.9821  0.1774
 9252TIP3    H251952   2.836   4.305   3.487 -1.1432  0.1746 -2.1945
 9253TIP3   OH251953   4.076   1.917   1.692 -0.5877  0.1769  0.4377
 9253TIP3    H151954   4.111   2.005   1.706 -1.0909  0.1017  2.5534
 9253TIP3    H251955   4.148   1.858   1.713 -0.3422  0.0543 -0.6854
 9254TIP3   OH251956   2.818   5.007   1.316  0.1083  0.1924 -0.6241
 9254TIP3    H151957   2.742   5.025   1.261 -0.3402  0.5999  0.1171
 9254TIP3    H251958   2.781   4.972   1.397  0.6960  0.6546 -0.1548
 9255TIP3   OH251959   1.867   4.353   1.721  0.1334  0.2825  0.1694
 9255TIP3    H151960   1.920   4.344   1.800  0.9196 -2.8381 -0.5890
 9255TIP3    H251961   1.930   4.353   1.649 -0.6925  0.9250 -0.5914
 9256TIP3   OH251962   5.965   1.431   3.581  0.7264 -0.4868 -0.1472
 9256TIP3    H151963   5.991   1.408   3.670  0.4707  1.4252  0.4660
 9256TIP3    H251964   6.046   1.463   3.541  0.9984 -2.0053 -0.8614
 9257TIP3   OH251965   0.078   2.742   1.194 -0.2284 -0.2620  0.3785
 9257TIP3    H151966   0.035   2.811   1.245 -0.0850 -0.1130  0.3022
 9257TIP3    H251967   0.017   2.669   1.195 -1.0163  0.3379 -0.7070
 9258TIP3   OH251968   2.522   3.430   2.789 -0.3454  0.3159 -0.0791
 9258TIP3    H151969   2.433   3.417   2.822 -0.1822 -0.3023  0.1439
 9258TIP3    H251970   2.512   3.491   2.716 -1.1122 -0.6771 -0.8299
 9259TIP3   OH251971   5.353   4.593   3.554 -0.3725 -0.3214  0.1279
 9259TIP3    H151972   5.352   4.625   3.463  1.2248  2.2380  0.9063
 9259TIP3    H251973   5.270   4.624   3.590  0.3674  1.5754  0.3551
 9260TIP3   OH251974   3.293   1.679   2.251  0.2732  0.3678 -0.0575
 9260TIP3    H151975   3.370   1.736   2.245  2.7371 -2.7242 -0.3549
 9260TIP3    H251976   3.301   1.637   2.336 -0.7507 -0.4741 -0.3562
 9261TIP3   OH251977   5.507   1.600   3.807  0.2245 -0.1587 -0.1301
 9261TIP3    H151978   5.554   1.569   3.884 -0.9053  1.0835  1.0862
 9261TIP3    H251979   5.573   1.598   3.737  1.8403  0.6039  1.2948
 9262TIP3   OH251980   5.247   4.740   2.709  0.3009 -0.2424 -0.1819
 9262TIP3    H151981   5.331   4.727   2.665  1.2615  1.5920  0.9989
 9262TIP3    H251982   5.217   4.826   2.679  1.1433  1.2341  2.8513
 9263TIP3   OH251983   3.248   4.284   3.455 -0.1438  0.1572  0.8016
 9263TIP3    H151984   3.276   4.373   3.476 -2.1817  0.8219  0.8517
 9263TIP3    H251985   3.202   4.292   3.371  0.9030 -1.1226  0.0612
 9264TIP3   OH251986   0.319   4.472   2.815  0.2873 -0.7548 -0.6237
 9264TIP3    H151987   0.253   4.513   2.760  0.3832 -0.0412 -0.2195
 9264TIP3    H251988   0.392   4.534   2.815  0.5438 -1.0503 -0.2272
 9265TIP3   OH251989   4.927   6.343   1.014 -0.1444  0.0267  0.1173
 9265TIP3    H151990   4.842   6.309   0.986 -0.5359  1.5668 -0.6286
 9265TIP3    H251991   4.914   6.371   1.104  0.0757 -1.3444  0.6069
 9266TIP3   OH251992   6.723   5.909   1.189  0.3113  0.0111 -0.1082
 9266TIP3    H151993   6.738   5.944   1.101  1.4537  0.6468  0.3160
 9266TIP3    H251994   6.645   5.854   1.180 -1.2524  2.2160 -0.9388
 9267TIP3   OH251995   3.812   6.063   1.817  0.0434 -0.2789 -0.1758
 9267TIP3    H151996   3.897   6.107   1.813  0.3877 -0.9415 -0.2647
 9267TIP3    H251997   3.803   6.020   1.732  0.3562 -1.5408  0.4042
 9268TIP3   OH251998   0.744   2.005   2.210  0.5464  0.6136 -0.6641
 9268TIP3    H151999   0.777   2.070   2.272  0.8707 -0.1514 -0.0199
 9268TIP3    H252000   0.728   1.928   2.263  0.3983  0.0873 -1.4654
 9269TIP3   OH252001   4.039   1.494   1.362 -0.0438  0.1058  0.0672
 9269TIP3    H152002   4.124   1.508   1.405 -0.2158  0.0038  0.4463
 9269TIP3    H252003   4.011   1.581   1.336 -0.0872  0.2119  0.4564
 9270TIP3   OH252004   4.057   0.483   0.768  0.5233 -0.4222  0.3096
 9270TIP3    H152005   3.984   0.518   0.718  1.8556  0.3774 -1.1518
 9270TIP3    H252006   4.078   0.551   0.832  1.9505  0.7440 -1.3370
 9271TIP3   OH252007   3.599   6.091   1.239  0.4757 -0.2973 -0.3340
 9271TIP3    H152008   3.629   6.008   1.202  2.9402 -0.1799  1.2003
 9271TIP3    H252009   3.533   6.066   1.304  1.6077 -1.1768  0.5277
 9272TIP3   OH252010   0.167   6.266   0.608  0.1042 -0.1461 -0.1365
 9272TIP3    H152011   0.119   6.270   0.525 -0.8657  2.9981  0.4730
 9272TIP3    H252012   0.125   6.195   0.656 -2.5470  1.0326 -0.5238
 9273TIP3   OH252013   1.863   2.682   0.610 -0.2038 -0.0850 -0.2827
 9273TIP3    H152014   1.861   2.753   0.546  0.3844  2.4409  2.2947
 9273TIP3    H252015   1.955   2.653   0.611  0.2329  1.2578  0.7645
 9274TIP3   OH252016   1.913   6.227   0.901  0.4806 -0.3595  0.5507
 9274TIP3    H152017   1.944   6.173   0.974 -1.7489 -2.0488  0.3633
 9274TIP3    H252018   1.988   6.281   0.877  0.9466  1.3816  5.0006
 9275TIP3   OH252019   5.855   2.335   1.731  0.0035 -0.2743 -0.0099
 9275TIP3    H152020   5.894   2.298   1.811 -0.9702  1.8737  1.5321
 9275TIP3    H252021   5.761   2.330   1.745 -0.2050  3.2107  0.5790
 9276TIP3   OH252022   6.778   0.031   3.956 -0.9116  0.2607  0.0297
 9276TIP3    H152023   6.722   0.109   3.956 -0.0739  0.9757 -2.5216
 9276TIP3    H252024   6.735  -0.029   3.895  0.8916  0.7593 -1.8519
 9277TIP3   OH252025   0.586   3.064   2.428 -0.2101 -0.1875 -0.5669
 9277TIP3    H152026   0.506   3.036   2.473 -0.0673  0.8163  0.3509
 9277TIP3    H252027   0.656   3.051   2.492  0.1747  0.0895 -0.9249
 9278TIP3   OH252028   3.376   0.536   0.965 -0.0708 -0.0023 -0.3342
 9278TIP3    H152029   3.281   0.528   0.971 -0.0814 -0.1571 -0.6781
 9278TIP3    H252030   3.390   0.594   0.890  0.1045  0.0166 -0.2861
 9279TIP3   OH252031   4.845   0.245   2.128  0.0703  0.1668 -0.1707
 9279TIP3    H152032   4.857   0.327   2.081 -0.1273  0.0060 -0.4974
 9279TIP3    H252033   4.782   0.196   2.077 -0.0326 -0.0722  0.1800
 9280TIP3   OH252034   1.778   3.259   2.957  0.3698 -0.1010  0.0826
 9280TIP3    H152035   1.692   3.225   2.934  0.9127 -0.0165 -2.3802
 9280TIP3    H252036   1.813   3.197   3.020 -1.0566 -0.7188  0.2970
 9281TIP3   OH252037   6.628   1.677   1.511 -0.1398 -0.1241  0.5116
 9281TIP3    H152038   6.626   1.662   1.606  0.5750 -1.7608  0.2884
 9281TIP3    H252039   6.704   1.734   1.498 -0.2674  0.1492  0.9074
 9282TIP3   OH252040   5.343   3.198   1.856  0.0526  0.1472  0.4255
 9282TIP3    H152041   5.274   3.199   1.789 -0.5000 -1.8266  0.9108
 9282TIP3    H252042   5.420   3.232   1.811 -0.5163 -0.3346 -0.9805
 9283TIP3   OH252043   4.798   2.573   1.665 -0.2557  0.0002  0.1836
 9283TIP3    H152044   4.822   2.491   1.710 -0.9961 -0.4474 -0.2220
 9283TIP3    H252045   4.868   2.586   1.601  0.6233  0.4539  1.2033
 9284TIP3   OH252046   4.190   4.380   3.872  0.1621 -0.3882  0.1648
 9284TIP3    H152047   4.228   4.292   3.872  3.5301  0.8853  1.2573
 9284TIP3    H252048   4.257   4.435   3.913 -2.1854  2.5669  0.4171
 9285TIP3   OH252049   5.571   5.700   1.263 -0.0954 -0.5892  0.5934
 9285TIP3    H152050   5.578   5.657   1.178 -0.3023  0.1710  0.1823
 9285TIP3    H252051   5.568   5.794   1.243 -1.7050 -0.4497  1.3178
 9286TIP3   OH252052   2.765   4.074   2.309 -0.2471  0.2538  0.7070
 9286TIP3    H152053   2.832   4.061   2.242  0.1518  1.4445  0.8519
 9286TIP3    H252054   2.683   4.080   2.260 -0.0410  0.4205  0.3812
 9287TIP3   OH252055   3.722   1.133   0.401  0.2542 -0.4537 -0.4678
 9287TIP3    H152056   3.756   1.130   0.312 -1.1199  1.2962 -1.1088
 9287TIP3    H252057   3.746   1.220   0.433 -1.7491  0.0495 -0.2143
 9288TIP3   OH252058   3.017   5.939   2.420  0.2697  0.1654 -0.1738
 9288TIP3    H152059   2.925   5.930   2.445  0.5718 -1.2859  0.6064
 9288TIP3    H252060   3.062   5.959   2.503  0.9301 -1.7011 -0.0205
 9289TIP3   OH252061   5.377   6.627   1.775 -0.0022  0.4280 -0.1950
 9289TIP3    H152062   5.302   6.578   1.808 -0.9456  2.0187  0.1547
 9289TIP3    H252063   5.447   6.611   1.839 -0.7721  0.7462  0.7474
 9290TIP3   OH252064   1.374   4.295   1.242 -0.4615  0.2791  0.0264
 9290TIP3    H152065   1.321   4.366   1.279  1.2913  1.4567  0.4197
 9290TIP3    H252066   1.363   4.305   1.148 -0.2509  1.0851  0.0743
 9291TIP3   OH252067   2.343   6.684   3.182 -0.3364  0.5884 -0.3787
 9291TIP3    H152068   2.315   6.601   3.220  1.1016  0.5279  0.6440
 9291TIP3    H252069   2.384   6.661   3.100  2.3825 -0.0839  1.0638
 9292TIP3   OH252070   2.095   2.490   1.838 -0.6556 -0.3261 -0.7408
 9292TIP3    H152071   2.151   2.568   1.842 -1.9879  0.7893 -2.5052
 9292TIP3    H252072   2.007   2.524   1.821 -1.4905 -2.1757 -0.4362
 9293TIP3   OH252073   5.293   5.494   3.815 -0.2331 -0.3120 -0.1972
 9293TIP3    H152074   5.199   5.484   3.829 -0.0585 -1.3590  0.3214
 9293TIP3    H252075   5.323   5.549   3.888 -0.3784 -0.3503 -0.1081
 9294TIP3   OH252076   1.772   1.292   1.809  0.2897 -0.4534  0.0311
 9294TIP3    H152077   1.804   1.207   1.841  1.2065  0.5657  1.9336
 9294TIP3    H252078   1.845   1.352   1.822 -1.8606  1.7382  3.5766
 9295TIP3   OH252079   3.688   6.030   2.637 -0.5338 -0.2689  0.0180
 9295TIP3    H152080   3.650   5.957   2.588 -1.7616 -0.4009  1.0860
 9295TIP3    H252081   3.616   6.092   2.647  0.5785  1.2853 -1.1478
 9296TIP3   OH252082   3.297   3.693   0.918 -0.5763 -0.2130 -0.0634
 9296TIP3    H152083   3.253   3.612   0.943 -1.1350  0.2819  0.6253
 9296TIP3    H252084   3.384   3.686   0.957 -0.5710 -0.5417 -0.1324
 9297TIP3   OH252085   1.483   4.205   2.407  0.4090 -0.0953  0.5265
 9297TIP3    H152086   1.529   4.247   2.481  0.5665  1.4031 -0.3789
 9297TIP3    H252087   1.403   4.170   2.446  0.5187  0.6183  1.4438
 9298TIP3   OH252088   5.152   5.390   3.300  0.3470  0.0608 -0.1228
 9298TIP3    H152089   5.118   5.383   3.390 -1.6315  0.0889 -0.8287
 9298TIP3    H252090   5.174   5.483   3.290 -0.1539  0.2045  0.0828
 9299TIP3   OH252091   4.129   2.374   3.636 -0.7074 -0.3349  0.2811
 9299TIP3    H152092   4.119   2.423   3.718  0.7064 -0.5882  0.6341
 9299TIP3    H252093   4.205   2.318   3.650  1.8963  2.1445 -2.3507
 9300TIP3   OH252094   4.664   3.922   1.427 -0.4848  0.5639  0.0504
 9300TIP3    H152095   4.712   3.853   1.382 -1.3501  0.5661 -0.9023
 9300TIP3    H252096   4.724   3.952   1.495  0.5157 -0.0406 -0.5402
 9301TIP3   OH252097   1.556   2.723   2.320  0.1102  0.0384  0.4453
 9301TIP3    H152098   1.500   2.645   2.320 -0.6858  0.5185 -1.8324
 9301TIP3    H252099   1.499   2.793   2.287  1.2965  1.1811  0.7388
 9302TIP3   OH252100   2.600   5.827   3.535  0.0326  0.3384  0.0810
 9302TIP3    H152101   2.583   5.913   3.499 -0.6389 -0.0314 -0.5133
 9302TIP3    H252102   2.624   5.773   3.460 -1.5118 -0.4675  0.1077
 9303TIP3   OH252103   4.286   3.810   2.275 -0.3709 -0.4163  0.2738
 9303TIP3    H152104   4.294   3.882   2.338  0.0619  1.5681 -1.8947
 9303TIP3    H252105   4.201   3.826   2.232 -0.1035 -0.9916 -0.4857
 9304TIP3   OH252106   0.483   5.288   1.005 -0.3922 -0.0375  0.3260
 9304TIP3    H152107   0.505   5.363   0.950 -0.4685 -1.1482 -1.3000
 9304TIP3    H252108   0.568   5.252   1.031 -0.1267 -2.0697 -2.7936
 9305TIP3   OH252109   0.586   5.932   2.704 -0.9371  0.5663 -0.0980
 9305TIP3    H152110   0.559   6.024   2.713 -0.1361  0.7151  1.0133
 9305TIP3    H252111   0.526   5.884   2.761 -0.1720  0.6605  0.8284
 9306TIP3   OH252112   6.215   6.498   0.657  0.4960 -0.0921  0.0152
 9306TIP3    H152113   6.261   6.469   0.578 -0.1188 -1.8256  0.2410
 9306TIP3    H252114   6.145   6.434   0.669 -0.8492  1.4355  0.7070
 9307TIP3   OH252115   0.121   1.804   1.156  0.5412  0.0776  0.6356
 9307TIP3    H152116   0.118   1.892   1.118  1.4900 -0.6529 -1.2644
 9307TIP3    H252117   0.038   1.764   1.129  0.0550  0.4114  1.6049
 9308TIP3   OH252118   1.934   5.300   1.126  0.0925 -0.1686 -0.3052
 9308TIP3    H152119   1.986   5.378   1.109 -1.0381  0.2351 -2.0699
 9308TIP3    H252120   1.847   5.333   1.149  0.3617 -0.8591  2.0286
 9309TIP3   OH252121   1.926   3.287   2.707 -0.2110 -0.5225  0.2064
 9309TIP3    H152122   1.944   3.206   2.658  1.1199 -0.2217  0.1772
 9309TIP3    H252123   1.902   3.257   2.795 -1.7644 -1.0276 -0.3502
 9310TIP3   OH252124   2.531   4.426   0.820  0.1798  0.0016 -0.3798
 9310TIP3    H152125   2.560   4.363   0.886  0.4614  0.9794  0.4444
 9310TIP3    H252126   2.438   4.440   0.841 -0.1741 -0.9346 -1.2330
 9311TIP3   OH252127   4.734   3.118   2.400 -0.1023  0.3309  0.3736
 9311TIP3    H152128   4.674   3.068   2.345 -0.6934  2.9906 -1.5602
 9311TIP3    H252129   4.680   3.152   2.471  0.4293 -2.1131  2.0885
 9312TIP3   OH252130   6.631   5.189   1.321 -0.3209  0.2568  0.0044
 9312TIP3    H152131   6.691   5.200   1.247  1.1095 -2.4119  0.6340
 9312TIP3    H252132   6.687   5.163   1.394 -2.0557 -0.7159  1.0644
 9313TIP3   OH252133   1.348   3.151   1.027  0.8382  0.8260  0.1313
 9313TIP3    H152134   1.433   3.125   1.063  0.2501 -1.0930  0.2265
 9313TIP3    H252135   1.322   3.225   1.082  2.2097  1.1432  0.4103
 9314TIP3   OH252136   1.812   4.629   3.307 -0.3429 -0.1847 -0.5990
 9314TIP3    H152137   1.748   4.675   3.253 -1.8573 -0.1872  1.0838
 9314TIP3    H252138   1.851   4.565   3.248 -0.2080  1.3443 -2.2705
 9315TIP3   OH252139   1.222   6.701   0.849  0.1555 -0.1918  0.7157
 9315TIP3    H152140   1.206   6.607   0.855 -1.0585  0.0833  2.5292
 9315TIP3    H252141   1.244   6.728   0.938  1.0977  1.1647  0.1099
 9316TIP3   OH252142   0.761   3.380   1.906 -0.1653 -0.3300  0.2766
 9316TIP3    H152143   0.692   3.435   1.868 -0.1636  0.4934  1.3918
 9316TIP3    H252144   0.826   3.442   1.939  0.0467 -1.0101  1.1833
 9317TIP3   OH252145   1.879   2.554   2.734 -0.7542  0.3399 -0.5619
 9317TIP3    H152146   1.937   2.598   2.796 -1.0441  0.2569 -0.2222
 9317TIP3    H252147   1.912   2.577   2.648  0.1339 -0.1798 -0.3676
 9318TIP3   OH252148   2.904   2.576   3.232 -0.2762 -0.3481 -0.2208
 9318TIP3    H152149   2.918   2.662   3.191  0.7935 -1.3286 -2.0214
 9318TIP3    H252150   2.898   2.596   3.326 -0.4628  1.7343 -0.6183
 9319TIP3   OH252151   5.263   3.720   2.582 -0.0352  0.0926 -0.0535
 9319TIP3    H152152   5.238   3.640   2.629  0.8254  0.2930  0.7878
 9319TIP3    H252153   5.279   3.784   2.651 -1.6727  1.3092 -0.7541
 9320TIP3   OH252154   1.564   5.515   3.766 -0.0321  0.4072 -0.6805
 9320TIP3    H152155   1.546   5.446   3.702 -2.4300  0.2521  0.0581
 9320TIP3    H252156   1.543   5.475   3.851 -0.5790  1.7411 -0.1537
 9321TIP3   OH252157   0.218   6.188   2.529 -0.3097  0.1563 -0.2901
 9321TIP3    H152158   0.203   6.266   2.475  0.0737  1.4267  1.3491
 9321TIP3    H252159   0.190   6.214   2.617  1.4958 -0.9502  0.6758
 9322TIP3   OH252160   2.631   3.260   2.621 -0.5284  0.2480  0.7754
 9322TIP3    H152161   2.642   3.354   2.636 -0.0699  1.0009 -3.0466
 9322TIP3    H252162   2.538   3.249   2.602 -0.5887 -0.0855  1.2560
 9323TIP3   OH252163   1.547   0.642   1.548 -0.3313 -0.5823 -0.1807
 9323TIP3    H152164   1.520   0.668   1.636  0.4166  0.3558 -0.2165
 9323TIP3    H252165   1.472   0.664   1.493 -0.0792  0.6360 -0.0616
 9324TIP3   OH252166   4.956   3.303   1.294  0.8289  0.1288 -0.6797
 9324TIP3    H152167   4.951   3.274   1.385 -1.8550  1.6946 -0.2119
 9324TIP3    H252168   4.976   3.224   1.244  1.1508 -0.9931  1.1559
 9325TIP3   OH252169   2.577   3.356   3.174 -0.3653  0.7609 -0.3894
 9325TIP3    H152170   2.638   3.392   3.110  2.1116 -1.5453  0.4879
 9325TIP3    H252171   2.588   3.412   3.251 -0.4482  1.2017 -0.6887
 9326TIP3   OH252172   2.230   5.733   0.768 -0.1204  0.1977 -0.5322
 9326TIP3    H152173   2.169   5.794   0.726  0.1868 -0.7970 -2.5605
 9326TIP3    H252174   2.178   5.689   0.835 -0.9426  1.1131 -0.5532
 9327TIP3   OH252175   2.531   6.296   2.979  0.4307 -0.1300  0.4975
 9327TIP3    H152176   2.591   6.333   2.915  0.5239  0.1698  0.7551
 9327TIP3    H252177   2.551   6.343   3.060 -0.9048  0.7521  0.3402
 9328TIP3   OH252178   4.824   2.944   2.720 -0.2163  0.3364  0.2476
 9328TIP3    H152179   4.801   2.961   2.811  0.1835  1.0035  0.2304
 9328TIP3    H252180   4.842   3.031   2.683  0.1091  0.0292 -0.3331
 9329TIP3   OH252181   0.963   5.797   1.474 -0.3277 -0.0484  0.0403
 9329TIP3    H152182   0.950   5.704   1.494  0.8998 -0.3687 -0.6066
 9329TIP3    H252183   0.979   5.837   1.560  2.0470 -0.9441  0.0790
 9330TIP3   OH252184   4.787   6.067   2.723  0.3369  0.1245  0.0777
 9330TIP3    H152185   4.795   6.077   2.817 -0.0610 -2.2598  0.4401
 9330TIP3    H252186   4.862   6.014   2.697 -0.7584 -1.2362 -0.5043
 9331TIP3   OH252187   3.516   6.795   3.912  0.4047 -0.1464  0.0572
 9331TIP3    H152188   3.497   6.710   3.875 -0.2130  0.9600 -2.3171
 9331TIP3    H252189   3.434   6.824   3.951  0.8028 -0.8966  1.5197
 9332TIP3   OH252190   1.640   0.576   3.408  0.4673  0.3632  0.0260
 9332TIP3    H152191   1.552   0.594   3.440  0.4876  0.5009  0.0039
 9332TIP3    H252192   1.695   0.642   3.450  0.4233  0.8338 -0.6531
 9333TIP3   OH252193   5.438   1.392   4.088  0.0425 -0.0181  0.4161
 9333TIP3    H152194   5.520   1.430   4.058 -0.1358 -0.6388 -0.9525
 9333TIP3    H252195   5.439   1.403   4.183  1.0649  1.2120  0.2797
 9334TIP3   OH252196   5.392   6.762   2.410 -0.1287 -0.2324 -0.2437
 9334TIP3    H152197   5.311   6.810   2.398  1.2182  2.6686  1.3892
 9334TIP3    H252198   5.378   6.709   2.489 -0.1017  1.1146  0.6872
 9335TIP3   OH252199   2.711   1.315   3.258 -0.2809  0.1646  0.5738
 9335TIP3    H152200   2.638   1.373   3.277 -0.7730 -0.4757  0.6776
 9335TIP3    H252201   2.777   1.337   3.324 -0.9447 -0.2395  1.3922
 9336TIP3   OH252202   4.458   0.924   3.689 -0.4209 -0.4502 -0.3560
 9336TIP3    H152203   4.493   0.869   3.759 -1.5860 -0.7268  0.0264
 9336TIP3    H252204   4.363   0.907   3.690 -0.6725  0.8424 -0.8608
 9337TIP3   OH252205   1.782   5.860   2.214  0.3119 -0.5889 -0.2790
 9337TIP3    H152206   1.777   5.819   2.300  1.5394 -0.0313  0.0941
 9337TIP3    H252207   1.830   5.942   2.230 -0.4550  0.0760 -1.3054
 9338TIP3   OH252208   5.881   1.748   3.907 -0.0417  0.6158  0.0651
 9338TIP3    H152209   5.898   1.656   3.927 -1.1055  0.4490  0.2714
 9338TIP3    H252210   5.944   1.796   3.961  0.8503  0.0083 -0.4037
 9339TIP3   OH252211   0.613   3.467   1.186 -0.2954 -0.1554 -0.1661
 9339TIP3    H152212   0.641   3.558   1.197 -0.1809 -0.0123 -1.5032
 9339TIP3    H252213   0.519   3.473   1.168 -0.2888 -0.2923 -0.2461
 9340TIP3   OH252214   4.883   0.942   1.428 -0.3409  0.0088  0.0625
 9340TIP3    H152215   4.794   0.972   1.412 -1.2373 -1.4539  1.9235
 9340TIP3    H252216   4.877   0.893   1.510  2.1468 -0.2987  0.1270
 9341TIP3   OH252217   4.892   5.409   1.295  0.3685  0.0473 -0.3888
 9341TIP3    H152218   4.844   5.466   1.356  2.2388  0.7891  0.4642
 9341TIP3    H252219   4.955   5.468   1.252  2.2350 -1.2935  0.3865
 9342TIP3   OH252220   0.575   4.840   2.553 -0.3131  0.4687 -0.1857
 9342TIP3    H152221   0.515   4.859   2.624  1.1901  3.8620  0.3739
 9342TIP3    H252222   0.561   4.747   2.533 -0.4957 -0.8141  4.7750
 9343TIP3   OH252223   5.151   1.258   2.991  0.0420 -0.5178 -0.5699
 9343TIP3    H152224   5.224   1.312   3.023  0.5131 -0.9801 -0.8467
 9343TIP3    H252225   5.193   1.193   2.934 -0.4777 -1.3879  0.0206
 9344TIP3   OH252226   1.021   3.405   3.613 -0.7435  0.0836 -0.4345
 9344TIP3    H152227   1.001   3.365   3.698 -1.2868 -2.4308 -1.6470
 9344TIP3    H252228   1.067   3.337   3.564  1.1382  2.0647 -1.5995
 9345TIP3   OH252229   5.028   2.841   3.799 -0.3085  0.0089 -0.1649
 9345TIP3    H152230   5.032   2.932   3.827  0.0072  0.6042 -2.0208
 9345TIP3    H252231   4.941   2.811   3.827 -0.9284  1.2837 -0.6448
 9346TIP3   OH252232   3.896   5.640   2.263 -0.2655 -0.0805  0.5517
 9346TIP3    H152233   3.833   5.584   2.219  0.2689  0.0603 -0.4274
 9346TIP3    H252234   3.909   5.600   2.349 -3.2823  1.0739  1.6701
 9347TIP3   OH252235   2.641   3.830   3.239 -0.3841 -0.2073  0.2112
 9347TIP3    H152236   2.724   3.784   3.229 -0.1923  0.4325 -1.3963
 9347TIP3    H252237   2.658   3.893   3.310  0.5758  0.0653 -0.2388
 9348TIP3   OH252238   6.190   3.163   1.692 -0.0315 -0.1555  0.0944
 9348TIP3    H152239   6.138   3.113   1.754 -1.9351  0.0963 -1.2256
 9348TIP3    H252240   6.170   3.254   1.712  0.6060 -0.0134  0.1221
 9349TIP3   OH252241   6.363   4.877   2.334  0.0425  0.7848  0.1513
 9349TIP3    H152242   6.334   4.906   2.421 -2.1513 -2.5954  0.7577
 9349TIP3    H252243   6.407   4.793   2.350  2.5079  1.6033 -1.7735
 9350TIP3   OH252244   2.332   5.898   2.284 -0.1463 -0.4335 -0.4233
 9350TIP3    H152245   2.329   5.951   2.204  0.9041  0.9515  0.4201
 9350TIP3    H252246   2.413   5.848   2.277  1.5126  1.8484  1.0153
 9351TIP3   OH252247   1.924   3.759   3.582 -0.3380  0.1689  0.4113
 9351TIP3    H152248   1.915   3.682   3.525  1.4341 -0.0392  0.3572
 9351TIP3    H252249   1.883   3.732   3.664  0.6881 -1.0687  0.5651
 9352TIP3   OH252250   1.817   4.409   2.227  0.1089  0.7533 -0.1780
 9352TIP3    H152251   1.803   4.465   2.303 -0.9843 -1.6453  1.5272
 9352TIP3    H252252   1.835   4.322   2.264  1.7090 -0.0997 -2.6589
 9353TIP3   OH252253   1.233   1.487   0.882 -0.0287  0.2546  0.0420
 9353TIP3    H152254   1.229   1.409   0.938 -1.0207 -0.3871 -0.8707
 9353TIP3    H252255   1.258   1.453   0.796 -1.7692  0.7284 -0.6881
 9354TIP3   OH252256   0.801   2.774   1.844 -0.1137 -0.2581  0.1436
 9354TIP3    H152257   0.761   2.748   1.927  0.6888 -2.0154  0.0273
 9354TIP3    H252258   0.766   2.711   1.780 -0.0912  0.5652 -0.7048
 9355TIP3   OH252259   1.834   2.061   3.082  0.3509 -0.3949 -0.0183
 9355TIP3    H152260   1.906   2.006   3.114  1.3089  1.8845  2.0020
 9355TIP3    H252261   1.766   2.051   3.148  0.2052  0.1934 -0.0774
 9356TIP3   OH252262   3.890   2.966   0.799  0.0378 -0.0435  0.6262
 9356TIP3    H152263   3.801   2.984   0.832 -0.5915 -1.1007 -0.4158
 9356TIP3    H252264   3.938   2.935   0.876 -0.8007 -0.4448  1.0043
 9357TIP3   OH252265   2.708   5.547   2.882 -0.2247  0.0602 -0.1547
 9357TIP3    H152266   2.716   5.589   2.796 -1.5683 -0.4011 -0.5328
 9357TIP3    H252267   2.793   5.507   2.897  0.2895  0.8356 -0.9035
 9358TIP3   OH252268   0.088   6.695   1.869 -0.0335  0.2269  0.0007
 9358TIP3    H152269   0.124   6.716   1.783  1.9205 -3.5667 -0.2846
 9358TIP3    H252270  -0.002   6.668   1.851  0.2127 -0.0979 -0.7816
 9359TIP3   OH252271   4.598   3.131   1.403  0.0119  0.2406  0.2402
 9359TIP3    H152272   4.602   3.114   1.497 -1.7927  1.0587  0.5025
 9359TIP3    H252273   4.539   3.205   1.394 -0.0710  0.0081 -1.5711
 9360TIP3   OH252274   4.369   5.487   1.746  0.4865 -0.0197  0.6757
 9360TIP3    H152275   4.356   5.500   1.652 -0.1089  1.7643  0.9744
 9360TIP3    H252276   4.308   5.547   1.788  0.5458 -0.9786  2.2348
 9361TIP3   OH252277   6.333   3.963   1.588  0.6845 -0.2032 -0.7424
 9361TIP3    H152278   6.397   4.016   1.635  0.9738 -0.9653 -0.2726
 9361TIP3    H252279   6.253   4.017   1.588  0.9795  0.2391 -0.2850
 9362TIP3   OH252280   4.837   1.618   2.026  0.3959 -0.0421  0.1610
 9362TIP3    H152281   4.766   1.618   1.961 -0.0245  1.9085  0.5544
 9362TIP3    H252282   4.805   1.560   2.095 -0.0754 -0.5087 -0.4372
 9363TIP3   OH252283   0.458   3.976   1.787 -0.7439  0.2895 -0.1890
 9363TIP3    H152284   0.406   3.978   1.706 -0.7552 -0.7684 -0.2209
 9363TIP3    H252285   0.548   3.961   1.757 -0.6903  0.2976 -0.0311
 9364TIP3   OH252286   5.382   5.042   2.901  0.2953  0.0846 -0.1830
 9364TIP3    H152287   5.350   5.040   2.811 -0.3721 -0.6910  0.0602
 9364TIP3    H252288   5.449   5.110   2.901  1.0475 -0.6118 -1.5034
 9365TIP3   OH252289   0.718   6.670   0.696 -0.1553  0.2124  0.5484
 9365TIP3    H152290   0.688   6.579   0.705 -0.6854  0.5131  2.2674
 9365TIP3    H252291   0.641   6.717   0.664  0.3535 -0.0457 -1.1529
 9366TIP3   OH252292   6.006   1.035   2.611 -0.0710 -0.3658  0.4408
 9366TIP3    H152293   6.021   1.062   2.521 -1.1376  0.4309  0.4715
 9366TIP3    H252294   6.078   0.976   2.632 -0.0168 -0.8555 -1.0423
 9367TIP3   OH252295   0.966   4.468   1.849 -0.0087  0.2007 -0.3570
 9367TIP3    H152296   1.060   4.478   1.841 -0.1216  1.0075 -0.8715
 9367TIP3    H252297   0.954   4.397   1.912  0.9430  1.1430  0.9437
 9368TIP3   OH252298   2.971   1.295   0.604  0.1878  0.3571  0.3727
 9368TIP3    H152299   2.889   1.287   0.652 -0.3291  1.3886 -0.3141
 9368TIP3    H252300   3.038   1.265   0.666 -0.8315 -2.1221  0.3806
 9369TIP3   OH252301   0.154   2.043   3.338  0.3945  0.2746 -0.0217
 9369TIP3    H152302   0.074   2.022   3.387 -0.1405  0.8017 -0.6399
 9369TIP3    H252303   0.190   2.120   3.383  0.5518  0.0477  0.2461
 9370TIP3   OH252304   0.229   6.412   2.375  0.0049  0.5205 -0.2021
 9370TIP3    H152305   0.306   6.400   2.319  0.1211  1.2256 -0.2029
 9370TIP3    H252306   0.250   6.488   2.429 -0.0666 -0.1964  0.8769
 9371TIP3   OH252307   5.207   1.647   3.516 -0.1750  0.2713  0.0862
 9371TIP3    H152308   5.184   1.736   3.541  0.6286  0.9583 -1.4660
 9371TIP3    H252309   5.296   1.654   3.481 -0.2911 -1.0359 -0.5346
 9372TIP3   OH252310   0.761   5.983   3.303  0.2525 -0.3960  0.1539
 9372TIP3    H152311   0.695   6.015   3.365  1.4415  0.6322  0.9376
 9372TIP3    H252312   0.777   6.057   3.245 -0.6581 -1.2683 -1.2630
 9373TIP3   OH252313   4.717   4.787   1.575 -0.2300  0.0727  0.8784
 9373TIP3    H152314   4.663   4.730   1.520  1.8627  0.5186 -1.8923
 9373TIP3    H252315   4.758   4.728   1.638 -0.0482 -1.1029 -0.2956
 9374TIP3   OH252316   6.789   4.064   1.827 -0.2211  0.1081  0.6526
 9374TIP3    H152317   6.852   4.105   1.767  0.2346 -1.0717  0.2974
 9374TIP3    H252318   6.819   4.089   1.914  0.4913 -0.0918  0.4685
 9375TIP3   OH252319   0.793   1.433   1.285  0.6210 -0.1011  0.5249
 9375TIP3    H152320   0.723   1.400   1.340  0.5417 -0.7755  0.0287
 9375TIP3    H252321   0.770   1.406   1.196  0.6744  1.0937  0.1294
 9376TIP3   OH252322   3.967   4.352   1.061 -0.0500  0.0773  0.4506
 9376TIP3    H152323   4.034   4.407   1.100  1.2157  0.6869 -2.3518
 9376TIP3    H252324   3.906   4.413   1.020  0.1424 -0.5326 -0.7859
 9377TIP3   OH252325   5.133   3.367   3.096  0.1611 -0.1670 -0.3338
 9377TIP3    H152326   5.203   3.352   3.034  1.3760  1.4675  0.5512
 9377TIP3    H252327   5.134   3.462   3.111 -0.5191 -0.4290  1.6677
 9378TIP3   OH252328   2.208   0.463   3.492 -0.0187 -0.0898 -0.6018
 9378TIP3    H152329   2.260   0.534   3.457 -0.3311  1.2998  1.5854
 9378TIP3    H252330   2.141   0.506   3.545 -2.0946 -1.8987 -1.5709
 9379TIP3   OH252331   0.314   5.948   3.630 -0.0078  0.5436  0.3472
 9379TIP3    H152332   0.303   5.916   3.719 -0.8637  0.5633  0.2572
 9379TIP3    H252333   0.254   5.895   3.578  1.5111 -0.4539 -0.4616
 9380TIP3   OH252334   5.344   3.340   2.932  0.0421 -0.0462 -0.3893
 9380TIP3    H152335   5.399   3.408   2.894  0.1432 -0.1342 -0.4018
 9380TIP3    H252336   5.368   3.260   2.884 -0.3005 -0.0305 -0.5920
 9381TIP3   OH252337   5.290   4.774   1.685 -0.0463 -0.1247  0.8289
 9381TIP3    H152338   5.305   4.703   1.622  0.4985  1.1839 -0.5542
 9381TIP3    H252339   5.338   4.747   1.763 -1.6060 -2.3020  1.1527
 9382TIP3   OH252340   2.104   2.141   0.633  0.0882  0.4701 -0.8212
 9382TIP3    H152341   2.057   2.186   0.563 -0.5493 -0.8338 -1.2737
 9382TIP3    H252342   2.040   2.080   0.669  0.5559  0.7537  0.5833
 9383TIP3   OH252343   0.201   4.616   2.540 -0.0697 -0.5455 -0.2024
 9383TIP3    H152344   0.216   4.669   2.462 -2.0683  0.2517 -0.1179
 9383TIP3    H252345   0.106   4.605   2.543 -0.2609  0.8732  2.9860
 9384TIP3   OH252346   4.610   5.712   1.672 -0.0948 -0.2979 -0.1565
 9384TIP3    H152347   4.618   5.776   1.601  2.8387 -1.4547 -1.0351
 9384TIP3    H252348   4.555   5.642   1.636  0.3041 -0.2673 -0.8473
 9385TIP3   OH252349   5.711   0.004   3.320  0.1672 -0.4720 -0.6681
 9385TIP3    H152350   5.675  -0.010   3.233  0.5186  0.7621 -1.0193
 9385TIP3    H252351   5.805  -0.003   3.309  0.3713  1.9124 -0.8550
 9386TIP3   OH252352   1.163   4.877   1.225 -0.1550  0.6489 -0.0598
 9386TIP3    H152353   1.102   4.807   1.205  0.3249  0.4797 -0.9981
 9386TIP3    H252354   1.121   4.956   1.190 -0.1703  0.6491 -0.0413
 9387TIP3   OH252355   1.753   6.517   2.840  0.5121 -0.3814 -0.2890
 9387TIP3    H152356   1.669   6.499   2.881 -1.3421  1.0844 -3.0967
 9387TIP3    H252357   1.752   6.463   2.760  2.6073 -0.8970 -0.0247
 9388TIP3   OH252358   6.192   3.180   2.730 -0.3881 -0.1846  0.0129
 9388TIP3    H152359   6.240   3.140   2.657  1.9712  1.1530  0.7309
 9388TIP3    H252360   6.215   3.273   2.726 -1.3755  0.1678  1.6020
 9389TIP3   OH252361   6.442   4.645   1.996  0.0018  0.0223  0.5762
 9389TIP3    H152362   6.529   4.684   2.008  0.1979 -0.8283  2.1961
 9389TIP3    H252363   6.382   4.709   2.033  0.0364  0.0789  0.5362
 9390TIP3   OH252364   2.690   1.199   2.219  0.3831  0.8178 -0.6079
 9390TIP3    H152365   2.597   1.198   2.238 -0.0434  0.9806 -2.4378
 9390TIP3    H252366   2.724   1.117   2.256 -0.4275  0.8613  0.2593
 9391TIP3   OH252367   2.714   3.324   0.915  0.1566  0.0029 -0.4805
 9391TIP3    H152368   2.780   3.256   0.931  1.3305  1.0526 -0.7609
 9391TIP3    H252369   2.632   3.275   0.906  0.9831 -1.3894 -0.7884
 9392TIP3   OH252370   5.272   0.214   1.573 -0.3395 -0.0742 -0.2044
 9392TIP3    H152371   5.233   0.216   1.661 -0.6651  2.9962 -0.3100
 9392TIP3    H252372   5.197   0.218   1.514 -0.0692 -0.9849 -0.6271
 9393TIP3   OH252373   2.677   5.369   2.485 -0.3447 -0.9061  0.0517
 9393TIP3    H152374   2.646   5.430   2.418 -1.7493  0.2689  1.6590
 9393TIP3    H252375   2.617   5.384   2.559  1.0707 -2.2045  1.5186
 9394TIP3   OH252376   1.757   2.862   2.943  0.6567 -0.1761  0.5819
 9394TIP3    H152377   1.686   2.894   2.886  0.0101 -0.2599  1.3223
 9394TIP3    H252378   1.831   2.919   2.923 -0.1507  1.1092  1.1012
 9395TIP3   OH252379   4.591   1.944   2.614  0.4148  0.4423  0.1155
 9395TIP3    H152380   4.652   2.012   2.644 -0.3703  1.3564 -0.3082
 9395TIP3    H252381   4.542   1.986   2.544 -1.3922  0.0684  1.1034
 9396TIP3   OH252382   4.653   0.837   2.816 -0.4100  0.3675  0.3198
 9396TIP3    H152383   4.638   0.883   2.899  0.3839  0.9237  0.1610
 9396TIP3    H252384   4.726   0.778   2.834  0.1513  0.9130 -0.1402
 9397TIP3   OH252385   1.424   1.811   1.842 -0.1005  0.0423 -0.6112
 9397TIP3    H152386   1.510   1.787   1.808 -1.0175  0.9139 -3.9769
 9397TIP3    H252387   1.436   1.900   1.874  0.6338 -0.5125  0.7165
 9398TIP3   OH252388   1.162   1.690   2.794 -0.0686  0.1673 -0.6659
 9398TIP3    H152389   1.180   1.722   2.882  0.4799  0.4718 -0.8798
 9398TIP3    H252390   1.210   1.608   2.788 -1.1078 -0.4820 -0.2709
 9399TIP3   OH252391   2.552   1.618   1.808  0.4035  0.2983 -0.1306
 9399TIP3    H152392   2.577   1.688   1.870 -3.0956  0.6466  1.1241
 9399TIP3    H252393   2.530   1.665   1.728  2.1951  0.1159 -0.7798
 9400TIP3   OH252394   5.682   2.155   0.399  0.0357  0.3305  0.4138
 9400TIP3    H152395   5.722   2.219   0.459 -0.5160  1.1701 -0.0800
 9400TIP3    H252396   5.755   2.122   0.346  0.3008  0.7096  0.5381
 9401TIP3   OH252397   6.389   4.013   2.916  0.5879 -0.7025  0.0630
 9401TIP3    H152398   6.329   3.945   2.947  0.3361 -0.4707  0.0795
 9401TIP3    H252399   6.475   3.984   2.947  0.3715 -0.5977  0.7677
 9402TIP3   OH252400   0.118   3.891   0.988  0.0130  0.4901 -0.0124
 9402TIP3    H152401   0.088   3.826   0.926  0.8612  0.9328 -0.9163
 9402TIP3    H252402   0.206   3.915   0.958 -0.0756  1.6742  0.5808
 9403TIP3   OH252403   1.453   2.329   0.698 -0.3839 -0.3243 -0.2560
 9403TIP3    H152404   1.361   2.312   0.717 -0.7564  0.8335 -0.9129
 9403TIP3    H252405   1.483   2.381   0.772 -0.4344 -0.1446 -0.3625
 9404TIP3   OH252406   0.517   1.135   1.635 -0.4174  0.3739  0.1997
 9404TIP3    H152407   0.553   1.156   1.721  1.9491 -0.5411 -0.5081
 9404TIP3    H252408   0.541   1.044   1.619 -2.0693  0.0717 -0.8630
 9405TIP3   OH252409   2.107   4.700   1.622  0.0675 -0.1182  0.0622
 9405TIP3    H152410   2.103   4.642   1.546  0.5177  1.6338 -1.3647
 9405TIP3    H252411   2.016   4.716   1.645 -0.0930 -0.2095 -0.4848
 9406TIP3   OH252412   4.265   2.145   3.755 -0.4000 -0.1545  0.3600
 9406TIP3    H152413   4.234   2.080   3.692 -1.7877  0.6508  0.1538
 9406TIP3    H252414   4.200   2.142   3.825 -0.3664  0.8518  0.4467
 9407TIP3   OH252415   4.650   4.043   2.305 -0.1139 -0.3454 -0.0496
 9407TIP3    H152416   4.706   4.108   2.349  0.3310 -0.1931 -0.8131
 9407TIP3    H252417   4.709   3.999   2.244 -0.2565 -1.9548  0.9341
 9408TIP3   OH252418   0.641   4.251   2.173  0.3289  0.8453  0.3558
 9408TIP3    H152419   0.571   4.242   2.238  0.7978 -0.2292  0.7267
 9408TIP3    H252420   0.629   4.177   2.114  0.4739  1.2952 -0.2495
 9409TIP3   OH252421   1.778   2.733   2.154  0.4050  0.3551  0.6820
 9409TIP3    H152422   1.728   2.669   2.103  0.0622  1.2430 -0.1119
 9409TIP3    H252423   1.731   2.738   2.238  0.1597 -0.0717  0.5773
 9410TIP3   OH252424   0.160   0.537   0.972 -0.0342  0.0842 -0.5061
 9410TIP3    H152425   0.074   0.559   1.008 -1.2061 -2.7567 -1.2317
 9410TIP3    H252426   0.206   0.494   1.045  0.4393  0.8071 -0.3726
 9411TIP3   OH252427   2.162   1.745   3.504  0.2568  0.3083 -0.2247
 9411TIP3    H152428   2.116   1.829   3.502 -0.2007  0.2307  2.9544
 9411TIP3    H252429   2.239   1.761   3.559 -1.5135 -1.9705  3.3149
 9412TIP3   OH252430   1.895   6.385   2.003 -0.3257 -0.1885 -0.2958
 9412TIP3    H152431   1.881   6.423   1.916  1.0648 -0.6889 -0.7671
 9412TIP3    H252432   1.928   6.297   1.985  0.3365 -0.1600  0.7417
 9413TIP3   OH252433   5.301   0.848   0.788  0.0466  0.1021  0.1885
 9413TIP3    H152434   5.289   0.760   0.753  0.8498  0.5749 -1.3786
 9413TIP3    H252435   5.324   0.834   0.880 -1.3419 -1.2273  0.3711
 9414TIP3   OH252436   1.679   6.025   3.872 -0.4195 -0.2753  0.5217
 9414TIP3    H152437   1.588   6.055   3.866 -0.7801 -1.4734 -0.4116
 9414TIP3    H252438   1.730   6.090   3.824 -0.8422  0.1504  0.6431
 9415TIP3   OH252439   4.121   3.553   3.360  0.3390 -0.2242  0.1734
 9415TIP3    H152440   4.098   3.549   3.267  2.4620 -0.0765 -0.4174
 9415TIP3    H252441   4.114   3.462   3.390  0.7736 -0.4747 -0.4549
 9416TIP3   OH252442   3.572   3.708   0.957 -0.2569  0.3254  0.2241
 9416TIP3    H152443   3.607   3.774   0.897 -0.8056  1.2267  0.8820
 9416TIP3    H252444   3.628   3.714   1.035 -0.6332  0.3900  0.4934
 9417TIP3   OH252445   0.095   0.882   0.524 -0.4726  0.2543 -0.2540
 9417TIP3    H152446   0.030   0.953   0.524 -0.3712  0.3494 -0.8296
 9417TIP3    H252447   0.082   0.838   0.608 -2.4435 -0.7994 -1.0756
 9418TIP3   OH252448   5.972   0.073   0.676  0.1177 -0.0064  0.0414
 9418TIP3    H152449   5.888   0.055   0.635  0.2325  0.9307 -0.6343
 9418TIP3    H252450   5.951   0.120   0.757 -0.0514 -0.7596  0.4416
 9419TIP3   OH252451   5.224   3.763   3.830  0.2014 -0.1906 -0.1702
 9419TIP3    H152452   5.144   3.781   3.780  0.1097 -1.3805 -0.4748
 9419TIP3    H252453   5.294   3.760   3.765  0.3035 -0.3654 -0.0553
 9420TIP3   OH252454   6.162   4.246   2.215  0.2447 -0.2351 -0.2410
 9420TIP3    H152455   6.253   4.222   2.198  0.8684  2.0456 -0.3814
 9420TIP3    H252456   6.152   4.239   2.310  1.1206  1.2278 -0.0200
 9421TIP3   OH252457   6.318   2.421   0.791  0.5935  0.7100 -0.1248
 9421TIP3    H152458   6.339   2.334   0.758 -0.7449  0.6645 -0.9320
 9421TIP3    H252459   6.292   2.406   0.882 -0.0316  0.1877 -0.3798
 9422TIP3   OH252460   4.781   3.689   1.336 -0.1659  0.0294 -0.1166
 9422TIP3    H152461   4.827   3.638   1.403 -1.4816 -2.3988 -0.9057
 9422TIP3    H252462   4.848   3.708   1.270  0.6872  0.6297  0.9068
 9423TIP3   OH252463   4.287   4.911   0.830 -0.2088  0.2537 -0.2285
 9423TIP3    H152464   4.229   4.837   0.814 -0.1237  0.0693  0.2948
 9423TIP3    H252465   4.363   4.873   0.874 -1.1032  0.9401  2.0487
 9424TIP3   OH252466   6.168   1.358   3.969  0.0102  0.3427  0.1987
 9424TIP3    H152467   6.088   1.410   3.981  0.1068  0.4208  0.5207
 9424TIP3    H252468   6.141   1.286   3.912 -0.1129  0.7772 -0.3001
 9425TIP3   OH252469   4.604   0.685   3.483  1.0015 -0.6415 -0.1111
 9425TIP3    H152470   4.671   0.752   3.468 -0.2249  0.5667 -0.4402
 9425TIP3    H252471   4.648   0.602   3.465  2.4023  0.1125 -0.2874
 9426TIP3   OH252472   2.399   2.943   2.872 -0.1112  0.2898 -0.0848
 9426TIP3    H152473   2.439   2.947   2.959  0.9459  1.7147 -0.5966
 9426TIP3    H252474   2.462   2.894   2.819  0.5215  1.6546 -0.6451
 9427TIP3   OH252475   0.356   6.670   2.826  0.5149  0.2513 -0.3160
 9427TIP3    H152476   0.263   6.678   2.808 -0.0875 -2.0300  1.2726
 9427TIP3    H252477   0.398   6.736   2.771 -2.0739  1.8588 -0.4799
 9428TIP3   OH252478   3.564   2.431   1.656 -0.4026 -0.1234  0.1275
 9428TIP3    H152479   3.571   2.371   1.582  0.1114 -0.3667  0.3693
 9428TIP3    H252480   3.616   2.507   1.631  1.6692 -1.1407  1.1450
 9429TIP3   OH252481   2.099   2.801   0.756  0.4484  0.3473  0.1227
 9429TIP3    H152482   2.150   2.777   0.679  0.3269 -0.9130  0.4144
 9429TIP3    H252483   2.063   2.888   0.735  1.6729  0.7037 -0.5912
 9430TIP3   OH252484   6.728   2.433   0.668  0.0531  0.0834  0.1812
 9430TIP3    H152485   6.653   2.492   0.659  1.3904  1.7190 -0.7701
 9430TIP3    H252486   6.715   2.390   0.753 -0.8276  2.0026  1.0687
 9431TIP3   OH252487   2.797   5.317   1.165 -0.3464 -0.0655  0.1190
 9431TIP3    H152488   2.742   5.238   1.167  1.6067 -1.4770  0.1907
 9431TIP3    H252489   2.872   5.294   1.111  0.6715  1.4982  0.7754
 9432TIP3   OH252490   1.737   6.563   3.584 -0.2230 -0.1883 -0.1125
 9432TIP3    H152491   1.661   6.545   3.639 -0.6844 -0.7977 -0.9119
 9432TIP3    H252492   1.708   6.541   3.495  0.1264  1.8723 -0.7763
 9433TIP3   OH252493   2.029   3.180   0.442  0.6865 -0.6340  0.5206
 9433TIP3    H152494   2.001   3.272   0.440 -1.0520 -1.0573  2.8420
 9433TIP3    H252495   2.111   3.180   0.391  0.2850  2.0047 -0.2958
 9434TIP3   OH252496   3.066   4.311   3.211  0.1094 -0.1998 -0.3813
 9434TIP3    H152497   3.059   4.353   3.125 -2.4841 -0.9424 -0.6173
 9434TIP3    H252498   3.076   4.218   3.191 -2.6717 -0.6551  0.0253
 9435TIP3   OH252499   0.221   3.169   1.661 -0.0039  0.2791 -0.2901
 9435TIP3    H152500   0.202   3.108   1.732  0.1306 -0.6019 -0.9897
 9435TIP3    H252501   0.297   3.219   1.692  0.2500 -0.3144  0.0519
 9436TIP3   OH252502   3.958   0.959   2.606 -0.0664  0.0022 -0.4660
 9436TIP3    H152503   3.901   0.992   2.536  0.3207 -1.1166 -1.3450
 9436TIP3    H252504   4.018   1.031   2.625  1.6140 -0.5288 -3.2394
 9437TIP3   OH252505   6.067   6.561   1.015 -0.0347  0.0741 -0.3758
 9437TIP3    H152506   6.135   6.529   0.956 -0.9846 -1.7653 -0.5636
 9437TIP3    H252507   6.004   6.605   0.957  0.6038  1.1279 -0.2927
 9438TIP3   OH252508   1.233   3.292   3.038  0.2024 -0.8270  0.1471
 9438TIP3    H152509   1.154   3.308   2.988 -0.1554 -1.3686  0.5246
 9438TIP3    H252510   1.206   3.230   3.107  0.6038  0.1137  1.1825
 9439TIP3   OH252511   2.004   0.334   3.727 -0.1920 -0.0297  0.3168
 9439TIP3    H152512   2.019   0.427   3.713  0.0114 -0.1494 -0.2639
 9439TIP3    H252513   2.065   0.310   3.797 -1.3195  0.5971  1.5521
 9440TIP3   OH252514   3.297   1.300   1.162 -0.2633  0.5929 -0.2817
 9440TIP3    H152515   3.230   1.350   1.114 -0.3445  0.1269 -0.6609
 9440TIP3    H252516   3.371   1.360   1.171  0.0127  0.4652 -1.5878
 9441TIP3   OH252517   0.798   0.063   0.421  0.2194 -0.2849  0.2253
 9441TIP3    H152518   0.803  -0.027   0.389 -4.3735 -0.3609 -1.0793
 9441TIP3    H252519   0.876   0.106   0.386  0.4937 -2.8034 -2.6854
 9442TIP3   OH252520   4.906   0.240   3.567  0.6644  0.5242 -0.0549
 9442TIP3    H152521   5.000   0.244   3.584  0.8832 -1.9500 -0.3242
 9442TIP3    H252522   4.870   0.187   3.638 -0.7063  2.1339  0.5196
 9443TIP3   OH252523   2.542   4.613   2.344  0.4064  0.1100 -0.4917
 9443TIP3    H152524   2.480   4.591   2.274  0.5098 -1.6885 -0.0608
 9443TIP3    H252525   2.616   4.654   2.299 -0.1378  0.2686 -1.2609
 9444TIP3   OH252526   0.965   4.641   2.367 -0.5032  1.0073  0.2549
 9444TIP3    H152527   1.019   4.597   2.302 -1.4999  0.1507 -0.0091
 9444TIP3    H252528   1.023   4.707   2.405  0.4088  0.8087 -0.7450
 9445TIP3   OH252529   1.506   1.386   1.901 -0.2024 -0.4961  0.1635
 9445TIP3    H152530   1.473   1.422   1.819 -2.3669 -0.8197  0.8156
 9445TIP3    H252531   1.601   1.387   1.892 -0.3748 -0.0218 -2.1076
 9446TIP3   OH252532   6.712   4.071   0.986 -0.1218 -0.4208  0.3395
 9446TIP3    H152533   6.708   4.104   0.896  0.2650 -0.2179  0.3941
 9446TIP3    H252534   6.776   4.000   0.982 -2.1218 -2.3246 -0.1274
 9447TIP3   OH252535   4.209   1.371   2.632  0.0410 -0.2179 -0.7329
 9447TIP3    H152536   4.161   1.425   2.569  0.2170 -0.3632 -0.9942
 9447TIP3    H252537   4.198   1.417   2.716  0.3294  0.3236 -0.9832
 9448TIP3   OH252538   3.645   1.634   4.559 -0.3108  0.2089  0.0116
 9448TIP3    H152539   3.721   1.627   4.616  0.0309 -1.0924 -0.5634
 9448TIP3    H252540   3.609   1.721   4.576  1.9847  1.3437 -0.5599
 9449TIP3   OH252541   4.302   4.913   2.849  0.2150  0.6380 -0.2154
 9449TIP3    H152542   4.384   4.961   2.853 -0.0411  1.2818 -1.8918
 9449TIP3    H252543   4.265   4.920   2.937  2.2918 -0.3249  0.7871
 9450TIP3   OH252544   3.727   0.459   3.141  0.4260  0.2362 -0.4012
 9450TIP3    H152545   3.773   0.479   3.060  0.6861 -1.8101 -0.7974
 9450TIP3    H252546   3.645   0.507   3.134  1.2299  1.6047 -0.9836
 9451TIP3   OH252547   6.371   1.354   2.325  0.0123  0.2103  0.3284
 9451TIP3    H152548   6.443   1.415   2.337  0.4933 -0.4965  1.1235
 9451TIP3    H252549   6.292   1.405   2.343  0.4864  0.2264  2.5924
 9452TIP3   OH252550   1.635   2.364   1.607 -0.1038 -0.2426 -0.2817
 9452TIP3    H152551   1.697   2.315   1.553 -1.2202  1.0707 -2.9455
 9452TIP3    H252552   1.595   2.426   1.547 -1.0981  1.7297  2.2294
 9453TIP3   OH252553   0.092   6.372   1.449 -0.0630 -0.1593 -0.4231
 9453TIP3    H152554   0.011   6.343   1.490 -0.7733  0.4558 -1.3382
 9453TIP3    H252555   0.067   6.450   1.399  1.5057  1.2832  0.9059
 9454TIP3   OH252556   6.062   2.798   0.659  0.6087 -0.1122 -0.4034
 9454TIP3    H152557   6.151   2.790   0.623  0.7421  1.8464 -0.5920
 9454TIP3    H252558   6.070   2.863   0.729 -0.5057 -0.6507  0.2460
 9455TIP3   OH252559   3.568   3.956   3.409  0.1974  0.1898 -0.2440
 9455TIP3    H152560   3.597   3.867   3.431  0.2384  0.4134  0.6384
 9455TIP3    H252561   3.472   3.952   3.417  0.1909  0.2017 -0.3128
 9456TIP3   OH252562   6.077   5.395   2.856  0.7143  0.0985 -0.3251
 9456TIP3    H152563   6.005   5.368   2.800  1.1203 -0.7031 -0.4758
 9456TIP3    H252564   6.068   5.341   2.935 -1.0499  2.6041  1.3362
 9457TIP3   OH252565   0.121   0.203   0.743  0.0529 -0.0563  0.1973
 9457TIP3    H152566   0.111   0.114   0.709  0.1122  0.1786 -0.4455
 9457TIP3    H252567   0.096   0.196   0.835  3.0079 -1.3626  1.0195
 9458TIP3   OH252568   3.893   2.090   2.908 -0.6317 -0.2165 -0.7685
 9458TIP3    H152569   3.863   2.009   2.949  2.2834 -1.5509 -1.0139
 9458TIP3    H252570   3.974   2.066   2.863  1.8112  3.2862  1.2194
 9459TIP3   OH252571   2.306   4.118   1.335  0.0577  0.0518  1.0954
 9459TIP3    H152572   2.294   4.167   1.417  1.8789 -0.7395  1.8809
 9459TIP3    H252573   2.382   4.159   1.294 -0.9729  0.5914 -0.3671
 9460TIP3   OH252574   4.708   5.137   3.833  0.2316  0.0010 -0.0318
 9460TIP3    H152575   4.620   5.148   3.868  0.8835  0.7231  1.4627
 9460TIP3    H252576   4.732   5.224   3.801  1.7336  0.8159  2.9374
 9461TIP3   OH252577   2.477   5.023   1.776 -0.6212 -0.4480  0.1024
 9461TIP3    H152578   2.457   5.009   1.869 -3.1500 -0.0213 -0.2983
 9461TIP3    H252579   2.492   4.935   1.742 -1.0447 -0.7429  0.6467
 9462TIP3   OH252580   3.451   3.470   2.146 -0.3982  0.1296 -0.4581
 9462TIP3    H152581   3.498   3.411   2.205 -0.9078 -0.7081 -0.8703
 9462TIP3    H252582   3.505   3.549   2.143  1.2389 -0.9833 -1.2930
 9463TIP3   OH252583   5.999   4.323   2.812 -0.1086 -0.4555  0.1642
 9463TIP3    H152584   6.029   4.234   2.792 -0.0662  0.2725 -3.9345
 9463TIP3    H252585   5.908   4.325   2.780 -0.0332  1.0018 -0.0125
 9464TIP3   OH252586   6.200   0.431   0.849  0.7193  0.1048  0.0068
 9464TIP3    H152587   6.146   0.428   0.770  1.3387 -0.9350 -0.3979
 9464TIP3    H252588   6.283   0.469   0.821  0.2072  1.7787  0.6463
 9465TIP3   OH252589   4.739   3.797   2.401  0.0363 -0.4247 -0.2248
 9465TIP3    H152590   4.645   3.803   2.418  0.1606 -2.3240  1.4837
 9465TIP3    H252591   4.746   3.807   2.306 -1.7203  1.0222 -0.2786
 9466TIP3   OH252592   3.861   1.459   2.542  0.2270 -0.1297  0.3595
 9466TIP3    H152593   3.934   1.410   2.502 -0.6484 -2.4960  1.4256
 9466TIP3    H252594   3.825   1.511   2.471  1.7553 -0.3900 -0.6634
 9467TIP3   OH252595   5.261   1.232   2.375  0.4066 -0.0093  0.2825
 9467TIP3    H152596   5.211   1.264   2.450  0.7332  1.5228 -0.1068
 9467TIP3    H252597   5.289   1.144   2.399 -0.4472  0.0314  1.4796
 9468TIP3   OH252598   1.733   6.361   1.238  0.7594 -0.5513 -0.7975
 9468TIP3    H152599   1.764   6.451   1.242  2.1111 -1.0214  2.0085
 9468TIP3    H252600   1.690   6.354   1.153 -1.7708  3.4639 -0.1332
 9469TIP3   OH252601   2.353   2.085   3.566 -0.2350  0.8675 -0.2183
 9469TIP3    H152602   2.435   2.050   3.530 -1.2489 -0.5584 -1.2811
 9469TIP3    H252603   2.307   2.120   3.490 -0.2505  2.5248  0.5084
 9470TIP3   OH252604   0.427   2.151   2.912 -0.3593  0.4056 -0.8038
 9470TIP3    H152605   0.469   2.171   2.996 -0.7618 -3.1361  0.4132
 9470TIP3    H252606   0.449   2.226   2.857  2.0847  1.7393  1.6684
 9471TIP3   OH252607   6.066   0.320   0.583  0.5649 -0.5414 -0.0545
 9471TIP3    H152608   6.098   0.280   0.502  0.2272  0.2494 -0.5902
 9471TIP3    H252609   6.021   0.249   0.628  1.1889 -1.1202 -0.3121
 9472TIP3   OH252610   0.301   4.289   3.011 -0.1979  0.1200  0.5658
 9472TIP3    H152611   0.332   4.332   2.931 -0.3909 -0.1353  0.3538
 9472TIP3    H252612   0.307   4.195   2.992 -0.1460  0.0565  0.8883
 9473TIP3   OH252613   6.083   0.971   3.354 -0.5025  0.1411 -0.1792
 9473TIP3    H152614   6.066   1.065   3.346  0.8612  0.5756  1.4058
 9473TIP3    H252615   6.157   0.955   3.295 -1.3315 -0.1545 -1.1628
 9474TIP3   OH252616   3.334   5.191   2.450  0.3128  0.6723 -0.0236
 9474TIP3    H152617   3.239   5.198   2.438  0.1339 -0.2402  0.7713
 9474TIP3    H252618   3.370   5.205   2.363 -0.8177 -3.5754 -1.4150
 9475TIP3   OH252619   4.091   6.563   1.203  0.6775 -0.3042  0.3648
 9475TIP3    H152620   4.033   6.623   1.252 -1.5358  1.3846 -3.7933
 9475TIP3    H252621   4.168   6.616   1.183  0.3149 -0.0020 -0.2779
 9476TIP3   OH252622   6.470   4.850   1.114  0.5824  0.1273 -0.1369
 9476TIP3    H152623   6.419   4.931   1.109  0.1197 -0.1299  0.2550
 9476TIP3    H252624   6.517   4.857   1.197  0.1113 -0.2404  0.1709
 9477TIP3   OH252625   6.042   1.155   1.603 -0.3568  0.3770  0.3103
 9477TIP3    H152626   6.121   1.182   1.650  0.8574  1.1606 -1.9982
 9477TIP3    H252627   6.031   1.063   1.625  3.0097 -0.6291 -1.5006
 9478TIP3   OH252628   6.315   6.067   2.877 -0.1959  0.6083 -0.2381
 9478TIP3    H152629   6.319   6.018   2.795  1.5124 -0.6310  0.5240
 9478TIP3    H252630   6.400   6.110   2.884 -0.8613  1.9361  0.1943
 9479TIP3   OH252631   4.299   4.938   2.119  0.2045 -0.1396  0.6911
 9479TIP3    H152632   4.310   4.938   2.024  1.8456 -0.1182  0.8480
 9479TIP3    H252633   4.215   4.896   2.134 -0.9888  1.5742 -0.8538
 9480TIP3   OH252634   3.693   3.416   4.056 -0.6801 -0.0213 -0.5751
 9480TIP3    H152635   3.683   3.360   3.978 -0.6522  0.5334 -0.9784
 9480TIP3    H252636   3.761   3.479   4.032 -0.5735  0.0660 -0.0473
 9481TIP3   OH252637   5.328   0.610   1.690  0.2093  0.2726 -0.4015
 9481TIP3    H152638   5.389   0.681   1.713  1.3785 -1.2394  1.4758
 9481TIP3    H252639   5.383   0.545   1.646 -0.0503 -0.9790  1.0411
 9482TIP3   OH252640   4.284   3.153   0.977  0.6778 -0.0614  0.1697
 9482TIP3    H152641   4.348   3.207   1.024 -0.3141  1.3042 -0.0002
 9482TIP3    H252642   4.205   3.206   0.974  0.2531 -0.7303 -1.7386
 9483TIP3   OH252643   0.300   3.262   2.049 -0.2525 -0.5350  0.2739
 9483TIP3    H152644   0.242   3.329   2.084 -0.8833 -1.2764  0.6823
 9483TIP3    H252645   0.334   3.299   1.968 -1.5368 -0.1936 -0.1361
 9484TIP3   OH252646   4.998   2.585   1.405 -0.5115 -0.2831 -0.4976
 9484TIP3    H152647   5.015   2.672   1.371 -0.7753  0.7818  1.9259
 9484TIP3    H252648   5.085   2.548   1.422 -0.3884 -0.7286 -2.0074
 9485TIP3   OH252649   1.463   2.470   3.092 -0.4826 -0.1987  0.2034
 9485TIP3    H152650   1.452   2.563   3.074  2.3572  0.0809 -0.4544
 9485TIP3    H252651   1.422   2.458   3.178 -0.6966  1.6823  0.4131
 9486TIP3   OH252652   4.333   4.835   1.202  0.6387 -0.0661  0.3485
 9486TIP3    H152653   4.396   4.786   1.149  1.0407 -0.0399  0.7935
 9486TIP3    H252654   4.257   4.777   1.209  0.9297 -0.4334  0.4831
 9487TIP3   OH252655   4.762   5.913   0.931  0.3230  0.2945  0.1483
 9487TIP3    H152656   4.742   5.890   1.022 -0.1184 -0.4556 -0.1294
 9487TIP3    H252657   4.844   5.866   0.912 -0.8072 -1.5223 -0.5576
 9488TIP3   OH252658   1.048   3.235   2.630  0.0197  0.3093  0.3113
 9488TIP3    H152659   1.107   3.307   2.609  1.3993 -0.7314  0.4305
 9488TIP3    H252660   1.021   3.199   2.545  1.4650 -0.6668  0.2319
 9489TIP3   OH252661   2.836   4.631   3.804  0.3477 -0.7090  0.3059
 9489TIP3    H152662   2.863   4.540   3.817  0.1764 -0.7157  0.6138
 9489TIP3    H252663   2.790   4.654   3.884  1.3463  0.0080  0.6850
 9490TIP3   OH252664   4.720   3.052   1.163  0.3211  0.7200 -0.0684
 9490TIP3    H152665   4.681   3.082   1.245  0.9343 -0.8534  0.8512
 9490TIP3    H252666   4.726   2.957   1.172  0.0449  0.4537 -2.1185
 9491TIP3   OH252667   5.475   5.483   3.203 -0.1951 -0.3039 -0.0874
 9491TIP3    H152668   5.529   5.539   3.259 -0.7124 -1.2252  1.4033
 9491TIP3    H252669   5.385   5.503   3.230 -0.4171 -1.2905 -0.0534
 9492TIP3   OH252670   5.540   2.355   1.415  0.0594 -0.2871  0.1230
 9492TIP3    H152671   5.535   2.260   1.410  0.5049 -0.2908 -0.4021
 9492TIP3    H252672   5.536   2.384   1.324 -0.3174  0.2127  0.2932
 9493TIP3   OH252673   0.064   2.291   1.798 -0.0044  0.1093 -0.2229
 9493TIP3    H152674   0.042   2.369   1.747 -1.4595  1.6692  2.5536
 9493TIP3    H252675   0.120   2.324   1.868 -0.4397 -1.3712  0.8641
 9494TIP3   OH252676   4.669   2.428   3.230  0.0292 -0.5064 -0.6149
 9494TIP3    H152677   4.731   2.432   3.157 -0.5343  0.5124 -1.0513
 9494TIP3    H252678   4.585   2.410   3.190 -0.4998  1.2451 -0.3669
 9495TIP3   OH252679   6.276   1.788   2.960 -0.1561 -0.3002  0.0510
 9495TIP3    H152680   6.228   1.840   2.895  0.6947  1.5728  0.8471
 9495TIP3    H252681   6.222   1.710   2.972 -3.1135  1.6748  0.9235
 9496TIP3   OH252682   4.650   0.683   2.577  0.5631 -0.0041 -0.4867
 9496TIP3    H152683   4.662   0.734   2.657  0.8139 -0.7126 -0.0643
 9496TIP3    H252684   4.581   0.729   2.530  0.0420  0.1268  0.3813
 9497TIP3   OH252685   4.061   3.318   0.951  0.0239  0.5059  0.2076
 9497TIP3    H152686   4.027   3.408   0.948 -2.6067 -0.3045  1.9539
 9497TIP3    H252687   4.047   3.285   0.862 -1.5314  1.0379  0.2084
 9498TIP3   OH252688   0.899   0.346   2.813 -0.2013  0.0442  0.0828
 9498TIP3    H152689   0.899   0.417   2.748  0.5878  1.3617  1.4667
 9498TIP3    H252690   0.991   0.339   2.840 -0.3192 -1.3052  0.2308
 9499TIP3   OH252691   0.424   3.330   1.781 -0.8668  0.1861 -0.6873
 9499TIP3    H152692   0.492   3.307   1.719  0.2054  0.9884  0.1582
 9499TIP3    H252693   0.448   3.417   1.813 -3.2383  1.3114 -1.6566
 9500TIP3   OH252694   3.537   4.329   3.134 -0.2632  0.3758  0.5894
 9500TIP3    H152695   3.488   4.251   3.106  1.1505 -0.2298 -0.3203
 9500TIP3    H252696   3.470   4.396   3.144 -1.1737  0.0557 -2.2898
 9501TIP3   OH252697   3.447   1.703   3.575 -0.6614  0.2686  0.2393
 9501TIP3    H152698   3.536   1.680   3.599 -0.9449 -0.1715  0.9235
 9501TIP3    H252699   3.405   1.726   3.658 -1.5092 -0.6795  0.0966
 9502TIP3   OH252700   3.478   3.663   1.690  0.0592 -0.5753 -0.5341
 9502TIP3    H152701   3.404   3.719   1.669 -1.2563 -2.2032 -0.5008
 9502TIP3    H252702   3.525   3.652   1.607  0.1828  0.3380 -0.5898
 9503TIP3   OH252703   2.588   2.159   2.267  0.0882 -0.0212 -0.4144
 9503TIP3    H152704   2.614   2.098   2.198  1.5638  0.6517 -0.5001
 9503TIP3    H252705   2.657   2.151   2.333 -1.3013 -0.6668  1.0309
 9504TIP3   OH252706   4.623   0.998   3.032  0.2313 -0.1542  0.2339
 9504TIP3    H152707   4.690   1.014   3.099 -1.3315  0.1035  1.8169
 9504TIP3    H252708   4.550   1.055   3.058 -1.1009 -1.3901 -0.6751
 9505TIP3   OH252709   4.315   4.344   1.408  0.1231 -0.2385  0.0834
 9505TIP3    H152710   4.236   4.293   1.427 -0.1026  0.3198  0.6738
 9505TIP3    H252711   4.330   4.331   1.314 -0.9423  0.0358 -0.1317
 9506TIP3   OH252712   1.809   1.628   1.261 -0.4267 -0.1471 -0.4368
 9506TIP3    H152713   1.720   1.661   1.251 -1.4232 -2.3473  0.4178
 9506TIP3    H252714   1.805   1.538   1.226  1.1901 -0.6482  0.5573
 9507TIP3   OH252715   2.575   6.295   3.841  0.5430  0.2877  0.7942
 9507TIP3    H152716   2.636   6.226   3.866  1.6314  0.4457 -1.2270
 9507TIP3    H252717   2.490   6.263   3.868  1.1854 -1.2312  1.1070
 9508TIP3   OH252718   2.896   2.000   1.309  0.0862  0.1124 -0.0214
 9508TIP3    H152719   2.838   2.062   1.265  0.4546  0.3861 -0.1242
 9508TIP3    H252720   2.982   2.042   1.308  0.3187 -0.3516  0.0001
 9509TIP3   OH252721   3.019   1.388   3.013  0.4924  0.0935 -0.0527
 9509TIP3    H152722   3.107   1.377   2.978 -0.1164 -2.3776 -1.0081
 9509TIP3    H252723   2.961   1.378   2.938 -0.6952 -1.7313  1.0097
 9510TIP3   OH252724   0.044   0.131   1.027 -0.6076  0.4243 -0.0774
 9510TIP3    H152725   0.121   0.124   1.084 -0.2434  0.2256 -0.5915
 9510TIP3    H252726  -0.001   0.047   1.038 -0.3129  0.2240 -0.4048
 9511TIP3   OH252727   3.180   4.670   1.324  0.5466  0.5709  0.0734
 9511TIP3    H152728   3.243   4.734   1.291  1.0385  0.9874  1.7460
 9511TIP3    H252729   3.100   4.720   1.339  0.5364  0.5223  0.1805
 9512TIP3   OH252730   6.671   0.071   0.331 -0.3541 -0.1916  0.2756
 9512TIP3    H152731   6.654   0.154   0.375 -0.7929  0.2046 -0.6082
 9512TIP3    H252732   6.596   0.060   0.272  1.2477  0.4617 -2.0435
 9513TIP3   OH252733   2.196   4.646   4.441  0.7848  0.3171 -0.0552
 9513TIP3    H152734   2.213   4.552   4.431  0.5780  0.2886 -0.1556
 9513TIP3    H252735   2.109   4.659   4.402  1.6495  0.8954 -1.9090
 9514TIP3   OH252736   1.760   0.477   1.475 -0.1485  0.0407  0.2276
 9514TIP3    H152737   1.842   0.524   1.463  0.1772  0.1181  2.3590
 9514TIP3    H252738   1.698   0.543   1.507 -1.1212  0.0065 -1.4454
 9515TIP3   OH252739   5.563   0.275   3.942 -0.1548  0.3737  0.3351
 9515TIP3    H152740   5.476   0.271   3.905  0.2720  0.7004 -0.7311
 9515TIP3    H252741   5.602   0.190   3.922  0.3505  0.8274 -0.7035
 9516TIP3   OH252742   3.619   0.582   4.451  0.0722  0.4585  0.1831
 9516TIP3    H152743   3.702   0.539   4.430 -0.4616 -0.1238 -0.7736
 9516TIP3    H252744   3.577   0.524   4.515  0.4250  0.8033  0.7444
 9517TIP3   OH252745   5.541   3.259   2.387  0.0043 -0.0041  0.2974
 9517TIP3    H152746   5.609   3.198   2.358 -0.7407 -0.3101 -0.8528
 9517TIP3    H252747   5.481   3.205   2.438 -0.2313 -0.0695 -0.0484
 9518TIP3   OH252748   0.441   4.749   3.825  0.1911 -0.6471 -0.1672
 9518TIP3    H152749   0.527   4.716   3.800  0.7162 -0.0630  0.7814
 9518TIP3    H252750   0.384   4.728   3.751  1.4957  0.3851 -1.5164
 9519TIP3   OH252751   4.593   1.474   1.998 -0.0474  0.1490  0.0936
 9519TIP3    H152752   4.538   1.550   2.016 -1.5676 -0.9389  0.2355
 9519TIP3    H252753   4.567   1.447   1.909  1.0481  0.2541 -0.2706
 9520TIP3   OH252754   2.126   5.517   2.030 -0.8371 -0.1747  0.2950
 9520TIP3    H152755   2.118   5.593   2.087 -0.5605  1.6092 -1.9184
 9520TIP3    H252756   2.046   5.518   1.976 -1.3993 -2.1767  0.9747
 9521TIP3   OH252757   2.430   1.822   0.882 -0.4641  0.4818  0.1079
 9521TIP3    H152758   2.376   1.750   0.849  1.3933 -0.0344 -2.0906
 9521TIP3    H252759   2.403   1.898   0.829  1.5471 -0.0204 -1.7777
 9522TIP3   OH252760   2.211   2.785   1.781  0.4048 -0.4152 -0.4905
 9522TIP3    H152761   2.173   2.832   1.855 -0.4258 -1.3592 -0.2960
 9522TIP3    H252762   2.304   2.808   1.784  0.2662  0.1004  0.4371
 9523TIP3   OH252763   5.027   6.040   4.238 -0.0567  0.2881  0.0806
 9523TIP3    H152764   5.031   6.013   4.146 -1.0756  1.5424 -0.3629
 9523TIP3    H252765   5.116   6.030   4.269  1.0153  2.6508 -1.9031
 9524TIP3   OH252766   4.194   1.525   1.915  0.4229 -0.0860 -1.0009
 9524TIP3    H152767   4.178   1.497   2.005  1.0595  0.8813 -0.5682
 9524TIP3    H252768   4.237   1.610   1.924  1.1326 -0.2943 -2.2049
 9525TIP3   OH252769   3.312   5.618   1.468  0.4803  0.4038 -0.1741
 9525TIP3    H152770   3.262   5.551   1.422 -0.3930 -0.5311  2.0044
 9525TIP3    H252771   3.250   5.656   1.530  1.8178  0.9552  0.8863
 9526TIP3   OH252772   4.890   3.903   1.680  0.0968  0.1568  0.4069
 9526TIP3    H152773   4.824   3.955   1.726  0.2650  0.4202  0.3484
 9526TIP3    H252774   4.971   3.952   1.690 -0.3722  1.8715 -2.8107
 9527TIP3   OH252775   3.094   3.759   3.273  0.5394 -0.6073 -0.0166
 9527TIP3    H152776   3.032   3.728   3.207 -0.2793  1.4718 -0.3179
 9527TIP3    H252777   3.062   3.722   3.355 -0.4358 -0.4918 -0.3296
 9528TIP3   OH252778   4.005   4.032   2.538 -0.2401  0.2460  0.4982
 9528TIP3    H152779   4.069   4.103   2.528 -0.5752  0.3364 -1.5332
 9528TIP3    H252780   3.943   4.065   2.602  0.1162  1.4185  0.2679
 9529TIP3   OH252781   4.396   2.170   2.139  0.3938 -0.1530 -0.3453
 9529TIP3    H152782   4.400   2.239   2.206 -1.3218  1.0101 -1.3518
 9529TIP3    H252783   4.431   2.093   2.182 -1.3498  0.3316  2.2009
 9530TIP3   OH252784   3.077   2.316   3.136 -0.0164 -0.1423 -0.1004
 9530TIP3    H152785   3.065   2.275   3.050 -0.6244 -1.2055  0.4735
 9530TIP3    H252786   3.007   2.381   3.142  0.1778  0.1052 -0.5087
 9531TIP3   OH252787   0.894   1.097   1.297  0.1437  0.0095  0.1659
 9531TIP3    H152788   0.906   1.187   1.329  3.2074 -0.6221  1.1688
 9531TIP3    H252789   0.941   1.095   1.214 -0.6186 -0.4820 -0.2638
 9532TIP3   OH252790   4.546   1.300   1.147 -0.9659 -0.9098 -0.0063
 9532TIP3    H152791   4.567   1.350   1.226 -1.7715  1.1302 -1.0029
 9532TIP3    H252792   4.474   1.243   1.173 -0.1342 -1.4788  1.1293
 9533TIP3   OH252793   1.004   6.268   1.859  0.2733  0.1159  0.6951
 9533TIP3    H152794   1.086   6.313   1.838  0.8292 -1.0369  0.2992
 9533TIP3    H252795   0.938   6.314   1.808  0.9908 -0.1184 -0.4908
 9534TIP3   OH252796   4.807   6.031   2.089 -0.3595 -0.2688 -0.0520
 9534TIP3    H152797   4.795   6.125   2.078 -0.0624 -0.2252 -0.0041
 9534TIP3    H252798   4.829   5.999   2.001  2.2858  0.1198  0.3850
 9535TIP3   OH252799   2.101   4.496   2.409  0.3939 -0.5498  0.4073
 9535TIP3    H152800   2.116   4.547   2.330  0.5252 -1.2121  0.0031
 9535TIP3    H252801   2.092   4.562   2.478  0.3213  0.0272 -0.1455
 9536TIP3   OH252802   0.267   2.518   1.223 -0.0746  0.2510 -0.0470
 9536TIP3    H152803   0.267   2.575   1.146 -0.0836  0.3597  0.0322
 9536TIP3    H252804   0.195   2.550   1.277 -0.9188 -0.6713 -0.6007
 9537TIP3   OH252805   2.816   3.302   3.809 -0.3828  0.2344  0.3272
 9537TIP3    H152806   2.907   3.289   3.784 -0.7141 -1.6027 -0.0758
 9537TIP3    H252807   2.793   3.388   3.772  1.3500  1.0634  1.0619
 9538TIP3   OH252808   1.235   1.108   1.761 -0.0708  0.5973 -0.4825
 9538TIP3    H152809   1.183   1.089   1.682  0.4851 -0.4201 -0.6244
 9538TIP3    H252810   1.325   1.095   1.733  0.0969 -0.7409  0.5504
 9539TIP3   OH252811   2.090   2.815   1.544 -0.3923 -0.3628  0.7367
 9539TIP3    H152812   2.156   2.773   1.489  0.3980  1.9567 -0.2195
 9539TIP3    H252813   2.126   2.812   1.632 -0.1017 -1.1616  0.5966
 9540TIP3   OH252814   4.115   5.899   1.300  0.1555  0.2644 -0.1473
 9540TIP3    H152815   4.173   5.973   1.319  0.1127  0.2048  0.2322
 9540TIP3    H252816   4.147   5.829   1.357 -1.6137  0.8662  1.7495
 9541TIP3   OH252817   1.134   3.745   0.855 -0.3618  0.1982  0.2546
 9541TIP3    H152818   1.084   3.761   0.936 -0.2854  0.2180  0.2985
 9541TIP3    H252819   1.218   3.789   0.870 -0.5206  0.6047 -0.0240
 9542TIP3   OH252820   5.333   1.110   2.836 -0.0207  0.5942 -0.0897
 9542TIP3    H152821   5.324   1.120   2.741  1.7015  0.4163 -0.3167
 9542TIP3    H252822   5.422   1.077   2.848 -0.4781 -0.1694  1.5507
 9543TIP3   OH252823   5.510   3.148   3.434 -0.2012  0.1582 -0.1745
 9543TIP3    H152824   5.599   3.181   3.420 -0.0994  0.0766  0.2706
 9543TIP3    H252825   5.468   3.212   3.491 -1.0678  1.2052 -1.8897
 9544TIP3   OH252826   4.757   4.088   1.850  0.0459 -0.2688  0.0292
 9544TIP3    H152827   4.779   4.160   1.910  0.7227  0.9457 -1.6091
 9544TIP3    H252828   4.665   4.102   1.828  0.4948  0.8657 -1.2379
 9545TIP3   OH252829   3.009   0.335   0.780  0.2340 -0.2749 -0.1892
 9545TIP3    H152830   3.072   0.381   0.724 -0.2649 -0.1360 -0.6493
 9545TIP3    H252831   3.041   0.348   0.869  0.7203  0.0026 -0.4044
 9546TIP3   OH252832   1.405   4.663   1.255 -0.5618 -0.0413 -0.0369
 9546TIP3    H152833   1.326   4.704   1.218 -0.0357  1.4079  0.3583
 9546TIP3    H252834   1.376   4.577   1.285 -2.0998  0.6052  0.4564
 9547TIP3   OH252835   5.274   1.472   2.249 -0.4076  0.3054  0.4658
 9547TIP3    H152836   5.195   1.460   2.197  1.2398 -1.7620 -1.7838
 9547TIP3    H252837   5.269   1.403   2.315 -0.8381  0.7151  0.8743
 9548TIP3   OH252838   3.364   3.865   1.515  0.0537  0.0049 -0.4023
 9548TIP3    H152839   3.293   3.802   1.497 -1.5843  1.6269  0.0521
 9548TIP3    H252840   3.333   3.947   1.475  1.2439  0.9951  0.6633
 9549TIP3   OH252841   1.810   0.802   3.771 -0.3769  0.0107  0.9333
 9549TIP3    H152842   1.733   0.777   3.821  0.5282 -1.6618  1.5560
 9549TIP3    H252843   1.883   0.794   3.833  0.5312 -0.3013 -0.1426
 9550TIP3   OH252844   2.500   3.600   2.559  0.0659 -0.3294 -0.2629
 9550TIP3    H152845   2.511   3.596   2.464  0.5428  1.7223 -0.3414
 9550TIP3    H252846   2.415   3.642   2.571  0.3015  0.0075  0.2190
 9551TIP3   OH252847   1.073   5.759   1.778  0.2035  0.1468 -0.2439
 9551TIP3    H152848   1.003   5.700   1.807  1.0610 -0.5009  0.5626
 9551TIP3    H252849   1.147   5.701   1.762  1.9503  1.1812  3.1921
 9552TIP3   OH252850   4.147   1.815   1.375  0.0800  0.3087 -0.8108
 9552TIP3    H152851   4.082   1.809   1.304  0.6276  1.2381 -1.4108
 9552TIP3    H252852   4.169   1.908   1.379  0.5992  0.1487  0.0979
 9553TIP3   OH252853   3.730   1.282   0.715 -0.3011  0.4158 -0.2458
 9553TIP3    H152854   3.666   1.273   0.786  0.3984 -0.0619  0.3407
 9553TIP3    H252855   3.811   1.306   0.760  0.5359 -1.3837 -0.7217
 9554TIP3   OH252856   3.012   0.127   1.359  0.1655  0.7604 -0.5377
 9554TIP3    H152857   3.066   0.066   1.410 -1.4347 -1.4968 -1.3459
 9554TIP3    H252858   3.043   0.117   1.269  0.8277  2.2830 -0.5090
 9555TIP3   OH252859   0.434   6.049   0.961 -0.2727  0.8002 -0.2739
 9555TIP3    H152860   0.354   6.004   0.934 -1.2059  1.9538  0.4798
 9555TIP3    H252861   0.410   6.093   1.043  0.7937  2.1244 -0.6536
 9556TIP3   OH252862   2.143   4.906   1.033 -0.4335  0.3638 -0.0724
 9556TIP3    H152863   2.068   4.962   1.011  1.9768  3.6303 -0.6852
 9556TIP3    H252864   2.158   4.922   1.126  1.3452  2.3098 -0.6308
 9557TIP3   OH252865   5.229   5.800   1.165 -0.2280  0.2118 -0.2213
 9557TIP3    H152866   5.139   5.794   1.197  0.4278  0.5773  1.8156
 9557TIP3    H252867   5.225   5.865   1.095 -1.3692  1.0786  0.6101
 9558TIP3   OH252868   1.367   6.718   3.190 -0.0658 -0.5235  0.2490
 9558TIP3    H152869   1.379   6.705   3.096 -1.4173 -0.9383  0.1104
 9558TIP3    H252870   1.381   6.632   3.228 -0.7671 -0.6340  0.2729
 9559TIP3   OH252871   3.075   5.998   4.241  0.1020 -0.3054  0.1016
 9559TIP3    H152872   3.130   6.022   4.316  0.8675 -1.4469 -0.0707
 9559TIP3    H252873   3.009   5.940   4.276 -0.2360  0.0642  0.0846
 9560TIP3   OH252874   3.698   2.132   3.490 -0.0157 -0.3480  0.4500
 9560TIP3    H152875   3.646   2.189   3.433  0.8315 -1.7870 -1.8700
 9560TIP3    H252876   3.784   2.173   3.492 -0.1431 -0.0826  1.1141
 9561TIP3   OH252877   3.184   0.391   3.345  0.2119  0.4428  0.1869
 9561TIP3    H152878   3.183   0.345   3.261  3.0051 -0.8683  0.7364
 9561TIP3    H252879   3.152   0.327   3.408 -0.7767  1.0381  0.3113
 9562TIP3   OH252880   6.232   5.660   0.491  0.0142  0.0262  0.4146
 9562TIP3    H152881   6.322   5.631   0.473 -0.7458 -1.7617 -0.6991
 9562TIP3    H252882   6.178   5.583   0.477 -1.7002  0.9949  1.3459
 9563TIP3   OH252883   1.178   3.013   3.206 -0.1669 -0.1343  0.6768
 9563TIP3    H152884   1.249   2.975   3.155  0.0500 -0.3053  1.1016
 9563TIP3    H252885   1.202   2.995   3.297 -1.4840 -1.4982  0.7877
 9564TIP3   OH252886   1.072   4.378   2.159 -0.4184 -0.4843  0.1698
 9564TIP3    H152887   1.090   4.313   2.227 -0.0228  0.5355  1.0683
 9564TIP3    H252888   1.146   4.438   2.164 -0.8921  0.1576 -0.4929
 9565TIP3   OH252889   5.880   5.793   1.061  0.3223  0.0188  0.7667
 9565TIP3    H152890   5.904   5.780   0.969 -0.8160  0.0542  0.4570
 9565TIP3    H252891   5.849   5.883   1.065 -3.0402 -0.9886  0.3803
 9566TIP3   OH252892   6.025   3.925   3.218  0.1512  0.4449  0.0041
 9566TIP3    H152893   5.998   3.848   3.268 -4.0649  0.4984 -1.7866
 9566TIP3    H252894   6.068   3.889   3.140 -0.1279 -0.0333  0.0641
 9567TIP3   OH252895   3.554   2.283   2.251 -0.5906  0.2280  0.2231
 9567TIP3    H152896   3.476   2.246   2.293 -0.4884  1.9880  2.0898
 9567TIP3    H252897   3.590   2.344   2.316  2.0902 -0.1644 -0.7673
 9568TIP3   OH252898   2.970   4.519   0.993  0.2576  0.1948 -0.3613
 9568TIP3    H152899   3.013   4.563   1.067  0.7820  1.0422 -1.1449
 9568TIP3    H252900   3.040   4.507   0.929 -0.3208  0.0356 -0.9676
 9569TIP3   OH252901   3.736   2.457   1.976  0.1351 -0.0631 -0.5610
 9569TIP3    H152902   3.814   2.404   1.996 -0.1116  0.2231  1.2987
 9569TIP3    H252903   3.673   2.393   1.943 -0.9059 -1.5391  3.5849
 9570TIP3   OH252904   4.455   4.226   4.020  0.0892 -0.2390 -0.3598
 9570TIP3    H152905   4.394   4.175   3.966  0.1980  0.2573 -0.9654
 9570TIP3    H252906   4.417   4.223   4.108 -1.2857  0.7704 -0.8888
 9571TIP3   OH252907   2.638   0.271   3.302  0.6398  0.2757  0.0449
 9571TIP3    H152908   2.619   0.323   3.223 -1.2654  1.0914  0.9781
 9571TIP3    H252909   2.642   0.181   3.271  1.6936  0.7263 -1.2469
 9572TIP3   OH252910   5.926   5.604   0.594 -0.1695  0.4005 -0.3900
 9572TIP3    H152911   5.985   5.537   0.558  0.6191  1.7588 -1.7575
 9572TIP3    H252912   5.984   5.677   0.617 -0.9445  0.4484  1.6042
 9573TIP3   OH252913   5.665   0.885   0.930 -0.2288  0.0005  0.2339
 9573TIP3    H152914   5.666   0.803   0.979  0.7691  0.1094  0.4267
 9573TIP3    H252915   5.757   0.903   0.911 -0.4760  0.7910 -0.2861
 9574TIP3   OH252916   4.003   0.003   2.487  0.0837 -0.4284 -0.5029
 9574TIP3    H152917   3.963   0.088   2.507  0.2927 -0.4371 -0.0534
 9574TIP3    H252918   4.004   0.000   2.391 -0.3866 -0.1412 -0.5236
 9575TIP3   OH252919   2.478   6.738   4.472  0.3867  0.1158 -0.3019
 9575TIP3    H152920   2.461   6.803   4.540  1.7627 -0.5954  0.7699
 9575TIP3    H252921   2.572   6.745   4.455  0.4316 -1.1239 -0.6369
 9576TIP3   OH252922   0.225   2.587   3.236  0.1479 -0.6100 -0.2484
 9576TIP3    H152923   0.243   2.494   3.251  0.2872 -0.6981 -0.9431
 9576TIP3    H252924   0.294   2.633   3.284  1.7274 -0.9309 -2.1155
 9577TIP3   OH252925   0.241   5.054   2.355 -0.2202  0.3162  0.0609
 9577TIP3    H152926   0.148   5.031   2.346  0.1041 -1.1924  0.3183
 9577TIP3    H252927   0.250   5.084   2.446 -0.3943  0.2088  0.1134
 9578TIP3   OH252928   5.319   5.936   0.851 -0.0345  0.5789 -0.2012
 9578TIP3    H152929   5.386   5.870   0.872 -1.1389 -0.6923 -0.5131
 9578TIP3    H252930   5.342   6.012   0.904  0.8840 -0.2993  0.6968
 9579TIP3   OH252931   4.488   2.387   2.345 -0.2119 -0.0762 -0.0900
 9579TIP3    H152932   4.572   2.343   2.356 -0.5912 -0.9514 -0.5969
 9579TIP3    H252933   4.508   2.467   2.296  0.3711 -0.0775  0.1403
 9580TIP3   OH252934   2.532   4.394   3.488  0.7400 -0.4518  0.2089
 9580TIP3    H152935   2.437   4.380   3.486  0.9156 -1.6774 -1.0667
 9580TIP3    H252936   2.558   4.394   3.396  2.0110 -0.3454  0.5489
 9581TIP3   OH252937   6.376   3.941   1.948 -0.3123  0.0887  0.2381
 9581TIP3    H152938   6.413   3.867   1.900 -1.9240  0.0569 -1.0683
 9581TIP3    H252939   6.426   4.016   1.918 -0.9615 -0.0054 -1.1686
 9582TIP3   OH252940   2.476   5.175   0.894 -0.3726  0.8697 -0.5384
 9582TIP3    H152941   2.556   5.225   0.912 -0.0530  0.9291 -2.0423
 9582TIP3    H252942   2.437   5.161   0.981  0.8642  1.4972  0.1458
 9583TIP3   OH252943   3.757   0.924   3.684  0.0183  0.4685  0.2331
 9583TIP3    H152944   3.796   0.858   3.627  0.9946  0.5435  0.7899
 9583TIP3    H252945   3.806   0.917   3.766  0.2421  1.9710  0.2591
 9584TIP3   OH252946   0.841   0.135   3.028  0.0002  0.0519 -0.3536
 9584TIP3    H152947   0.825   0.087   2.946  0.6622 -0.3395 -0.2611
 9584TIP3    H252948   0.895   0.210   3.001 -0.1604  0.1732 -0.3398
 9585TIP3   OH252949   5.706   5.990   2.955 -0.1326  0.4126 -0.7632
 9585TIP3    H152950   5.689   5.909   3.003 -0.6401  0.6570 -0.5185
 9585TIP3    H252951   5.621   6.014   2.918  0.2686  0.1989 -1.8330
 9586TIP3   OH252952   2.615   3.914   0.675 -0.4350  0.2150  0.1709
 9586TIP3    H152953   2.580   4.003   0.672  0.7505  0.6737 -1.1525
 9586TIP3    H252954   2.641   3.901   0.766 -4.1394 -0.2583  1.3342
 9587TIP3   OH252955   2.307   2.150   2.222  0.0601  0.1975  0.1340
 9587TIP3    H152956   2.288   2.239   2.253  2.0380  0.5022  0.6123
 9587TIP3    H252957   2.403   2.146   2.218 -0.0210 -1.4462 -1.2995
 9588TIP3   OH252958   1.591   0.832   0.536 -0.7587 -0.1632 -0.2587
 9588TIP3    H152959   1.526   0.805   0.472 -0.6877 -0.3282 -0.2632
 9588TIP3    H252960   1.572   0.777   0.613  0.1376 -1.0804 -0.6775
 9589TIP3   OH252961   3.796   4.262   2.076  0.0912  0.7468 -0.5075
 9589TIP3    H152962   3.835   4.273   2.162  0.1880  0.0131 -0.4467
 9589TIP3    H252963   3.759   4.347   2.055  1.9149  1.5366 -0.6774
 9590TIP3   OH252964   3.610   1.783   3.875  0.4220  0.5158 -0.0439
 9590TIP3    H152965   3.690   1.835   3.870  0.8363 -0.2022 -2.7807
 9590TIP3    H252966   3.540   1.845   3.854  0.5815  0.6090 -0.3141
 9591TIP3   OH252967   1.692   0.863   1.808 -0.1871  0.4735 -0.9845
 9591TIP3    H152968   1.619   0.862   1.747 -0.2943 -0.8434 -0.8754
 9591TIP3    H252969   1.713   0.770   1.822  0.6195  0.7841  0.0323
 9592TIP3   OH252970   5.297   1.452   2.743  0.5139 -0.5356 -0.3223
 9592TIP3    H152971   5.361   1.380   2.742 -0.0989 -1.0861 -0.8803
 9592TIP3    H252972   5.318   1.500   2.823  0.9885 -1.2897  0.0310
 9593TIP3   OH252973   4.972   4.029   1.988  0.0082 -0.0319  0.1019
 9593TIP3    H152974   4.892   4.024   1.936  0.6379  0.2149 -0.9095
 9593TIP3    H252975   5.040   4.054   1.926  0.7678  0.3651  1.0621
 9594TIP3   OH252976   4.253   0.666   3.070 -0.4376 -0.3044 -0.2042
 9594TIP3    H152977   4.254   0.690   2.977 -3.1340 -1.3078 -0.6006
 9594TIP3    H252978   4.250   0.570   3.070 -2.9330 -0.2960  0.7508
 9595TIP3   OH252979   6.587   5.899   0.836  0.0915  0.4306  0.1194
 9595TIP3    H152980   6.495   5.873   0.831 -0.2758  1.6993 -0.2395
 9595TIP3    H252981   6.631   5.849   0.768 -0.4681  0.3165 -0.1620
 9596TIP3   OH252982   3.001   6.655   4.464 -0.0235  0.1116  0.0203
 9596TIP3    H152983   2.913   6.690   4.477 -0.8287 -1.6277 -0.4218
 9596TIP3    H252984   3.009   6.644   4.369  0.1235 -1.0118  0.1454
 9597TIP3   OH252985   6.344   5.338   0.782  0.5562  0.4898  0.4522
 9597TIP3    H152986   6.392   5.296   0.854  2.0360 -0.2507 -0.8982
 9597TIP3    H252987   6.351   5.276   0.709  0.0287  1.6967 -0.6710
 9598TIP3   OH252988   0.046   0.180   1.879  0.3702 -1.1790 -0.5718
 9598TIP3    H152989   0.007   0.096   1.855 -0.8824 -0.3896 -1.4075
 9598TIP3    H252990   0.083   0.214   1.797  1.7706 -1.3589 -0.0330
 9599TIP3   OH252991   2.254   4.732   3.108 -0.1841  0.3814 -0.8280
 9599TIP3    H152992   2.320   4.693   3.050 -0.6787 -2.7899  0.5699
 9599TIP3    H252993   2.170   4.712   3.066 -0.4107  1.3432 -0.8497
 9600TIP3   OH252994   1.173   2.905   3.669  0.1088 -0.3011  0.2955
 9600TIP3    H152995   1.247   2.879   3.724 -0.0829  0.7127  1.0582
 9600TIP3    H252996   1.213   2.932   3.586  0.6131  0.3905  0.7577
 9601TIP3   OH252997   6.558   2.848   3.249 -0.2214 -0.2797 -0.4476
 9601TIP3    H152998   6.648   2.831   3.275 -0.3946 -1.0390 -0.3316
 9601TIP3    H252999   6.519   2.894   3.323  0.4336  1.2891 -1.0251
 9602TIP3   OH253000   5.848   5.998   2.202  0.2187 -0.6575 -0.8242
 9602TIP3    H153001   5.916   6.060   2.228  0.5533 -1.3825  0.0754
 9602TIP3    H253002   5.880   5.959   2.121  0.6762 -0.6839 -0.6333
 9603TIP3   OH253003   1.050   5.474   4.262  0.2192 -0.2601  0.0308
 9603TIP3    H153004   1.078   5.464   4.171 -0.4326 -0.1882 -0.1806
 9603TIP3    H253005   0.955   5.485   4.257  0.1611 -0.4099  0.7313
 9604TIP3   OH253006   3.049   4.144   1.298  0.1453  0.1644  0.1173
 9604TIP3    H153007   3.048   4.240   1.300 -0.9428  0.1642  0.6688
 9604TIP3    H253008   2.980   4.121   1.235  0.3630 -0.2546  0.0298
 9605TIP3   OH253009   0.028   4.760   4.061 -0.4223  0.3969 -0.3576
 9605TIP3    H153010  -0.019   4.736   3.981 -0.9917  0.5986 -0.0862
 9605TIP3    H253011   0.115   4.787   4.030 -0.2086 -0.7242 -0.7943
 9606TIP3   OH253012   0.963   2.994   1.660  0.1623  0.0947 -0.6470
 9606TIP3    H153013   0.957   3.080   1.701  2.1746  0.5528 -1.2194
 9606TIP3    H253014   0.907   2.938   1.715  0.2420  1.3646  0.8150
 9607TIP3   OH253015   3.353   6.216   1.776 -0.1629  0.6425  0.3181
 9607TIP3    H153016   3.268   6.182   1.748  0.2206  0.7888 -1.0788
 9607TIP3    H253017   3.388   6.147   1.833 -0.4050 -0.2783 -0.6122
 9608TIP3   OH253018   2.155   4.405   3.205  0.4914 -0.2874 -0.4228
 9608TIP3    H153019   2.105   4.344   3.151  0.1639 -1.2481  0.9379
 9608TIP3    H253020   2.229   4.354   3.237 -0.1159 -0.1791  1.2335
 9609TIP3   OH253021   6.613   6.139   1.312  0.3549  0.3511  0.1307
 9609TIP3    H153022   6.545   6.115   1.249 -0.0213  2.9014 -0.5345
 9609TIP3    H253023   6.694   6.104   1.274 -0.1935 -0.2254 -0.5406
 9610TIP3   OH253024   3.449   5.348   2.653 -0.5495  0.5403 -0.4011
 9610TIP3    H153025   3.417   5.277   2.597 -1.2387  0.1372  0.4700
 9610TIP3    H253026   3.543   5.351   2.637 -0.6017 -0.2022 -0.8729
 9611TIP3   OH253027   4.068   2.497   0.923 -0.3913 -0.1260  0.3583
 9611TIP3    H153028   4.109   2.528   0.842 -1.6651 -0.9018 -0.6232
 9611TIP3    H253029   4.084   2.566   0.986  0.9636  0.3368 -0.4447
 9612TIP3   OH253030   0.322   5.497   1.376  0.4435  0.0065 -0.3156
 9612TIP3    H153031   0.393   5.496   1.312  0.1935 -3.7494 -0.7696
 9612TIP3    H253032   0.257   5.557   1.339  1.5924  0.2446 -2.0692
 9613TIP3   OH253033   4.223   6.474   2.116 -0.1770  0.4491  0.4945
 9613TIP3    H153034   4.298   6.442   2.165  1.8096  0.6637 -2.1798
 9613TIP3    H253035   4.203   6.559   2.155 -0.0707 -0.2716  2.2166
 9614TIP3   OH253036   4.795   2.787   3.300 -0.2207 -0.0677  0.3126
 9614TIP3    H153037   4.856   2.854   3.270  0.6444 -0.8790  0.2288
 9614TIP3    H253038   4.728   2.784   3.232  0.1032  0.2298 -0.0262
 9615TIP3   OH253039   6.000   1.011   3.608  0.2723  0.1328  0.0634
 9615TIP3    H153040   5.944   0.939   3.636  0.1006  0.7146  1.2829
 9615TIP3    H253041   6.040   0.980   3.527 -0.1639 -1.1375  0.3085
 9616TIP3   OH253042   4.393   6.464   1.177 -0.2417  0.1965 -0.2038
 9616TIP3    H153043   4.380   6.369   1.178  1.4595 -0.0747 -0.4127
 9616TIP3    H253044   4.347   6.495   1.099  0.6076 -0.7066 -1.0838
 9617TIP3   OH253045   1.045   4.347   0.752  0.1823 -0.4114 -0.4304
 9617TIP3    H153046   0.969   4.371   0.806 -0.0357 -0.6059 -0.6460
 9617TIP3    H253047   1.020   4.263   0.712  0.9982 -1.1036  0.4522
 9618TIP3   OH253048   3.540   5.783   2.548  0.3616  0.3741 -0.0291
 9618TIP3    H153049   3.627   5.743   2.541  0.2119 -0.0881  0.6467
 9618TIP3    H253050   3.514   5.767   2.639 -1.0621 -0.8341 -0.6183
 9619TIP3   OH253051   1.786   2.251   3.589  0.1248 -0.5251  0.2115
 9619TIP3    H153052   1.807   2.249   3.496  1.2704 -2.0171  0.4528
 9619TIP3    H253053   1.871   2.264   3.632 -0.5518  1.5870  1.0449
 9620TIP3   OH253054   1.486   5.258   0.716 -0.3586  0.4951 -0.0259
 9620TIP3    H153055   1.470   5.207   0.795 -0.0476  0.0972 -0.2126
 9620TIP3    H253056   1.508   5.192   0.650  0.1189  0.8839 -0.2553
 9621TIP3   OH253057   5.700   3.993   3.335  0.1719  0.0168 -1.0844
 9621TIP3    H153058   5.731   3.904   3.354  1.5920  0.7931  0.5126
 9621TIP3    H253059   5.679   4.030   3.421  1.7619  1.9373 -1.4531
 9622TIP3   OH253060   3.617   1.546   1.397 -1.0322 -0.0749 -0.3198
 9622TIP3    H153061   3.696   1.588   1.431  1.1124 -2.6880 -1.6560
 9622TIP3    H253062   3.545   1.599   1.430  1.2233  2.0187  1.6084
 9623TIP3   OH253063   4.991   1.737   2.416  0.3507 -0.7891  0.0397
 9623TIP3    H153064   5.068   1.761   2.365 -0.5010  0.6673 -0.6142
 9623TIP3    H253065   5.026   1.705   2.499  1.6620  0.4690  0.0065
 9624TIP3   OH253066   5.400   5.158   1.552  0.2370  0.1257  0.5779
 9624TIP3    H153067   5.468   5.222   1.531  0.3474  1.6280  4.6043
 9624TIP3    H253068   5.318   5.207   1.548 -0.1675 -0.5905 -0.2317
 9625TIP3   OH253069   0.605   4.343   2.878 -0.4366  0.1867 -0.2554
 9625TIP3    H153070   0.630   4.354   2.786 -0.8778 -1.1904 -0.5677
 9625TIP3    H253071   0.539   4.411   2.893 -1.0866 -0.2062 -1.2498
 9626TIP3   OH253072   0.518   6.462   2.884  0.1638 -0.6102  0.2467
 9626TIP3    H153073   0.455   6.533   2.884  0.7457 -0.0799 -0.0740
 9626TIP3    H253074   0.603   6.506   2.888  0.5382 -1.2754 -0.2122
 9627TIP3   OH253075   4.236   0.843   1.565 -0.8438 -0.2072 -0.3619
 9627TIP3    H153076   4.321   0.803   1.586 -0.4300  0.9810  0.3041
 9627TIP3    H253077   4.183   0.826   1.643 -0.8886 -0.0600 -0.3614
 9628TIP3   OH253078   4.934   6.666   0.578  0.0840  0.2311  0.2839
 9628TIP3    H153079   4.912   6.573   0.590 -0.0999  0.1168 -0.7946
 9628TIP3    H253080   5.029   6.670   0.591  0.2421 -0.2908 -0.6069
 9629TIP3   OH253081   5.884   5.399   1.510 -0.3097 -0.2261 -0.0196
 9629TIP3    H153082   5.826   5.472   1.488  0.8950  0.8537  0.2233
 9629TIP3    H253083   5.860   5.376   1.600  1.1527  1.8120  0.9750
 9630TIP3   OH253084   1.105   2.594   2.699 -0.6129  0.3686  0.9264
 9630TIP3    H153085   1.090   2.686   2.724 -1.1931 -0.1123  2.4661
 9630TIP3    H253086   1.198   2.591   2.676 -0.8445  1.5797 -0.3332
 9631TIP3   OH253087   6.201   4.745   1.616  0.5732  0.4525 -0.0635
 9631TIP3    H153088   6.128   4.788   1.659  1.0887  0.7673  0.5060
 9631TIP3    H253089   6.268   4.737   1.684  0.9766 -0.0566 -0.5103
 9632TIP3   OH253090   5.045   0.630   2.729  0.0566  0.4398  0.0947
 9632TIP3    H153091   5.015   0.629   2.638 -0.2552  2.5350  0.1272
 9632TIP3    H253092   5.115   0.695   2.730  0.4514  0.0239  1.2564
 9633TIP3   OH253093   2.707   4.646   0.899 -0.1000 -0.5085  0.0025
 9633TIP3    H153094   2.654   4.617   0.825  0.8781  2.0817 -1.8568
 9633TIP3    H253095   2.794   4.611   0.881  0.2432  0.4881 -0.3756
 9634TIP3   OH253096   4.423   6.318   2.237 -0.4373 -0.1394  0.5079
 9634TIP3    H153097   4.458   6.334   2.149 -0.0060 -0.3170  0.6448
 9634TIP3    H253098   4.487   6.260   2.278 -0.3230  0.4442  1.1572
 9635TIP3   OH253099   6.582   6.162   0.903 -0.0121 -0.1781 -0.1558
 9635TIP3    H153100   6.597   6.068   0.887  0.0084 -0.3463  0.8187
 9635TIP3    H253101   6.502   6.165   0.954 -0.5288  0.4092 -0.9809
 9636TIP3   OH253102   1.288   0.186   1.853 -0.4125 -0.5125  0.2012
 9636TIP3    H153103   1.309   0.264   1.802  2.8595 -0.5688  1.2648
 9636TIP3    H253104   1.262   0.121   1.788 -0.6146  0.6760 -0.9468
 9637TIP3   OH253105   0.627   2.270   1.880  0.3407 -0.3288  0.5513
 9637TIP3    H153106   0.566   2.235   1.814 -1.1887  3.7369 -0.4686
 9637TIP3    H253107   0.590   2.242   1.963  0.0827 -2.3002 -0.1720
 9638TIP3   OH253108   3.205   2.643   1.272  0.1247  0.1824 -0.2563
 9638TIP3    H153109   3.202   2.646   1.176 -1.2471 -1.2678 -0.2996
 9638TIP3    H253110   3.148   2.715   1.300  2.0058  1.8392 -0.4414
 9639TIP3   OH253111   5.894   6.743   1.273  0.1377 -0.4851 -0.4524
 9639TIP3    H153112   5.964   6.805   1.251  0.1743  0.2543  1.5480
 9639TIP3    H253113   5.826   6.760   1.207  1.2160 -0.1791 -1.5235
 9640TIP3   OH253114   0.144   3.346   3.922  0.2901 -0.2848  0.2261
 9640TIP3    H153115   0.127   3.426   3.871  1.2587 -0.3977 -0.3036
 9640TIP3    H253116   0.234   3.322   3.898  0.5944 -0.6175  1.6303
 9641TIP3   OH253117   2.069   0.653   0.882  0.5322  0.4578 -0.2144
 9641TIP3    H153118   2.109   0.579   0.928  1.4507  0.6803 -0.6371
 9641TIP3    H253119   2.019   0.699   0.950 -1.5045 -1.4958 -0.2695
 9642TIP3   OH253120   0.641   0.509   3.063  0.3593 -0.3069  0.0756
 9642TIP3    H153121   0.708   0.446   3.090  1.4460  0.9339  0.3979
 9642TIP3    H253122   0.583   0.515   3.139 -0.9940 -2.4230 -0.6984
 9643TIP3   OH253123   1.701   6.586   2.451 -0.9209 -0.5404 -0.1493
 9643TIP3    H153124   1.768   6.585   2.519  0.1200  0.9930 -1.1006
 9643TIP3    H253125   1.618   6.589   2.499 -0.1869  2.6172  1.1441
 9644TIP3   OH253126   4.240   1.274   1.433 -0.4105  0.4022 -0.1541
 9644TIP3    H153127   4.161   1.262   1.486 -0.2098 -1.7029 -0.2599
 9644TIP3    H253128   4.296   1.330   1.487 -0.4703 -1.1548  1.6445
 9645TIP3   OH253129   5.558   4.836   2.948  0.0728 -0.2103 -0.9922
 9645TIP3    H153130   5.489   4.895   2.919 -0.2166 -0.0829 -0.0586
 9645TIP3    H253131   5.600   4.807   2.866 -1.3360 -0.6146 -1.6030
 9646TIP3   OH253132   5.236   3.159   0.932 -0.2790  0.5605 -0.1046
 9646TIP3    H153133   5.231   3.239   0.983  0.3521  1.1688 -0.9571
 9646TIP3    H253134   5.149   3.119   0.940 -1.0751  2.0702 -0.8442
 9647TIP3   OH253135   0.208   2.010   2.459  0.7433 -0.3760 -0.0854
 9647TIP3    H153136   0.185   1.918   2.444  0.1996 -0.2660  0.0512
 9647TIP3    H253137   0.294   2.020   2.418  0.9328 -1.0148  0.1379
 9648TIP3   OH253138   1.717   4.096   2.883 -0.8559 -0.6705  0.1986
 9648TIP3    H153139   1.700   4.004   2.904  0.4921 -1.2157 -0.9594
 9648TIP3    H253140   1.630   4.131   2.862 -1.5174 -1.4050  1.5498
 9649TIP3   OH253141   5.340   0.096   1.834  0.4772 -0.1352  0.2089
 9649TIP3    H153142   5.248   0.115   1.852  0.5338  1.9269 -1.3809
 9649TIP3    H253143   5.341   0.004   1.808 -1.2866  0.0286 -0.5682
 9650TIP3   OH253144   3.346   1.001   2.917 -0.6638  0.1806 -0.0190
 9650TIP3    H153145   3.318   0.963   3.001 -2.0457 -1.6202 -1.2069
 9650TIP3    H253146   3.286   0.963   2.853  1.8167 -0.4219 -2.1756
 9651TIP3   OH253147   1.763   0.609   1.954 -0.1934 -0.6273 -0.2054
 9651TIP3    H153148   1.750   0.554   2.031  1.2639  2.3333  2.4097
 9651TIP3    H253149   1.853   0.642   1.963 -0.9685  2.1761 -1.4653
 9652TIP3   OH253150   4.027   1.591   1.040 -0.1866 -0.2927 -0.4313
 9652TIP3    H153151   3.986   1.510   1.011  1.6585 -1.7411  0.7367
 9652TIP3    H253152   4.110   1.596   0.992  0.5244 -0.0540  0.7498
 9653TIP3   OH253153   5.966   1.175   3.057 -0.2846 -0.3955  0.0520
 9653TIP3    H153154   6.007   1.178   2.971 -0.6540 -0.1156 -0.1174
 9653TIP3    H253155   6.031   1.215   3.116 -0.2392 -0.1198 -0.1837
 9654TIP3   OH253156   6.612   1.718   1.148 -0.3899 -0.0757 -0.6205
 9654TIP3    H153157   6.556   1.765   1.086 -0.8220 -0.4975 -0.5547
 9654TIP3    H253158   6.553   1.656   1.191  0.0212 -0.1598 -0.1727
 9655TIP3   OH253159   4.063   3.075   1.175 -0.3668 -0.2355  0.7152
 9655TIP3    H153160   4.143   3.079   1.123  0.2585 -1.1433  1.5703
 9655TIP3    H253161   4.048   3.165   1.204  0.4667 -0.0968  0.7307
 9656TIP3   OH253162   1.190   6.527   3.602 -0.0171  0.1790 -0.0686
 9656TIP3    H153163   1.232   6.481   3.674  0.3420 -1.0470 -1.0330
 9656TIP3    H253164   1.132   6.591   3.645  0.5771 -0.1561  1.2825
 9657TIP3   OH253165   0.213   5.276   1.071 -0.2920 -0.5831 -0.8821
 9657TIP3    H153166   0.227   5.216   1.144 -1.2127 -0.9158 -0.9625
 9657TIP3    H253167   0.300   5.309   1.050 -0.0281 -0.3590  0.4679
 9658TIP3   OH253168   2.806   2.201   0.836  0.0564 -0.9613  0.2561
 9658TIP3    H153169   2.754   2.232   0.761  2.1390 -0.7162 -1.1538
 9658TIP3    H253170   2.829   2.111   0.813  2.6048 -0.1880 -0.5755
 9659TIP3   OH253171   0.574   0.038   3.123 -0.3255 -0.2241  0.0007
 9659TIP3    H153172   0.533   0.047   3.037  2.8412  1.5149 -1.5125
 9659TIP3    H253173   0.638  -0.033   3.112  0.1129  0.0111  0.9185
 9660TIP3   OH253174   3.107   2.979   3.232 -0.4365  0.5181  0.2143
 9660TIP3    H153175   3.155   2.923   3.294 -1.6259  0.6110  1.2504
 9660TIP3    H253176   3.174   3.037   3.197  1.2425 -2.5283 -2.1626
 9661TIP3   OH253177   4.326   4.343   1.125 -0.1518 -0.1902  0.6491
 9661TIP3    H153178   4.271   4.418   1.149  0.0015 -0.6727  2.6964
 9661TIP3    H253179   4.415   4.372   1.145 -0.0797 -0.8545  1.3378
 9662TIP3   OH253180   6.709   5.627   1.253 -0.0192 -0.0590 -0.4591
 9662TIP3    H153181   6.786   5.593   1.207  2.1245  0.5361  2.4349
 9662TIP3    H253182   6.691   5.562   1.321 -0.8650  0.7530  0.1095
 9663TIP3   OH253183   4.111   5.225   3.698 -0.4033 -0.4289 -0.1186
 9663TIP3    H153184   4.140   5.218   3.789 -1.1034 -1.0856  0.0669
 9663TIP3    H253185   4.016   5.215   3.702 -0.4530 -0.3568 -0.9119
 9664TIP3   OH253186   2.012   1.527   2.085 -0.0281  0.1709  0.0066
 9664TIP3    H153187   1.949   1.595   2.062 -0.6355 -0.7437 -1.0969
 9664TIP3    H253188   1.964   1.467   2.141 -0.2797 -0.7286 -1.1388
 9665TIP3   OH253189   3.170   4.389   1.365 -0.4479 -0.1129 -0.7081
 9665TIP3    H153190   3.255   4.368   1.328  0.2287  1.8828 -0.4440
 9665TIP3    H253191   3.160   4.483   1.349 -1.5915  0.1515  1.2589
 9666TIP3   OH253192   0.887   2.557   1.451 -0.0879  0.0924  0.6208
 9666TIP3    H153193   0.801   2.568   1.411  0.7633  0.0244 -1.3063
 9666TIP3    H253194   0.939   2.631   1.418  0.7900 -0.2180  1.2620
 9667TIP3   OH253195   5.684   3.340   0.959  0.4105  0.0410 -0.2754
 9667TIP3    H153196   5.735   3.261   0.944 -0.9405 -0.7198 -1.0787
 9667TIP3    H253197   5.626   3.347   0.883 -0.4842  1.0063  0.4531
 9668TIP3   OH253198   1.018   1.038   1.069 -0.1861 -0.0693 -0.2183
 9668TIP3    H153199   1.084   0.969   1.069 -0.7630 -0.6295  0.7961
 9668TIP3    H253200   0.960   1.016   0.996 -1.2945 -1.5872  1.0551
 9669TIP3   OH253201   3.176   0.274   3.674  0.4638  0.4761 -0.5630
 9669TIP3    H153202   3.253   0.218   3.659  1.1423  1.8361 -2.6227
 9669TIP3    H253203   3.156   0.263   3.767  0.1141 -3.6971 -0.9318
 9670TIP3   OH253204   5.151   0.953   1.325  0.6764  0.2989  0.3619
 9670TIP3    H153205   5.068   0.992   1.352 -0.4234 -1.5182 -0.2212
 9670TIP3    H253206   5.207   0.959   1.402 -0.7624 -0.4075  1.5189
 9671TIP3   OH253207   1.247   5.042   2.817 -0.2054 -0.3554  0.0356
 9671TIP3    H153208   1.180   5.043   2.748 -2.2097  0.0884  1.9107
 9671TIP3    H253209   1.218   5.107   2.881  1.8656 -0.3877  1.0978
 9672TIP3   OH253210   5.392   2.440   0.800 -0.1865 -0.0356  0.0708
 9672TIP3    H153211   5.357   2.518   0.843 -2.1693 -1.9136  2.1574
 9672TIP3    H253212   5.472   2.471   0.756 -0.7999  3.0924  0.8778
 9673TIP3   OH253213   4.158   4.124   2.222  0.0638 -0.2477 -0.0800
 9673TIP3    H153214   4.086   4.154   2.279  0.0055  1.4989 -1.0149
 9673TIP3    H253215   4.218   4.080   2.282 -0.5301  0.5584  1.1724
 9674TIP3   OH253216   0.091   0.719   2.053 -0.0060 -0.0494 -0.0583
 9674TIP3    H153217   0.025   0.742   2.118 -0.9300 -2.0720 -0.2065
 9674TIP3    H253218   0.161   0.677   2.104 -0.4378 -1.0489 -0.2642
 9675TIP3   OH253219   0.710   0.739   2.609  0.2270 -0.3543  0.0026
 9675TIP3    H153220   0.632   0.774   2.650 -0.1677 -1.5254  0.2746
 9675TIP3    H253221   0.775   0.809   2.618 -0.9085  0.8368 -0.6835
 9676TIP3   OH253222   1.664   2.448   2.456  0.2859  0.1989  0.0563
 9676TIP3    H153223   1.606   2.397   2.400 -0.1241  0.0317  0.6300
 9676TIP3    H253224   1.743   2.461   2.403  0.1061 -0.3987 -0.3650
 9677TIP3   OH253225   4.410   1.483   3.472  0.1140 -0.0459  0.1511
 9677TIP3    H153226   4.386   1.421   3.541  0.9457  1.2569  1.6613
 9677TIP3    H253227   4.383   1.568   3.505  2.1935  0.8383 -0.2769
 9678TIP3   OH253228   6.301   6.715   1.640 -0.0045 -0.7441  0.2257
 9678TIP3    H153229   6.269   6.635   1.682  0.1707 -1.5280 -1.0529
 9678TIP3    H253230   6.284   6.701   1.547  0.1062  0.6901 -0.0313
 9679TIP3   OH253231   1.304   3.145   1.487  0.1548  0.2640 -0.0414
 9679TIP3    H153232   1.379   3.202   1.504  0.1564  0.2105  0.1433
 9679TIP3    H253233   1.316   3.072   1.549  0.7565 -0.5162 -1.0359
 9680TIP3   OH253234   0.782   4.811   3.101 -0.1469 -0.1692  0.4459
 9680TIP3    H153235   0.822   4.769   3.177  0.2578 -0.0656  0.2906
 9680TIP3    H253236   0.848   4.803   3.032 -0.3658  0.0662  0.2097
 9681TIP3   OH253237   3.064   1.405   2.373 -0.2302 -0.0003 -0.2193
 9681TIP3    H153238   3.109   1.462   2.310  0.3010 -0.6232 -0.4124
 9681TIP3    H253239   3.079   1.317   2.340 -0.1517 -0.3245  0.6586
 9682TIP3   OH253240   2.479   3.822   3.576  0.0098 -0.3387  0.2072
 9682TIP3    H153241   2.388   3.846   3.596  0.1715 -0.0085  0.5465
 9682TIP3    H253242   2.477   3.797   3.484  0.0695  2.1899 -0.5549
 9683TIP3   OH253243   5.970   5.883   1.997 -0.0201  0.1017  0.6725
 9683TIP3    H153244   5.968   5.794   2.033  0.3909 -0.9833 -1.7743
 9683TIP3    H253245   6.028   5.877   1.921 -1.2858  2.0816 -0.5381
 9684TIP3   OH253246   1.913   0.835   0.349  0.1536  0.1151  0.7566
 9684TIP3    H153247   1.941   0.768   0.412  2.0828 -1.1318 -1.2829
 9684TIP3    H253248   1.833   0.798   0.310  0.1045 -0.0528  1.0094
 9685TIP3   OH253249   5.635   3.676   0.721 -0.1909 -0.1740 -0.3277
 9685TIP3    H153250   5.642   3.618   0.797  1.0115  0.3665 -0.0048
 9685TIP3    H253251   5.669   3.624   0.648  1.6348  0.3385  0.1049
 9686TIP3   OH253252   5.281   3.079   3.251  0.0625  0.2072  0.6472
 9686TIP3    H153253   5.220   3.135   3.299  2.0380  1.3381  2.0006
 9686TIP3    H253254   5.352   3.062   3.313  0.8415 -1.5895 -0.6411
 9687TIP3   OH253255   1.613   1.506   2.667 -0.0186 -0.7839  0.2647
 9687TIP3    H153256   1.564   1.424   2.673  1.7850 -1.8805  0.7170
 9687TIP3    H253257   1.618   1.537   2.758  0.2682 -0.7612  0.2401
 9688TIP3   OH253258   3.539   1.806   0.878 -0.1465  0.0637  0.3322
 9688TIP3    H153259   3.594   1.882   0.857 -0.7106  0.3683 -0.0451
 9688TIP3    H253260   3.452   1.829   0.846 -0.2922 -0.8011  0.0882
 9689TIP3   OH253261   6.522   1.588   1.861  0.6234  0.2317  0.1313
 9689TIP3    H153262   6.615   1.596   1.840  0.9116 -1.9075  0.4153
 9689TIP3    H253263   6.496   1.505   1.823 -1.8401  1.8724 -2.1087
 9690TIP3   OH253264   6.061   3.528   3.576  0.3254 -0.0265 -0.6748
 9690TIP3    H153265   6.081   3.538   3.669  1.2885  2.1047 -1.0627
 9690TIP3    H253266   6.094   3.441   3.554 -1.8032 -1.5130  1.3702
 9691TIP3   OH253267   3.367   5.064   3.886 -0.6134 -0.5699  0.0635
 9691TIP3    H153268   3.373   5.121   3.963  1.9185 -0.4687 -0.1438
 9691TIP3    H253269   3.276   5.033   3.887 -1.0717  0.6248  2.2176
 9692TIP3   OH253270   4.217   2.381   0.568 -0.0139  0.7767  0.2048
 9692TIP3    H153271   4.229   2.456   0.626 -0.1373 -0.4125  1.8164
 9692TIP3    H253272   4.297   2.378   0.516  1.8848 -0.3688  2.9868
 9693TIP3   OH253273   6.722   5.028   2.858  0.0993 -0.0579 -0.0672
 9693TIP3    H153274   6.696   5.006   2.948 -0.8509  0.7363 -0.1289
 9693TIP3    H253275   6.640   5.053   2.815  0.8333  1.6026 -0.5584
 9694TIP3   OH253276   0.631   0.383   1.937  0.0789  0.3448  0.0810
 9694TIP3    H153277   0.594   0.359   2.022 -0.7396 -0.4283 -0.4652
 9694TIP3    H253278   0.709   0.328   1.928  0.0470  0.2718  0.2552
 9695TIP3   OH253279   2.416   6.702   1.856 -0.6465  0.3332  0.4499
 9695TIP3    H153280   2.480   6.632   1.841 -0.5086  0.3535  0.9394
 9695TIP3    H253281   2.344   6.682   1.796 -1.2614 -1.0471  1.5986
 9696TIP3   OH253282   6.172   5.827   1.806 -0.5282  0.3969  0.2303
 9696TIP3    H153283   6.153   5.769   1.732 -0.5271  1.8450 -0.9539
 9696TIP3    H253284   6.230   5.894   1.769 -0.0352  0.8101  1.7088
 9697TIP3   OH253285   3.890   5.100   4.579  0.4766  0.2936  0.1867
 9697TIP3    H153286   3.814   5.150   4.550 -0.7147  0.2213  2.9182
 9697TIP3    H253287   3.890   5.022   4.523 -0.1453  1.3060 -1.2827
 9698TIP3   OH253288   5.707   6.250   1.229  0.7185 -0.1581  0.0767
 9698TIP3    H153289   5.731   6.328   1.178 -0.1929  0.0610 -0.0402
 9698TIP3    H253290   5.664   6.285   1.307 -0.5170 -0.5537 -0.4142
 9699TIP3   OH253291   6.370   0.665   1.796 -0.1388 -0.1389 -0.1793
 9699TIP3    H153292   6.287   0.623   1.819 -0.4208 -0.2934 -1.4072
 9699TIP3    H253293   6.345   0.750   1.760  0.1213 -0.7335 -1.8314
 9700TIP3   OH253294   5.569   2.391   2.286 -0.7742  0.4176 -0.4389
 9700TIP3    H153295   5.482   2.431   2.292 -1.0328  0.1127 -1.7968
 9700TIP3    H253296   5.626   2.462   2.258 -0.7704  0.3815 -0.5207
 9701TIP3   OH253297   3.496   0.045   2.750 -0.1453 -0.1754  0.5003
 9701TIP3    H153298   3.548   0.011   2.822  0.1607  0.3325  0.5246
 9701TIP3    H253299   3.439  -0.028   2.724  0.4404 -0.6689  0.5957
 9702TIP3   OH253300   3.291   4.546   2.729 -0.1613 -0.8354 -0.1576
 9702TIP3    H153301   3.354   4.475   2.733  2.4421  1.1678 -2.3184
 9702TIP3    H253302   3.330   4.616   2.781 -0.8537  0.2628 -1.0650
 9703TIP3   OH253303   5.455   3.106   0.784 -0.2196 -0.0934  0.1348
 9703TIP3    H153304   5.372   3.136   0.823  0.1306  1.8871 -0.5725
 9703TIP3    H253305   5.435   3.017   0.753 -1.4874 -0.4238  1.7263
 9704TIP3   OH253306   5.363   3.687   2.255  0.0835  0.3716  0.2996
 9704TIP3    H153307   5.414   3.718   2.330  1.8696 -0.6376 -0.4279
 9704TIP3    H253308   5.369   3.591   2.261 -1.8532  0.2229  0.2438
 9705TIP3   OH253309   2.731   1.745   4.122  0.4270  0.5989  0.1695
 9705TIP3    H153310   2.676   1.688   4.069  0.0306  1.5196 -0.4380
 9705TIP3    H253311   2.675   1.819   4.145  1.1938  1.2046  0.1534
 9706TIP3   OH253312   0.882   4.821   1.393 -0.3567 -0.1600  0.5678
 9706TIP3    H153313   0.794   4.842   1.424 -1.6644 -3.5863 -0.3453
 9706TIP3    H253314   0.901   4.735   1.431  2.0454 -0.1104 -0.3563
 9707TIP3   OH253315   3.658   3.465   3.392 -0.5250  0.3370  0.0363
 9707TIP3    H153316   3.724   3.406   3.429 -1.9513 -2.2524 -1.2810
 9707TIP3    H253317   3.689   3.481   3.303 -1.2730 -0.2876 -0.3445
 9708TIP3   OH253318   5.603   4.502   2.473  0.4929 -0.4525  0.0896
 9708TIP3    H153319   5.643   4.415   2.482 -0.2924 -0.9436 -0.9006
 9708TIP3    H253320   5.546   4.510   2.549 -0.2374 -1.2704 -0.3474
 9709TIP3   OH253321   2.566   5.751   2.244  0.2832 -0.1744 -0.7769
 9709TIP3    H153322   2.527   5.687   2.303 -0.3372 -1.4864 -2.5092
 9709TIP3    H253323   2.659   5.750   2.265 -0.1504  0.9005  1.4872
 9710TIP3   OH253324   5.901   6.061   1.141 -0.1516  0.4266 -1.0517
 9710TIP3    H153325   5.840   6.123   1.181 -1.3854 -1.9982  1.2132
 9710TIP3    H253326   5.975   6.114   1.113 -0.2312  2.7716  2.4780
 9711TIP3   OH253327   2.187   3.623   0.349 -0.1266 -0.0993 -0.2285
 9711TIP3    H153328   2.202   3.581   0.434  2.7536 -0.6933 -0.9146
 9711TIP3    H253329   2.244   3.575   0.288 -0.7687  1.4249 -2.1354
 9712TIP3   OH253330   2.592   0.969   1.333 -0.4150 -0.2856 -0.3330
 9712TIP3    H153331   2.572   0.921   1.413 -0.6215  1.3214  0.6377
 9712TIP3    H253332   2.662   1.029   1.357 -0.3057  0.0550 -1.4209
 9713TIP3   OH253333   4.438   5.222   0.777 -0.2334 -0.2602 -0.0052
 9713TIP3    H153334   4.484   5.139   0.792  1.0691  0.1802 -1.3136
 9713TIP3    H253335   4.346   5.197   0.767 -0.1660 -1.3020  1.5700
 9714TIP3   OH253336   1.927   4.012   1.781  0.6180 -0.7278 -0.5821
 9714TIP3    H153337   1.997   4.060   1.737 -0.9716  0.6733 -1.7488
 9714TIP3    H253338   1.882   4.079   1.834  0.0945 -1.5566  0.0423
 9715TIP3   OH253339   0.415   5.153   2.165 -0.1976 -0.0004 -0.1345
 9715TIP3    H153340   0.405   5.243   2.196 -0.3466 -0.1959  0.4062
 9715TIP3    H253341   0.357   5.102   2.222  1.0705 -0.6586  0.6251
 9716TIP3   OH253342   0.944   6.339   3.332 -0.0104 -0.0767 -0.2710
 9716TIP3    H153343   0.993   6.419   3.348 -3.0050  2.4631 -2.4618
 9716TIP3    H253344   0.858   6.354   3.371 -0.8851 -1.9368 -1.2933
 9717TIP3   OH253345   4.411   1.680   2.059 -0.4824  0.4819 -0.6213
 9717TIP3    H153346   4.439   1.675   2.150 -0.9554  0.2797 -0.4830
 9717TIP3    H253347   4.360   1.761   2.053 -1.2540  0.0197 -0.4714
 9718TIP3   OH253348   0.356   2.638   0.987  0.0989 -0.5896  0.9366
 9718TIP3    H153349   0.435   2.673   1.028 -0.3755  1.9175 -0.1103
 9718TIP3    H253350   0.310   2.715   0.954 -1.0364 -2.2355 -1.6203
 9719TIP3   OH253351   1.424   5.794   3.272  0.7247  0.0347  0.2336
 9719TIP3    H153352   1.390   5.795   3.183 -0.5323  0.6667  0.6814
 9719TIP3    H253353   1.407   5.705   3.303 -0.0172  0.1750  0.2520
 9720TIP3   OH253354   5.338   5.551   1.033  0.7824 -0.0547  0.4918
 9720TIP3    H153355   5.419   5.597   1.012  0.7229 -1.2451 -2.8394
 9720TIP3    H253356   5.291   5.611   1.091  1.2634  3.6066 -2.5121
 9721TIP3   OH253357   5.875   2.256   2.735 -0.0356 -0.4960 -0.0601
 9721TIP3    H153358   5.881   2.218   2.823  0.1441  0.4516  0.3482
 9721TIP3    H253359   5.965   2.260   2.704 -0.0507 -0.3675 -0.0876
 9722TIP3   OH253360   3.575   5.329   3.872  0.5315  0.0445 -0.1339
 9722TIP3    H153361   3.506   5.395   3.882  0.3872  0.0140 -0.8857
 9722TIP3    H253362   3.586   5.294   3.960  0.7770  1.2295  0.3302
 9723TIP3   OH253363   3.899   3.554   2.303  0.2042  0.1600 -0.0622
 9723TIP3    H153364   3.932   3.628   2.353  0.7326  0.5152 -0.9079
 9723TIP3    H253365   3.854   3.499   2.367 -1.9681  2.1931  0.2539
 9724TIP3   OH253366   4.055   2.718   2.584  0.0464  1.1545  0.0698
 9724TIP3    H153367   4.006   2.754   2.510 -1.2358 -0.9931 -0.1972
 9724TIP3    H253368   4.007   2.747   2.662 -1.0257  0.0216 -0.1460
 9725TIP3   OH253369   0.334   3.659   2.194  0.0933 -0.6168 -0.8916
 9725TIP3    H153370   0.289   3.601   2.133 -0.3181 -1.2643 -0.0064
 9725TIP3    H253371   0.363   3.733   2.141 -0.5739 -0.9835 -1.7869
 9726TIP3   OH253372   2.972   4.857   4.385 -0.6811 -0.1137 -0.0166
 9726TIP3    H153373   2.907   4.854   4.315 -0.9251 -1.5723  0.2390
 9726TIP3    H253374   2.928   4.817   4.460  0.2944 -0.5408  0.3402
 9727TIP3   OH253375   5.849   1.157   1.161  0.1648 -0.4689 -0.5447
 9727TIP3    H153376   5.768   1.189   1.120  1.0570 -0.2996 -2.2627
 9727TIP3    H253377   5.904   1.131   1.088  2.2487  0.7600  0.4941
 9728TIP3   OH253378   1.594   2.336   1.091 -0.3616  0.8696  0.2302
 9728TIP3    H153379   1.585   2.284   1.171  0.3430  0.0008 -0.2395
 9728TIP3    H253380   1.547   2.418   1.111 -1.1027  0.2526  1.1464
 9729TIP3   OH253381   3.349   5.905   3.600  0.5643  0.5589  0.1780
 9729TIP3    H153382   3.296   5.842   3.649  0.8304  0.8882  0.9087
 9729TIP3    H253383   3.303   5.917   3.517  0.0920  0.0049  0.3597
 9730TIP3   OH253384   6.226   0.815   0.600  0.2202  0.2873  0.5493
 9730TIP3    H153385   6.306   0.850   0.561  0.0301 -0.7946 -0.8624
 9730TIP3    H253386   6.240   0.721   0.604 -1.0624  0.0632  0.1033
 9731TIP3   OH253387   4.509   3.222   2.874  0.0287 -0.4284  0.3674
 9731TIP3    H153388   4.535   3.157   2.810 -0.2595 -0.2389  0.0519
 9731TIP3    H253389   4.527   3.181   2.959  2.7658  0.2615  0.2121
 9732TIP3   OH253390   2.409   0.507   0.991  0.0714  0.0281  0.1596
 9732TIP3    H153391   2.404   0.560   0.911 -0.1820  0.2748  0.3377
 9732TIP3    H253392   2.392   0.418   0.961  0.5614  0.0345 -0.1508
 9733TIP3   OH253393   6.318   2.077   2.885 -0.2947 -0.0603 -0.1307
 9733TIP3    H153394   6.365   2.149   2.926 -0.3387  0.5196 -1.0676
 9733TIP3    H253395   6.306   2.013   2.955  2.3788 -0.4933  0.0434
 9734TIP3   OH253396   5.503   0.997   1.117 -0.1756  0.2806  0.0355
 9734TIP3    H153397   5.415   0.959   1.109 -0.5273  0.4603  2.4997
 9734TIP3    H253398   5.552   0.957   1.045 -1.4296 -2.3011  0.4882
 9735TIP3   OH253399   6.041   5.979   1.443 -0.5058 -0.4382 -0.1290
 9735TIP3    H153400   5.988   5.900   1.433 -2.1722  0.5145  0.7266
 9735TIP3    H253401   5.980   6.044   1.477  1.5274  0.3418  2.3113
 9736TIP3   OH253402   6.559   0.835   1.912  0.3650 -0.3795 -0.0240
 9736TIP3    H153403   6.511   0.761   1.873  1.0566 -0.0008 -1.6508
 9736TIP3    H253404   6.581   0.805   2.000 -0.2137 -1.7400 -0.3168
 9737TIP3   OH253405   3.669   1.395   2.188  0.0805  0.2416  0.1078
 9737TIP3    H153406   3.714   1.441   2.259  0.5090 -0.6291  0.4127
 9737TIP3    H253407   3.652   1.463   2.123 -0.2329  1.0405  0.9944
 9738TIP3   OH253408   3.983   5.709   2.903  0.1340 -0.2114  0.4764
 9738TIP3    H153409   3.989   5.690   2.810 -0.5001  1.2092  0.1352
 9738TIP3    H253410   3.921   5.781   2.910  0.6465  0.1242  1.9425
 9739TIP3   OH253411   0.510   3.323   2.931  0.1865 -0.0781 -0.0734
 9739TIP3    H153412   0.561   3.343   2.852 -0.2585  1.0665 -0.0948
 9739TIP3    H253413   0.540   3.236   2.958 -0.1608 -0.8228 -1.9128
 9740TIP3   OH253414   2.501   0.116   1.691  0.6991 -0.0691  0.9599
 9740TIP3    H153415   2.463   0.204   1.698  0.2058 -0.2816  0.9906
 9740TIP3    H253416   2.499   0.082   1.780  0.4159 -0.3021  0.8667
 9741TIP3   OH253417   1.934   5.141   1.756 -0.0153  0.1016  0.1443
 9741TIP3    H153418   1.852   5.096   1.773  0.5202 -1.2206 -0.5491
 9741TIP3    H253419   1.933   5.159   1.662  0.3438  0.3480  0.1840
 9742TIP3   OH253420   4.589   4.227   2.893  0.2328 -0.7763  0.0728
 9742TIP3    H153421   4.578   4.134   2.872  0.5451 -0.7703 -0.1255
 9742TIP3    H253422   4.543   4.273   2.823 -2.9939 -0.7932  1.9689
 9743TIP3   OH253423   3.541   6.703   0.685  0.4410  0.3097 -0.2766
 9743TIP3    H153424   3.559   6.763   0.612 -0.4167  0.0690 -0.7046
 9743TIP3    H253425   3.622   6.654   0.696  0.5196  0.2055 -1.2131
 9744TIP3   OH253426   0.268   5.456   1.695  0.0160 -0.3120 -0.1147
 9744TIP3    H153427   0.277   5.542   1.655 -0.6405 -0.2492 -0.1514
 9744TIP3    H253428   0.237   5.400   1.624  1.3725 -0.8181 -0.3364
 9745TIP3   OH253429   6.578   2.681   1.877 -0.2022 -0.3549  0.1814
 9745TIP3    H153430   6.483   2.691   1.874 -0.4993 -2.0389  1.8995
 9745TIP3    H253431   6.595   2.638   1.961  2.1193  0.1865  0.0576
 9746TIP3   OH253432   1.700   1.532   2.414 -0.6172  0.2831 -0.2976
 9746TIP3    H153433   1.695   1.547   2.508 -0.1649  1.4127 -0.4393
 9746TIP3    H253434   1.657   1.447   2.401 -1.6023  0.5859  0.7985
 9747TIP3   OH253435   4.479   0.724   2.089  0.1218 -0.6741  0.3209
 9747TIP3    H153436   4.542   0.653   2.073  1.2742  0.7238 -1.8490
 9747TIP3    H253437   4.396   0.692   2.055  1.1389 -0.2278 -2.8991
 9748TIP3   OH253438   4.381   5.578   3.121  0.4803 -0.2797  0.1390
 9748TIP3    H153439   4.356   5.537   3.038  3.1075  0.1317 -0.9650
 9748TIP3    H253440   4.385   5.505   3.183  1.4621 -1.1553 -0.8908
 9749TIP3   OH253441   0.948   4.600   1.525  0.6910  0.1374  0.4877
 9749TIP3    H153442   0.864   4.576   1.563  0.7153 -0.8809 -0.0559
 9749TIP3    H253443   1.011   4.583   1.594  0.4193  1.3055  1.0394
 9750TIP3   OH253444   5.119   1.219   1.032 -0.0304 -0.3386  0.6077
 9750TIP3    H153445   5.197   1.164   1.042 -0.4869 -0.9478  0.9181
 9750TIP3    H253446   5.054   1.161   0.992  0.4572  0.8951 -2.2036
 9751TIP3   OH253447   2.467   0.242   2.269 -0.3317  0.7839 -0.1127
 9751TIP3    H153448   2.373   0.257   2.279 -0.4178  0.2781 -0.1620
 9751TIP3    H253449   2.476   0.199   2.184  0.0021  1.3424 -0.3697
 9752TIP3   OH253450   2.884   0.205   3.120  0.6601 -0.0732  0.1405
 9752TIP3    H153451   2.817   0.144   3.152 -0.4369  0.7112 -0.5658
 9752TIP3    H253452   2.927   0.237   3.199  0.8419 -1.2750  0.5583
 9753TIP3   OH253453   2.676   0.051   2.162  0.3907 -0.5895 -0.1190
 9753TIP3    H153454   2.629  -0.032   2.155 -2.3166  0.5760  2.5011
 9753TIP3    H253455   2.652   0.098   2.082 -2.7982 -0.1836  0.9418
 9754TIP3   OH253456   3.436   1.860   2.740 -0.0720 -0.1410  0.0455
 9754TIP3    H153457   3.349   1.821   2.732 -1.0045  2.2207 -3.0328
 9754TIP3    H253458   3.427   1.923   2.812 -0.0197 -1.7558  1.5458
 9755TIP3   OH253459   1.256   4.444   3.593  0.2490  0.0560  0.0068
 9755TIP3    H153460   1.305   4.361   3.587 -0.3135 -0.1882 -3.3721
 9755TIP3    H253461   1.167   4.418   3.614  0.2360 -0.1434 -0.2876
 9756TIP3   OH253462   6.724   4.930   2.602 -0.0547 -0.0980 -0.4089
 9756TIP3    H153463   6.668   4.869   2.650  0.4575 -0.8759 -0.7917
 9756TIP3    H253464   6.738   5.003   2.663 -0.9009 -0.2209 -0.0542
 9757TIP3   OH253465   3.227   5.300   1.366  0.0085  0.0593  0.2259
 9757TIP3    H153466   3.154   5.295   1.427 -0.5956 -1.5202 -0.5695
 9757TIP3    H253467   3.292   5.238   1.401 -0.5628 -1.2688 -0.9576
 9758TIP3   OH253468   1.589   0.365   2.784  0.3368 -0.1449  0.2882
 9758TIP3    H153469   1.663   0.307   2.805 -0.9610 -1.3324  1.7842
 9758TIP3    H253470   1.600   0.440   2.843  1.2046  0.4620 -0.6182
 9759TIP3   OH253471   0.231   5.649   4.015 -0.6602 -0.0953 -0.5093
 9759TIP3    H153472   0.146   5.690   4.028  0.1853  1.1245  1.8104
 9759TIP3    H253473   0.238   5.586   4.087  0.6208  0.2870 -0.2660
 9760TIP3   OH253474   5.916   0.497   0.697  0.0362  0.0967 -0.1022
 9760TIP3    H153475   5.980   0.461   0.637  0.3241 -0.7714  0.6907
 9760TIP3    H253476   5.861   0.554   0.644  1.4432  0.8347 -0.7917
 9761TIP3   OH253477   0.782   2.406   2.922  0.3194  0.0563  0.3797
 9761TIP3    H153478   0.802   2.456   2.843  2.1682 -0.8334  0.2257
 9761TIP3    H253479   0.812   2.317   2.902 -0.5345 -0.5205  1.5585
 9762TIP3   OH253480   3.041   3.659   2.857  0.1484 -0.0120  0.0567
 9762TIP3    H153481   3.014   3.739   2.901 -1.3010 -1.2794  1.6280
 9762TIP3    H253482   3.090   3.610   2.924  2.5564  0.2310 -1.3756
 9763TIP3   OH253483   5.571   5.842   2.643  0.2255  0.3782  0.0199
 9763TIP3    H153484   5.567   5.750   2.616  0.3416  0.7049 -1.1896
 9763TIP3    H253485   5.662   5.857   2.667  0.3769  0.3672 -0.5325
 9764TIP3   OH253486   4.639   4.072   0.900 -0.2172  0.0849 -0.1401
 9764TIP3    H153487   4.681   4.158   0.908 -1.0079  0.3353  1.7415
 9764TIP3    H253488   4.558   4.089   0.852 -0.7469  0.5376  0.9030
 9765TIP3   OH253489   4.444   5.797   3.392  0.3149 -0.5599  0.1667
 9765TIP3    H153490   4.493   5.793   3.310  2.8109  1.7692  1.3989
 9765TIP3    H253491   4.442   5.890   3.415  1.1535 -1.2083  3.5081
 9766TIP3   OH253492   1.906   5.103   3.491 -0.1900 -0.4123  0.0503
 9766TIP3    H153493   1.969   5.032   3.501 -0.4083 -0.5428  0.5326
 9766TIP3    H253494   1.948   5.165   3.431  0.8052 -0.0399  1.0899
 9767TIP3   OH253495   5.439   2.714   2.881  0.4011 -0.3205 -0.2176
 9767TIP3    H153496   5.491   2.764   2.944  0.4907 -1.7022  0.8289
 9767TIP3    H253497   5.401   2.642   2.931 -0.9580 -0.4613 -1.3805
 9768TIP3   OH253498   4.032   4.157   4.185  0.3695  0.4160  0.1311
 9768TIP3    H153499   4.050   4.068   4.214 -1.1106 -0.2323 -0.8253
 9768TIP3    H253500   3.953   4.182   4.233  0.0679  0.7435 -0.5212
 9769TIP3   OH253501   4.298   3.839   0.822 -0.3794  0.8106 -0.1344
 9769TIP3    H153502   4.260   3.773   0.763  1.2345 -0.5727  0.2998
 9769TIP3    H253503   4.259   3.821   0.907 -0.3535  0.7618 -0.1326
 9770TIP3   OH253504   6.061   0.312   2.870  0.5668 -0.1738  0.4948
 9770TIP3    H153505   6.096   0.399   2.890 -0.8966  0.0951  2.0398
 9770TIP3    H253506   6.133   0.252   2.890  1.2606  0.5855  0.3460
 9771TIP3   OH253507   0.809   5.266   0.913  0.3565  0.5231 -0.3038
 9771TIP3    H153508   0.755   5.187   0.911 -0.5120  0.9571  2.4236
 9771TIP3    H253509   0.898   5.234   0.897 -0.2916 -0.6178 -1.8263
 9772TIP3   OH253510   3.081   3.811   1.244 -0.5295 -0.0071  0.0881
 9772TIP3    H153511   3.025   3.889   1.237 -0.2777  0.2416  0.7248
 9772TIP3    H253512   3.031   3.741   1.202 -1.4886  0.1217  0.9834
 9773TIP3   OH253513   2.642   0.593   1.922  0.4630 -0.3467  0.0813
 9773TIP3    H153514   2.706   0.663   1.916 -1.3165  1.2831 -1.0915
 9773TIP3    H253515   2.574   0.627   1.980 -0.1335 -1.3652  0.0074
 9774TIP3   OH253516   6.496   1.063   3.153 -0.1772 -0.3009 -0.0885
 9774TIP3    H153517   6.504   1.101   3.240  0.6459  0.4323 -0.4729
 9774TIP3    H253518   6.584   1.031   3.132 -0.8553 -2.6559  0.3029
 9775TIP3   OH253519   0.822   6.280   2.597  0.7994 -0.5028 -0.5223
 9775TIP3    H153520   0.783   6.321   2.520  0.9581 -0.0377 -0.3591
 9775TIP3    H253521   0.749   6.266   2.657  0.0594 -3.8586 -1.9916
 9776TIP3   OH253522   3.467   1.895   2.235 -0.1170 -0.2134 -0.4083
 9776TIP3    H153523   3.553   1.932   2.216  0.0926  0.0926  1.0802
 9776TIP3    H253524   3.405   1.960   2.200  0.2261 -0.6361 -1.8707
 9777TIP3   OH253525   0.768   4.753   2.178  0.1981 -0.5147  1.1622
 9777TIP3    H153526   0.748   4.676   2.232  2.1969  0.2233  3.0409
 9777TIP3    H253527   0.790   4.716   2.092  1.8702 -2.1590  2.2290
 9778TIP3   OH253528   0.541   0.103   2.712 -0.4000 -0.0892  0.2228
 9778TIP3    H153529   0.453   0.139   2.699 -0.0757  0.1824 -1.4609
 9778TIP3    H253530   0.595   0.178   2.737 -0.6194 -0.2472  1.2068
 9779TIP3   OH253531   3.412   5.036   2.880  0.5247  0.1212  0.5499
 9779TIP3    H153532   3.376   5.040   2.968  0.1658  1.7818  0.3548
 9779TIP3    H253533   3.338   5.054   2.822  0.7094 -1.1315 -0.1332
 9780TIP3   OH253534   3.463   4.512   0.722 -0.2297 -0.2234  0.3583
 9780TIP3    H153535   3.421   4.595   0.698 -0.0016 -0.4876 -1.0645
 9780TIP3    H253536   3.530   4.499   0.655 -0.3976 -1.6455  0.4337
 9781TIP3   OH253537   2.691   0.987   3.595  0.0493  0.3440 -0.3769
 9781TIP3    H153538   2.633   1.043   3.544 -0.0212  1.5461  0.9614
 9781TIP3    H253539   2.649   0.901   3.594  0.0793  0.2918 -2.3348
 9782TIP3   OH253540   4.242   1.675   2.661  0.1486 -0.2355 -0.5147
 9782TIP3    H153541   4.276   1.678   2.750 -1.8262 -1.8815  0.3760
 9782TIP3    H253542   4.256   1.763   2.627  3.6373 -0.3014  0.2969
 9783TIP3   OH253543   1.872   3.688   0.915 -0.0638 -0.0347 -0.6897
 9783TIP3    H153544   1.790   3.720   0.953 -0.2961 -0.3881 -0.8921
 9783TIP3    H253545   1.845   3.629   0.845  0.3628  0.9156 -1.6808
 9784TIP3   OH253546   0.928   1.247   3.687  0.9073 -0.8630 -0.0658
 9784TIP3    H153547   0.908   1.261   3.595 -0.0709  1.4883  0.4104
 9784TIP3    H253548   0.994   1.314   3.708 -0.6931  0.3506  1.4384
 9785TIP3   OH253549   2.876   5.848   4.325 -0.2991  0.4383  0.1649
 9785TIP3    H153550   2.813   5.913   4.291 -0.4100  0.4368  0.3662
 9785TIP3    H253551   2.822   5.787   4.376 -0.3633 -0.4800 -0.9635
 9786TIP3   OH253552   0.336   5.374   3.239 -0.0885 -0.8246  0.7523
 9786TIP3    H153553   0.323   5.299   3.296  0.0346  0.0172  1.9256
 9786TIP3    H253554   0.252   5.421   3.241  0.0665 -0.5364  0.6340
 9787TIP3   OH253555   3.050   1.409   1.111 -0.1951  0.1419  0.1455
 9787TIP3    H153556   2.985   1.470   1.144  0.7987  0.2163  2.0934
 9787TIP3    H253557   3.019   1.323   1.139  0.4234  0.1588  0.9044
 9788TIP3   OH253558   1.851   1.737   1.988 -0.6384  0.0761  0.3567
 9788TIP3    H153559   1.860   1.828   2.015  0.9935  0.0390  0.0588
 9788TIP3    H253560   1.809   1.741   1.902  1.5477  0.7620 -0.7600
 9789TIP3   OH253561   6.536   0.129   1.459 -0.1331  0.5244  0.7053
 9789TIP3    H153562   6.484   0.189   1.512 -0.8035 -0.2214  0.9070
 9789TIP3    H253563   6.514   0.151   1.369 -1.7211 -0.5391  0.7909
 9790TIP3   OH253564   5.543   0.688   1.463 -0.2792  0.3094  0.2082
 9790TIP3    H153565   5.536   0.629   1.539  0.8974  0.7585  0.6783
 9790TIP3    H253566   5.508   0.637   1.390 -1.4760 -0.1219  1.0501
 9791TIP3   OH253567   2.110   5.726   2.254  0.0885 -0.0332  0.3459
 9791TIP3    H153568   2.133   5.659   2.319 -1.1304 -0.5470  0.2644
 9791TIP3    H253569   2.174   5.796   2.269 -1.2430  0.7205  3.4032
 9792TIP3   OH253570   3.237   6.773   1.487 -0.6000 -0.5616 -0.4487
 9792TIP3    H153571   3.251   6.679   1.474 -1.3638 -0.8528  0.6403
 9792TIP3    H253572   3.173   6.778   1.558  0.6567  0.8104  0.6699
 9793TIP3   OH253573   2.968   0.474   2.930  0.1848 -0.1732  0.1770
 9793TIP3    H153574   2.942   0.534   2.860 -1.4774 -1.2122 -0.1453
 9793TIP3    H253575   2.949   0.387   2.896  1.2952 -0.8278  1.1508
 9794TIP3   OH253576   5.802   4.055   1.243 -0.1018  0.3991 -0.2203
 9794TIP3    H153577   5.753   3.999   1.183 -0.9251  1.8914 -1.0014
 9794TIP3    H253578   5.888   4.014   1.249 -1.1674 -1.8561  0.5861
 9795TIP3   OH253579   0.453   1.862   1.991  0.1724  0.3493  0.0046
 9795TIP3    H153580   0.378   1.807   1.966  0.6946  0.8437 -3.0969
 9795TIP3    H253581   0.425   1.951   1.971  0.1828  1.0347  2.7624
 9796TIP3   OH253582   3.754   6.588   2.457 -0.0859  0.3730  0.5855
 9796TIP3    H153583   3.758   6.680   2.481  0.4740  0.2724  0.8900
 9796TIP3    H253584   3.716   6.588   2.369  1.4194  1.0184 -0.0994
 9797TIP3   OH253585   5.036   6.232   2.176  0.7264  0.3637 -0.0623
 9797TIP3    H153586   5.094   6.308   2.165  0.5680  0.2518 -2.3476
 9797TIP3    H253587   5.083   6.160   2.134 -0.3725 -0.0918 -0.5427
 9798TIP3   OH253588   5.045   4.913   1.009 -0.6886  0.4343 -0.0599
 9798TIP3    H153589   5.066   4.956   1.092  1.0766  1.0620 -0.7871
 9798TIP3    H253590   5.125   4.867   0.985 -0.2290  2.3415 -2.6310
 9799TIP3   OH253591   2.619   3.015   0.779  0.4308  0.4926  0.5049
 9799TIP3    H153592   2.535   2.969   0.772  1.3189 -1.1704  0.2169
 9799TIP3    H253593   2.685   2.947   0.763  1.8209  1.8967  0.0059
 9800TIP3   OH253594   0.665   6.222   2.337  0.0580 -0.0489 -0.8366
 9800TIP3    H153595   0.610   6.163   2.388 -0.1860 -0.6079 -1.7160
 9800TIP3    H253596   0.607   6.256   2.269  0.7226 -0.4872 -1.6536
 9801TIP3   OH253597   0.459   1.510   2.563  0.4976 -0.4270  0.4199
 9801TIP3    H153598   0.471   1.515   2.658 -0.6320 -0.8355  0.5997
 9801TIP3    H253599   0.427   1.597   2.539  1.2967 -0.1530  0.3240
 9802TIP3   OH253600   1.634   1.265   2.385 -0.4260 -0.1623  0.1584
 9802TIP3    H153601   1.573   1.214   2.333  0.5248 -1.0868 -0.0925
 9802TIP3    H253602   1.667   1.203   2.450  1.8948 -0.3639 -1.0967
 9803TIP3   OH253603   6.149   5.399   0.557 -0.2778  0.4270 -0.2889
 9803TIP3    H153604   6.205   5.322   0.543  0.4487  1.1038 -1.2494
 9803TIP3    H253605   6.180   5.435   0.640 -1.5444 -1.0605  0.8824
 9804TIP3   OH253606   0.741   0.959   0.590  0.4668 -0.1282  1.0385
 9804TIP3    H153607   0.725   1.053   0.586 -0.1006 -0.2653 -1.4404
 9804TIP3    H253608   0.655   0.920   0.573  1.0799 -1.0478 -0.0317
 9805TIP3   OH253609   2.300   0.658   0.477  0.3241  0.4903 -0.4878
 9805TIP3    H153610   2.380   0.656   0.424  0.3835  0.4803 -0.3991
 9805TIP3    H253611   2.237   0.606   0.428  0.1542  1.0847 -0.9068
 9806TIP3   OH253612   5.770   3.443   1.514 -0.0307 -0.7311  0.2864
 9806TIP3    H153613   5.797   3.534   1.530 -1.0879 -0.7801  2.7293
 9806TIP3    H253614   5.852   3.393   1.517  0.3812 -0.0564  0.5635
 9807TIP3   OH253615   4.568   0.908   0.877 -0.3047 -0.4249  0.1597
 9807TIP3    H153616   4.637   0.942   0.821  0.4909 -2.0258  0.0862
 9807TIP3    H253617   4.495   0.968   0.865  0.2679 -0.0211 -1.6143
 9808TIP3   OH253618   6.196   2.363   1.038 -0.4269  0.4617  0.1916
 9808TIP3    H153619   6.116   2.317   1.014  0.7831 -1.5338 -0.2155
 9808TIP3    H253620   6.167   2.432   1.098 -2.6762  1.1715 -1.5833
 9809TIP3   OH253621   4.106   2.476   1.642  0.0642 -1.3695  1.0320
 9809TIP3    H153622   4.136   2.490   1.552 -0.6798  1.0008  1.0940
 9809TIP3    H253623   4.021   2.434   1.633 -2.1214  2.7197  0.3146
 9810TIP3   OH253624   4.882   2.848   0.818  0.1616  0.1441  0.1854
 9810TIP3    H153625   4.914   2.870   0.731 -2.4405 -0.2861 -0.9810
 9810TIP3    H253626   4.918   2.762   0.837  0.5400  0.1271 -0.5864
 9811TIP3   OH253627   4.491   2.974   3.807  0.1009 -0.0816  0.9017
 9811TIP3    H153628   4.424   3.010   3.866  0.3886 -0.4990  1.4888
 9811TIP3    H253629   4.532   2.903   3.857  0.8008 -0.0079  0.4457
 9812TIP3   OH253630   6.429   6.250   1.715 -0.0044 -0.0480 -0.3519
 9812TIP3    H153631   6.507   6.258   1.660  0.3158 -1.1208 -0.0785
 9812TIP3    H253632   6.409   6.157   1.715  0.1951 -0.1310  1.6042
 9813TIP3   OH253633   0.402   2.943   3.584  0.0662  0.2732  0.0058
 9813TIP3    H153634   0.334   3.008   3.602 -0.6508  0.2315 -2.2379
 9813TIP3    H253635   0.475   2.993   3.549  0.2319  0.0602  0.0412
 9814TIP3   OH253636   5.259   0.979   1.619 -0.3712 -0.2223 -0.3940
 9814TIP3    H153637   5.255   0.916   1.691 -1.7967 -0.0109 -0.2501
 9814TIP3    H253638   5.352   0.985   1.597 -0.1445 -1.9553 -0.0515
 9815TIP3   OH253639   2.667   4.262   1.879 -0.3468  0.2923 -0.4030
 9815TIP3    H153640   2.661   4.280   1.973 -0.3526  1.1798 -0.5637
 9815TIP3    H253641   2.761   4.255   1.861 -0.3192  0.7964 -0.4518
 9816TIP3   OH253642   5.406   5.949   1.909  0.7201  0.0042 -0.3101
 9816TIP3    H153643   5.451   5.977   1.829 -0.0510  0.4550 -0.5908
 9816TIP3    H253644   5.376   5.860   1.890  1.7006 -0.4085 -0.0233
 9817TIP3   OH253645   4.580   3.808   1.842 -0.1459 -0.7743  0.2653
 9817TIP3    H153646   4.674   3.804   1.860 -0.1110  0.3422  0.4138
 9817TIP3    H253647   4.540   3.808   1.929 -0.1047  1.9116  0.3755
 9818TIP3   OH253648   2.123   3.562   4.168 -0.2397 -0.4593  0.1266
 9818TIP3    H153649   2.041   3.539   4.123 -0.5616  0.7101  0.0915
 9818TIP3    H253650   2.122   3.657   4.173  1.8462 -0.3097 -1.1987
 9819TIP3   OH253651   1.842   5.882   1.360 -0.0709  0.1139  0.6393
 9819TIP3    H153652   1.782   5.840   1.422 -1.6270  1.6520  0.2310
 9819TIP3    H253653   1.874   5.809   1.306 -1.0492 -0.8371  1.2888
 9820TIP3   OH253654   1.133   0.743   1.742  0.4783  0.3093 -0.2415
 9820TIP3    H153655   1.162   0.831   1.719  1.4840  0.3819  1.1630
 9820TIP3    H253656   1.042   0.754   1.771  1.0069  1.1529  1.2217
 9821TIP3   OH253657   0.028   5.537   2.976 -0.6141 -0.1084  0.6264
 9821TIP3    H153658  -0.032   5.585   3.032  0.7248 -0.9258  2.9230
 9821TIP3    H253659  -0.005   5.447   2.976 -0.6792 -0.0899 -0.0294
 9822TIP3   OH253660   6.233   2.008   2.025  0.2598 -0.6590  0.2563
 9822TIP3    H153661   6.221   2.074   2.094 -0.2162  1.9018 -2.1265
 9822TIP3    H253662   6.325   2.018   1.999 -0.5420  1.4300 -2.2054
 9823TIP3   OH253663   5.671   0.895   3.922  0.4784 -0.4842 -0.1672
 9823TIP3    H153664   5.620   0.825   3.962 -0.3356  0.1290 -0.1243
 9823TIP3    H253665   5.683   0.959   3.992 -1.2692  0.7687 -0.9588
 9824TIP3   OH253666   4.722   2.260   0.646 -0.0485 -0.2604 -0.2814
 9824TIP3    H153667   4.790   2.270   0.579 -0.0964  0.3588 -0.2431
 9824TIP3    H253668   4.766   2.284   0.728  0.2743 -1.9099  0.0659
 9825TIP3   OH253669   1.863   6.425   1.715 -0.3557  0.2046 -0.4871
 9825TIP3    H153670   1.798   6.405   1.648 -0.7419  0.0831 -0.0856
 9825TIP3    H253671   1.867   6.520   1.718 -1.8282  0.2696  0.7013
 9826TIP3   OH253672   2.772   5.028   3.871  0.0913 -0.0692  0.0576
 9826TIP3    H153673   2.712   5.097   3.898  1.2184  0.2671  1.9002
 9826TIP3    H253674   2.716   4.952   3.856 -0.8631  0.3919  1.1199
 9827TIP3   OH253675   3.641   1.702   2.118  0.3980  0.5251  0.3520
 9827TIP3    H153676   3.550   1.732   2.113 -0.5147 -2.0990 -0.0378
 9827TIP3    H253677   3.680   1.730   2.034 -0.0777  1.4750  0.4339
 9828TIP3   OH253678   2.447   2.469   1.841 -0.1980  0.4260 -0.0429
 9828TIP3    H153679   2.504   2.433   1.909 -0.5175 -0.1046 -0.0543
 9828TIP3    H253680   2.400   2.540   1.884 -1.1483 -0.5560  0.5868
 9829TIP3   OH253681   0.955   6.635   2.545  0.4605  0.1583 -0.4763
 9829TIP3    H153682   0.863   6.658   2.555  0.0598 -0.8249 -1.7029
 9829TIP3    H253683   0.960   6.588   2.462  2.1680  0.6848 -0.7226
 9830TIP3   OH253684   1.374   5.105   2.075  0.0962 -0.0886 -0.0586
 9830TIP3    H153685   1.337   5.147   1.997  0.8859 -1.4283 -1.1888
 9830TIP3    H253686   1.350   5.164   2.147 -0.0806  1.5354 -1.3774
 9831TIP3   OH253687   5.361   4.913   1.412  0.3049 -0.0570 -0.2680
 9831TIP3    H153688   5.279   4.938   1.368  0.0944 -0.5724 -0.1705
 9831TIP3    H253689   5.364   4.967   1.490 -0.4465 -0.7506  0.2526
 9832TIP3   OH253690   2.525   5.068   3.622  0.0525 -0.3297  0.2059
 9832TIP3    H153691   2.566   5.012   3.688 -0.7046 -1.9007 -0.6128
 9832TIP3    H253692   2.477   5.008   3.565  0.7875  0.9473 -1.8874
 9833TIP3   OH253693   5.185   0.430   2.882  0.1162  0.2535 -0.0550
 9833TIP3    H153694   5.131   0.502   2.849  0.5885  0.2196 -0.9097
 9833TIP3    H253695   5.258   0.473   2.926 -1.2501  0.3333  2.3319
 9834TIP3   OH253696   2.276   4.888   4.285 -0.3515  0.1896 -0.5418
 9834TIP3    H153697   2.198   4.942   4.275 -0.3589  0.0346 -1.3986
 9834TIP3    H253698   2.257   4.832   4.360 -0.8398  0.5273 -0.4078
 9835TIP3   OH253699   5.370   3.481   0.925  0.7303  0.5947  0.1703
 9835TIP3    H153700   5.416   3.468   0.842 -1.0271  0.1206 -0.7987
 9835TIP3    H253701   5.282   3.510   0.899  0.6437  2.1384  1.9356
 9836TIP3   OH253702   4.868   5.131   1.320 -0.0041 -0.5518 -0.0755
 9836TIP3    H153703   4.874   5.227   1.319  0.5583 -0.5899 -0.4508
 9836TIP3    H253704   4.842   5.110   1.410  4.4304 -0.2831  1.5504
 9837TIP3   OH253705   5.772   2.698   2.650  0.2479  0.1305 -0.3022
 9837TIP3    H153706   5.849   2.671   2.599  1.7990  0.7946  1.5411
 9837TIP3    H253707   5.713   2.737   2.586  1.1274 -0.9900 -1.8921
 9838TIP3   OH253708   1.833   5.779   0.721  0.2820 -0.0522  0.0945
 9838TIP3    H153709   1.795   5.864   0.744 -1.6624 -1.0912  0.9433
 9838TIP3    H253710   1.912   5.801   0.672 -0.2626  2.2417  0.1248
 9839TIP3   OH253711   1.752   6.778   2.898 -0.3815 -0.0029 -0.1071
 9839TIP3    H153712   1.702   6.785   2.817 -2.5012 -0.3249  1.1069
 9839TIP3    H253713   1.782   6.687   2.900 -0.0776  0.0830 -0.6585
 9840TIP3   OH253714   0.335   3.056   2.589 -0.1816 -0.9695 -0.4251
 9840TIP3    H153715   0.287   2.997   2.648 -2.5796  0.5142 -0.7494
 9840TIP3    H253716   0.345   3.137   2.639 -3.3311  0.7554 -2.2396
 9841TIP3   OH253717   6.272   5.904   0.594  0.2001 -0.0670 -0.2731
 9841TIP3    H153718   6.280   5.815   0.560  1.1129  0.0013 -0.2556
 9841TIP3    H253719   6.277   5.960   0.517 -0.2191 -0.0183 -0.2679
 9842TIP3   OH253720   3.934   3.416   1.272  0.4033 -0.4869 -0.1133
 9842TIP3    H153721   3.950   3.387   1.361 -1.2656 -0.7992  0.1309
 9842TIP3    H253722   4.009   3.471   1.250  0.4879  0.2159  1.7498
 9843TIP3   OH253723   6.039   4.974   1.427 -0.1827  0.1669 -0.5548
 9843TIP3    H153724   5.961   5.010   1.384 -0.8320  2.1568  2.0442
 9843TIP3    H253725   6.005   4.920   1.497  0.8199 -0.7432 -0.7477
 9844TIP3   OH253726   6.299   0.897   1.693 -0.0183  0.1860 -0.6700
 9844TIP3    H153727   6.204   0.899   1.702 -0.0393 -1.9601  0.1103
 9844TIP3    H253728   6.322   0.983   1.656 -2.1135  1.1803  0.2232
 9845TIP3   OH253729   6.286   6.047   1.342 -0.5035 -0.4348 -0.0460
 9845TIP3    H153730   6.313   6.137   1.359 -0.0108 -0.4209 -0.8993
 9845TIP3    H253731   6.200   6.040   1.384  0.3714 -0.2139  1.9013
 9846TIP3   OH253732   5.802   5.310   1.787  0.0399  0.2107 -0.1839
 9846TIP3    H153733   5.884   5.278   1.824 -0.4846 -2.2162 -0.9519
 9846TIP3    H253734   5.747   5.330   1.864  0.1009 -1.6321  0.3752
 9847TIP3   OH253735   0.339   1.141   1.861 -0.3200 -0.0663 -0.6003
 9847TIP3    H153736   0.308   1.110   1.776  1.9523 -0.4913 -1.3447
 9847TIP3    H253737   0.312   1.072   1.923 -0.6921 -0.4968 -1.2335
 9848TIP3   OH253738   0.853   0.347   3.694 -0.8883  0.0607  0.3806
 9848TIP3    H153739   0.934   0.312   3.732  0.2399  0.7279 -1.3022
 9848TIP3    H253740   0.839   0.430   3.740  0.3964  0.8097 -0.5181
 9849TIP3   OH253741   1.700   4.127   4.282 -0.6692  0.3482  0.3822
 9849TIP3    H153742   1.617   4.140   4.328 -1.1629  0.0630 -0.4090
 9849TIP3    H253743   1.759   4.093   4.349 -0.7525  1.9342  1.3032
 9850TIP3   OH253744   2.691   0.009   3.241 -0.2964  0.3153 -0.0021
 9850TIP3    H153745   2.743  -0.003   3.320 -0.1127  1.5939  0.0852
 9850TIP3    H253746   2.674  -0.081   3.210  1.2465 -0.1628  0.4186
 9851TIP3   OH253747   3.266   6.273   0.817 -0.3458 -0.0883  0.2164
 9851TIP3    H153748   3.185   6.221   0.808 -1.2018  0.9305  1.6488
 9851TIP3    H253749   3.326   6.215   0.864 -1.5253  0.3718  2.4365
 9852TIP3   OH253750   0.703   4.491   2.266  0.2933 -0.1820 -0.2543
 9852TIP3    H153751   0.684   4.403   2.234  0.5908  0.1618 -1.4274
 9852TIP3    H253752   0.776   4.480   2.327  1.9910 -0.4894 -2.2311
 9853TIP3   OH253753   3.792   0.775   3.295 -0.3333 -0.0703  0.2087
 9853TIP3    H153754   3.820   0.858   3.335  1.4068 -0.1876 -0.6630
 9853TIP3    H253755   3.862   0.754   3.233 -1.1680 -1.7716 -0.2066
 9854TIP3   OH253756   6.185   2.803   0.960 -0.5480 -0.0939  0.3790
 9854TIP3    H153757   6.263   2.846   0.995  0.6973  0.2585 -2.4943
 9854TIP3    H253758   6.126   2.875   0.938 -0.6737 -0.1919  0.3946
 9855TIP3   OH253759   1.932   4.598   3.755  0.3152 -0.0000 -0.3005
 9855TIP3    H153760   1.924   4.571   3.664 -0.4028  0.8799 -0.5157
 9855TIP3    H253761   1.842   4.606   3.786  0.5469  0.0808  0.3744
 9856TIP3   OH253762   4.378   5.935   1.617  0.5403  1.2563  0.2546
 9856TIP3    H153763   4.296   5.898   1.651  1.1914  1.1079  1.7534
 9856TIP3    H253764   4.352   6.020   1.580 -0.4292  0.7939 -0.1614
 9857TIP3   OH253765   6.372   3.297   2.998 -0.2905  0.8435  0.3313
 9857TIP3    H153766   6.394   3.370   2.941 -1.7351  1.5370  0.6182
 9857TIP3    H253767   6.457   3.260   3.024  0.4199  1.2140 -1.3265
 9858TIP3   OH253768   2.247   1.419   1.036 -0.3819  0.1747  0.2988
 9858TIP3    H153769   2.330   1.467   1.035 -0.0785 -0.3267  0.6544
 9858TIP3    H253770   2.186   1.478   1.081  0.3597 -0.3277  2.0446
 9859TIP3   OH253771   0.759   2.212   1.455  0.6485  0.9037 -0.0517
 9859TIP3    H153772   0.716   2.126   1.451  2.1629  0.1676 -1.4062
 9859TIP3    H253773   0.688   2.273   1.473 -0.9021 -0.3354 -1.6176
 9860TIP3   OH253774   2.563   6.472   3.214 -0.6395 -0.0779 -0.5557
 9860TIP3    H153775   2.640   6.502   3.263  0.5833 -2.4029 -0.9094
 9860TIP3    H253776   2.515   6.416   3.276 -0.0943 -1.5099 -1.3842
 9861TIP3   OH253777   0.347   5.182   3.044  0.1133  0.1486 -0.2459
 9861TIP3    H153778   0.438   5.154   3.050  0.8055  1.9699 -1.3857
 9861TIP3    H253779   0.343   5.260   3.099 -1.3222 -1.0566  1.4728
 9862TIP3   OH253780   1.033   2.113   1.401  0.3899 -0.0156 -0.2022
 9862TIP3    H153781   1.039   2.021   1.376  1.8869  0.2601 -0.9976
 9862TIP3    H253782   0.944   2.139   1.376 -0.5169 -1.5484  1.2490
 9863TIP3   OH253783   3.561   0.173   2.527 -0.2074  0.4028 -0.5056
 9863TIP3    H153784   3.549   0.138   2.615 -0.4893  1.5079 -0.0856
 9863TIP3    H253785   3.637   0.231   2.535 -0.4449  0.7732 -0.9003
 9864TIP3   OH253786   3.146   5.042   4.246  0.4885 -0.2889  0.2390
 9864TIP3    H153787   3.088   4.967   4.259 -2.0518  1.3991 -0.5872
 9864TIP3    H253788   3.111   5.109   4.304  1.3673  0.9242 -0.5864
 9865TIP3   OH253789   0.111   6.084   1.608  0.2357  0.3444 -0.2314
 9865TIP3    H153790   0.101   6.077   1.703 -0.6079 -1.5211 -0.4224
 9865TIP3    H253791   0.200   6.117   1.596  0.4492  0.3626  1.1963
 9866TIP3   OH253792   0.578   1.095   2.871 -0.0496 -0.0739 -0.3731
 9866TIP3    H153793   0.521   1.028   2.834 -0.0830 -1.4159  1.8958
 9866TIP3    H253794   0.666   1.060   2.861 -0.1207 -0.9338  1.5425
 9867TIP3   OH253795   5.511   3.495   1.976  0.3904 -0.1632  0.0109
 9867TIP3    H153796   5.431   3.478   1.927  0.0084 -1.2551  0.9853
 9867TIP3    H253797   5.489   3.474   2.067  0.2269  4.2984  1.2605
 9868TIP3   OH253798   2.115   3.631   0.672 -0.6935 -0.1841  0.1574
 9868TIP3    H153799   2.029   3.671   0.685  0.5102  2.3928  0.9004
 9868TIP3    H253800   2.173   3.680   0.730  1.3693 -1.6245 -0.5701
 9869TIP3   OH253801   2.394   2.885   0.807  0.0200 -0.2428  0.2322
 9869TIP3    H153802   2.400   2.794   0.837  0.3779 -0.1207  0.5297
 9869TIP3    H253803   2.365   2.934   0.884 -1.1187 -0.2468 -0.1805
 9870TIP3   OH253804   4.689   1.153   2.479  0.3708  0.0260  0.2999
 9870TIP3    H153805   4.599   1.151   2.446  1.3626  0.8165 -2.7434
 9870TIP3    H253806   4.714   1.245   2.474  1.4759 -0.2394  0.7290
 9871TIP3   OH253807   1.137   3.998   2.885 -0.5127 -0.2062  0.1646
 9871TIP3    H153808   1.209   4.041   2.840 -0.4934 -1.3842 -0.9732
 9871TIP3    H253809   1.058   4.036   2.846 -0.4954 -0.6717 -0.3327
 9872TIP3   OH253810   5.268   2.606   1.677  0.1067 -0.4588  0.8410
 9872TIP3    H153811   5.191   2.550   1.685 -2.4946  2.5255 -0.7647
 9872TIP3    H253812   5.266   2.662   1.755  0.7747 -0.4633  0.8720
 9873TIP3   OH253813   2.622   5.702   1.065  0.0834 -0.3923 -0.2251
 9873TIP3    H153814   2.609   5.614   1.100  1.1141 -0.5046 -0.1168
 9873TIP3    H253815   2.536   5.726   1.028 -0.6333 -0.8059  1.1361
 9874TIP3   OH253816   4.741   6.641   3.008 -0.4361  0.0846 -0.3748
 9874TIP3    H153817   4.757   6.574   3.073 -0.4119 -0.4827 -0.9555
 9874TIP3    H253818   4.828   6.677   2.988 -0.5188  0.7433  0.4011
 9875TIP3   OH253819   6.217   2.325   1.909 -0.4438 -0.8131  0.1914
 9875TIP3    H153820   6.188   2.407   1.870  0.9588  0.1110  0.9764
 9875TIP3    H253821   6.219   2.263   1.836 -0.6196  0.1101 -0.6175
 9876TIP3   OH253822   1.722   5.076   1.093 -0.5254  0.0111  0.5575
 9876TIP3    H153823   1.692   5.116   1.174  2.3635  1.3784  1.0701
 9876TIP3    H253824   1.781   5.140   1.054  0.6404 -1.8661 -0.9994
 9877TIP3   OH253825   3.951   4.478   3.472 -0.2585 -0.4897 -0.1923
 9877TIP3    H153826   3.909   4.563   3.487 -1.3365 -0.9615 -0.4690
 9877TIP3    H253827   3.897   4.436   3.406  0.5283 -1.2220 -0.3877
 9878TIP3   OH253828   4.160   2.082   1.325  0.1718  0.5242 -0.2968
 9878TIP3    H153829   4.245   2.125   1.341 -0.8773  1.9959  1.8049
 9878TIP3    H253830   4.096   2.153   1.331 -1.3294 -0.7576 -0.5377
 9879TIP3   OH253831   1.053   0.133   1.068 -0.5905 -0.0801  0.6235
 9879TIP3    H153832   0.998   0.058   1.046  0.1513 -0.6857  0.7910
 9879TIP3    H253833   0.999   0.186   1.126 -1.3226 -0.1984  0.0601
 9880TIP3   OH253834   4.149   5.825   1.685 -0.0010  0.4855 -0.1017
 9880TIP3    H153835   4.074   5.883   1.694  0.2024  0.6739  0.3917
 9880TIP3    H253836   4.111   5.737   1.679 -0.3748  0.7169 -1.8406
 9881TIP3   OH253837   0.225   1.365   2.619  0.1634 -0.5223  0.2182
 9881TIP3    H153838   0.309   1.388   2.580 -0.4525  0.0392 -0.8360
 9881TIP3    H253839   0.236   1.379   2.712  1.7926 -2.1911  0.3389
 9882TIP3   OH253840   6.004   6.397   1.920  0.1309  1.0193  0.4703
 9882TIP3    H153841   5.994   6.472   1.861  0.9218  0.1596 -0.8197
 9882TIP3    H253842   6.036   6.327   1.863 -0.0379 -0.1337  1.7568
 9883TIP3   OH253843   2.031   3.530   1.786 -0.2063 -0.1954  0.8324
 9883TIP3    H153844   2.101   3.554   1.725 -0.5231  1.2020  0.9833
 9883TIP3    H253845   1.997   3.447   1.752  0.0922  0.1960 -0.4815
 9884TIP3   OH253846   2.965   3.108   1.259 -0.2814  0.2115  0.0897
 9884TIP3    H153847   3.015   3.028   1.277  0.6608  0.6760 -0.3910
 9884TIP3    H253848   3.014   3.177   1.303 -1.5984  0.4194  1.2985
 9885TIP3   OH253849   1.159   4.124   3.794  0.1517 -0.2374 -0.0913
 9885TIP3    H153850   1.138   4.190   3.727  0.9184  1.2220  1.0584
 9885TIP3    H253851   1.250   4.102   3.778 -0.0030 -0.7817 -0.2496
 9886TIP3   OH253852   4.597   0.381   2.310  0.0457 -0.4824  0.1266
 9886TIP3    H153853   4.606   0.304   2.253 -0.9536  0.0412 -0.7769
 9886TIP3    H253854   4.608   0.456   2.252 -0.9027  0.0670  0.6271
 9887TIP3   OH253855   1.009   0.974   3.205 -0.6048 -0.4747  0.0884
 9887TIP3    H153856   0.916   0.990   3.191 -0.0249  2.2621 -1.2115
 9887TIP3    H253857   1.042   1.055   3.243  1.5170 -0.8010 -0.9341
 9888TIP3   OH253858   2.473   6.717   2.932  0.1545 -0.4982  0.0486
 9888TIP3    H153859   2.529   6.761   2.868  0.9198 -0.6179  0.6298
 9888TIP3    H253860   2.425   6.652   2.880 -0.0146  0.1207 -0.5814
 9889TIP3   OH253861   0.006   6.299   2.198  0.2003 -0.1146  0.2383
 9889TIP3    H153862   0.085   6.353   2.195 -0.8374  1.6096  1.7582
 9889TIP3    H253863  -0.045   6.336   2.271 -0.5640 -3.2093  1.4078
 9890TIP3   OH253864   5.845   1.475   3.173 -0.3886 -0.5361  0.3409
 9890TIP3    H153865   5.885   1.561   3.165 -0.3719 -0.6256 -0.7136
 9890TIP3    H253866   5.813   1.471   3.263 -1.1335  0.8918  0.1629
 9891TIP3   OH253867   0.702   4.991   0.847 -0.4046 -0.0639 -0.1139
 9891TIP3    H153868   0.676   4.920   0.905  1.0439 -0.1337  0.4945
 9891TIP3    H253869   0.639   4.989   0.776 -1.0924 -1.1874  0.5082
 9892TIP3   OH253870   3.707   5.979   3.978 -0.2646  0.5769  0.1839
 9892TIP3    H153871   3.714   5.935   4.062  0.3330  1.6243  0.6956
 9892TIP3    H253872   3.794   6.014   3.961  0.0888 -1.0293 -1.6823
 9893TIP3   OH253873   1.394   5.222   1.102 -0.3169 -0.3461  0.1290
 9893TIP3    H153874   1.488   5.207   1.110 -0.3578 -0.4641  0.3794
 9893TIP3    H253875   1.374   5.199   1.011  0.4276  2.4819 -0.8615
 9894TIP3   OH253876   5.562   5.843   0.808  0.1757  0.0068 -0.3586
 9894TIP3    H153877   5.546   5.790   0.730  1.1230  0.6991 -1.0525
 9894TIP3    H253878   5.636   5.899   0.784  0.3365  0.3994  0.9610
 9895TIP3   OH253879   2.940   3.881   3.003  0.3230 -0.1614 -0.1970
 9895TIP3    H153880   2.888   3.807   3.034 -0.0667  0.1661 -0.0531
 9895TIP3    H253881   2.880   3.931   2.948 -0.3398  1.5584  1.9125
 9896TIP3   OH253882   6.520   1.695   3.826 -0.7906  0.3645 -0.3240
 9896TIP3    H153883   6.503   1.751   3.750  0.5379 -0.2370 -1.0956
 9896TIP3    H253884   6.580   1.628   3.794  1.9835  1.5913  1.8545
 9897TIP3   OH253885   4.783   1.466   2.255 -0.4038  0.1637 -0.0860
 9897TIP3    H153886   4.707   1.445   2.201 -1.3886  0.4032  1.1588
 9897TIP3    H253887   4.756   1.541   2.307  0.5261 -0.0307  0.7147
 9898TIP3   OH253888   6.304   1.760   1.868  0.1583 -0.1362 -0.0242
 9898TIP3    H153889   6.370   1.691   1.877  0.8661  0.3486 -1.2531
 9898TIP3    H253890   6.257   1.759   1.952  2.1145 -0.0935  1.1335
 9899TIP3   OH253891   2.725   1.819   3.033 -0.4416  0.8834  0.2778
 9899TIP3    H153892   2.753   1.909   3.051 -1.0950  1.2463 -0.4628
 9899TIP3    H253893   2.736   1.773   3.116 -0.2200  1.6783  0.6959
 9900TIP3   OH253894   0.335   0.036   2.056 -0.4490 -0.4104  0.0624
 9900TIP3    H153895   0.287  -0.042   2.030 -0.0844 -1.1428  1.5423
 9900TIP3    H253896   0.412   0.037   1.999  0.0938 -1.7335  0.7409
 9901TIP3   OH253897   5.881   3.518   1.095  0.1074 -0.1146 -0.0509
 9901TIP3    H153898   5.828   3.525   1.174  0.7241  2.0490  0.2280
 9901TIP3    H253899   5.833   3.457   1.039 -1.8909  0.6249  0.7864
 9902TIP3   OH253900   1.853   5.624   2.074  0.3583  0.2204  0.1441
 9902TIP3    H153901   1.867   5.575   2.155 -2.7990  0.0091  0.7140
 9902TIP3    H253902   1.827   5.711   2.104 -1.1941  0.0366 -0.5788
 9903TIP3   OH253903   6.078   4.040   1.597  0.5465  0.4396  0.0341
 9903TIP3    H153904   5.987   4.013   1.610  0.3142  1.3646  0.3914
 9903TIP3    H253905   6.081   4.131   1.628  1.6917  0.2806  0.4331
 9904TIP3   OH253906   0.074   4.181   1.205  0.5478  0.6792  0.7210
 9904TIP3    H153907   0.013   4.237   1.252 -0.3183 -1.2358  1.9709
 9904TIP3    H253908   0.026   4.154   1.127  0.1691  0.0041  1.1821
 9905TIP3   OH253909   3.967   5.987   3.129 -0.3118  0.1230 -0.3504
 9905TIP3    H153910   3.909   6.026   3.195  1.2247  0.2291  1.0103
 9905TIP3    H253911   3.914   5.983   3.050 -1.7490  1.4143  0.4827
 9906TIP3   OH253912   5.063   1.997   1.454 -0.4509 -0.0293  0.2327
 9906TIP3    H153913   5.001   2.068   1.439  1.2821  1.8428  1.3200
 9906TIP3    H253914   5.053   1.939   1.379 -1.1021  2.0144 -1.3502
 9907TIP3   OH253915   3.409   2.048   1.696 -0.4110  0.0800 -0.1592
 9907TIP3    H153916   3.388   1.989   1.768 -0.2874  0.7897  0.4801
 9907TIP3    H253917   3.487   2.011   1.655 -0.2005 -0.0684  0.3775
 9908TIP3   OH253918   6.639   4.298   1.351  0.2336 -0.2914 -0.6797
 9908TIP3    H153919   6.574   4.296   1.281 -0.7984  1.8581  0.1476
 9908TIP3    H253920   6.588   4.289   1.431  0.9365  1.4510 -0.0084
 9909TIP3   OH253921   4.191   5.229   1.249 -0.4244  0.2745 -0.5888
 9909TIP3    H153922   4.255   5.216   1.178 -1.3719 -0.2413 -1.3748
 9909TIP3    H253923   4.227   5.180   1.323  2.1936  3.3568  0.3886
 9910TIP3   OH253924   3.575   1.328   1.552  0.2988 -0.6366  0.0997
 9910TIP3    H153925   3.482   1.334   1.576 -0.0785 -1.4513 -1.0709
 9910TIP3    H253926   3.586   1.393   1.483  0.9539  0.4413  1.1885
 9911TIP3   OH253927   6.550   3.793   1.550 -0.0857  0.2734 -0.1716
 9911TIP3    H153928   6.463   3.831   1.543 -0.8836 -1.4224  0.1251
 9911TIP3    H253929   6.568   3.792   1.644  0.4078  0.9003 -0.2499
 9912TIP3   OH253930   0.325   2.409   0.817  0.2222  0.0980  0.4282
 9912TIP3    H153931   0.405   2.369   0.852  1.5493  1.6011 -0.7367
 9912TIP3    H253932   0.323   2.497   0.855 -1.4586 -0.2524  1.2404
 9913TIP3   OH253933   2.153   6.355   0.939  0.0154 -0.3048 -0.0655
 9913TIP3    H153934   2.151   6.265   0.971 -0.3726 -0.7819 -1.3732
 9913TIP3    H253935   2.243   6.368   0.910  0.5099  0.3044  1.6093
 9914TIP3   OH253936   5.191   5.351   1.570  1.1092  0.3552  0.5156
 9914TIP3    H153937   5.221   5.390   1.652  2.0706 -0.6016  0.6435
 9914TIP3    H253938   5.213   5.416   1.503  0.8470  0.8918  0.9422
 9915TIP3   OH253939   5.674   5.589   1.487  0.0604 -0.4944 -0.0351
 9915TIP3    H153940   5.654   5.647   1.413  1.5329  0.3133  0.1798
 9915TIP3    H253941   5.685   5.648   1.562  0.7320 -1.1226  0.3707
 9916TIP3   OH253942   3.796   0.518   1.769 -0.4605  0.3258  0.0959
 9916TIP3    H153943   3.811   0.491   1.678 -0.4583  0.8463 -0.0647
 9916TIP3    H253944   3.707   0.490   1.788 -0.2824 -0.2457  0.1056
 9917TIP3   OH253945   1.427   0.098   0.750 -0.1234 -0.2398  0.3088
 9917TIP3    H153946   1.394   0.011   0.772 -0.6454 -0.1168  0.0179
 9917TIP3    H253947   1.513   0.081   0.710 -0.0550 -0.5900  0.5998
 9918TIP3   OH253948   2.066   0.757   3.875  0.1553 -0.1047  0.2559
 9918TIP3    H153949   2.157   0.784   3.858 -0.0328  1.0785  0.9989
 9918TIP3    H253950   2.074   0.684   3.936  0.6103  0.4688  0.9118
 9919TIP3   OH253951   3.951   5.436   1.027 -0.2217 -0.2412  0.3723
 9919TIP3    H153952   3.954   5.530   1.012 -0.9410 -0.1220  0.8997
 9919TIP3    H253953   4.015   5.399   0.966 -1.7828  0.3525 -1.7435
 9920TIP3   OH253954   4.889   3.989   2.699  0.5772 -0.1288 -0.0763
 9920TIP3    H153955   4.955   3.939   2.747 -1.2792 -1.0551  1.6732
 9920TIP3    H253956   4.851   3.925   2.639  1.9620  0.6890 -1.9065
 9921TIP3   OH253957   1.493   3.954   1.992 -0.3401 -0.0220  0.0588
 9921TIP3    H153958   1.576   3.936   2.036 -0.7953  0.9555  1.3746
 9921TIP3    H253959   1.511   3.935   1.900  1.0694 -0.7140  0.4404
 9922TIP3   OH253960   1.561   5.120   1.330 -0.9690  0.3141  0.0096
 9922TIP3    H153961   1.498   5.053   1.358 -0.2865 -0.1536  0.4722
 9922TIP3    H253962   1.519   5.203   1.351 -2.1178  0.0614 -1.1941
 9923TIP3   OH253963   5.258   5.937   0.592 -0.1429  0.2051 -0.2692
 9923TIP3    H153964   5.303   5.953   0.675 -0.2865  2.4105 -0.5588
 9923TIP3    H253965   5.313   5.872   0.547 -0.1664 -1.1873  1.5746
 9924TIP3   OH253966   4.289   0.652   2.777 -0.7377  0.1893 -0.6619
 9924TIP3    H153967   4.281   0.683   2.687  0.2289 -0.5035 -1.0167
 9924TIP3    H253968   4.354   0.582   2.772  1.2823  1.8066  0.9528
 9925TIP3   OH253969   1.656   2.727   0.828  0.3887 -0.3728  0.0959
 9925TIP3    H153970   1.733   2.743   0.773 -0.2782  2.0101 -0.2201
 9925TIP3    H253971   1.592   2.686   0.769  1.0026 -1.3841  0.1016
 9926TIP3   OH253972   3.672   3.649   2.159  0.1394  0.4471  0.1718
 9926TIP3    H153973   3.687   3.624   2.068 -0.4469  1.5111 -0.2364
 9926TIP3    H253974   3.733   3.595   2.210  1.6015  0.9569 -0.9769
 9927TIP3   OH253975   5.030   5.842   0.921 -0.0084  0.1374 -0.6223
 9927TIP3    H153976   5.077   5.836   0.837 -1.1890  1.3659 -1.4118
 9927TIP3    H253977   5.052   5.929   0.954  0.3594 -0.3003  0.3087
 9928TIP3   OH253978   3.926   6.461   1.001 -0.3336 -0.1601 -0.2844
 9928TIP3    H153979   3.965   6.478   1.087  0.0952  1.4935 -0.7768
 9928TIP3    H253980   3.849   6.518   0.998 -1.0368 -1.1023 -0.5452
 9929TIP3   OH253981   3.198   2.852   1.609  0.0342 -0.0611 -0.5094
 9929TIP3    H153982   3.213   2.835   1.702  1.3217  2.1056 -0.2580
 9929TIP3    H253983   3.278   2.821   1.566 -0.6676 -1.3098 -0.9723
 9930TIP3   OH253984   3.638   3.135   2.964 -0.4311 -0.0502  0.0581
 9930TIP3    H153985   3.673   3.080   2.894  0.2398  1.2112 -0.6229
 9930TIP3    H253986   3.551   3.099   2.981 -0.3067 -0.8546 -0.8830
 9931TIP3   OH253987   2.041   3.010   2.236 -0.5430 -0.0549  0.1086
 9931TIP3    H153988   2.114   2.991   2.296 -1.4048 -0.0509  1.1849
 9931TIP3    H253989   2.042   3.105   2.226  0.6371 -0.1672 -1.2622
 9932TIP3   OH253990   2.083   1.444   0.678 -0.5246  1.0486 -0.6203
 9932TIP3    H153991   2.137   1.375   0.718 -0.1291  1.8377  0.2608
 9932TIP3    H253992   2.053   1.406   0.596  0.0956  0.0077 -0.3927
 9933TIP3   OH253993   0.043   3.706   0.783  1.0398  0.7782  0.7044
 9933TIP3    H153994   0.110   3.639   0.766  0.0335 -0.7175  2.3204
 9933TIP3    H253995   0.050   3.766   0.709  2.1919 -0.9533 -0.6728
 9934TIP3   OH253996   6.267   0.921   3.158 -0.6137  0.2070 -0.4049
 9934TIP3    H153997   6.311   0.839   3.179 -0.5717 -0.0421 -1.4106
 9934TIP3    H253998   6.338   0.985   3.150 -0.7503  0.7474  1.9781
 9935TIP3   OH253999   1.171   3.917   1.141 -0.6948 -0.1534  0.0351
 9935TIP3    H154000   1.233   3.921   1.214 -0.2305  0.4049 -0.3805
 9935TIP3    H254001   1.225   3.894   1.065 -0.9702  0.4745 -0.3576
 9936TIP3   OH254002   2.018   1.646   3.159  0.2322  0.3474 -0.3119
 9936TIP3    H154003   2.066   1.729   3.158  0.9543 -0.0535  0.2297
 9936TIP3    H254004   2.067   1.591   3.219  0.8172 -1.0935 -2.0090
 9937TIP3   OH254005   4.019   6.725   3.154  0.2444  0.8041 -0.0642
 9937TIP3    H154006   4.051   6.757   3.070 -0.2840  2.2525  0.2443
 9937TIP3    H254007   3.986   6.804   3.198  0.6499  0.1104  1.5569
 9938TIP3   OH254008   0.555   4.628   2.866  0.6203  0.0628  0.2212
 9938TIP3    H154009   0.561   4.627   2.962 -2.9028 -0.3831  0.5754
 9938TIP3    H254010   0.568   4.720   2.843  1.9169  0.1147  1.0629
 9939TIP3   OH254011   6.271   3.192   1.441  0.2086  0.2319  0.5248
 9939TIP3    H154012   6.263   3.282   1.407 -2.1629  0.5131  1.6437
 9939TIP3    H254013   6.236   3.197   1.530  0.3864 -1.7517  0.7473
 9940TIP3   OH254014   0.764   4.732   1.032 -0.5317 -0.1246 -0.4185
 9940TIP3    H154015   0.854   4.705   1.054 -1.0005 -0.0047  1.8948
 9940TIP3    H254016   0.724   4.652   0.998  0.0254 -0.6155  0.0289
 9941TIP3   OH254017   0.273   4.834   4.004 -0.0134 -0.1949  0.7727
 9941TIP3    H154018   0.350   4.792   3.965  0.1294  0.9603 -0.2321
 9941TIP3    H254019   0.306   4.918   4.037 -0.3737 -0.6735  2.4096
 9942TIP3   OH254020   6.537   3.719   1.853 -0.0798 -0.3273 -0.0088
 9942TIP3    H154021   6.625   3.686   1.835  0.4570  0.0546  1.6796
 9942TIP3    H254022   6.484   3.641   1.867 -0.4255 -0.6250 -2.5260
 9943TIP3   OH254023   0.560   6.390   0.948  0.4084 -0.1867 -0.1456
 9943TIP3    H154024   0.552   6.354   1.036 -0.6718  0.0449 -0.1339
 9943TIP3    H254025   0.470   6.411   0.923  0.9217  1.8601 -0.4209
 9944TIP3   OH254026   0.271   3.990   2.774 -0.1284  0.2893  0.1748
 9944TIP3    H154027   0.274   3.895   2.761  1.3600  0.2754  0.5038
 9944TIP3    H254028   0.291   4.001   2.867 -1.3892  0.8815  0.3947
 9945TIP3   OH254029   2.561   3.789   2.789 -0.2666 -0.1756  0.4636
 9945TIP3    H154030   2.473   3.776   2.823  0.0803 -1.7254  0.8230
 9945TIP3    H254031   2.572   3.721   2.723  1.3017 -1.2195  1.7301
 9946TIP3   OH254032   2.931   6.654   1.940 -0.2699  0.1134  0.1994
 9946TIP3    H154033   2.837   6.647   1.960 -0.7943  0.2336 -1.9480
 9946TIP3    H254034   2.963   6.564   1.940  0.2922  0.1932  3.4960
 9947TIP3   OH254035   5.203   0.796   3.327  0.7412 -0.1005  0.1962
 9947TIP3    H154036   5.108   0.801   3.331  0.7984  0.4308  2.3110
 9947TIP3    H254037   5.231   0.887   3.316  1.0099 -0.0736  1.0110
 9948TIP3   OH254038   4.357   0.452   1.257 -0.3753  0.1008 -0.0499
 9948TIP3    H154039   4.392   0.442   1.168 -0.1432 -0.2847  0.0836
 9948TIP3    H254040   4.264   0.431   1.248 -0.9173  2.4564 -0.6749
 9949TIP3   OH254041   1.248   5.287   2.235 -0.4531 -0.5488  0.1323
 9949TIP3    H154042   1.188   5.294   2.160  0.7114  0.5236 -0.7300
 9949TIP3    H254043   1.217   5.353   2.297 -0.8873 -0.8356  0.2278
 9950TIP3   OH254044   5.049   1.407   2.489  0.4696  0.0461 -0.4683
 9950TIP3    H154045   4.990   1.451   2.428  1.6769  2.2543 -0.1570
 9950TIP3    H254046   5.028   1.444   2.575  0.5856 -1.0538  0.0566
 9951TIP3   OH254047   1.631   5.514   1.894 -0.0753  0.3617  0.2091
 9951TIP3    H154048   1.539   5.521   1.920 -0.3597 -1.6834 -0.0716
 9951TIP3    H254049   1.679   5.560   1.963 -1.0729 -1.5996  2.3477
 9952TIP3   OH254050   0.936   6.103   0.769 -0.2576 -0.0180 -0.4054
 9952TIP3    H154051   0.929   6.156   0.689  0.6156  0.0394 -0.4465
 9952TIP3    H254052   1.027   6.112   0.796 -0.6120  0.2088  0.7704
 9953TIP3   OH254053   4.653   1.125   3.659 -0.1917 -0.2242 -0.4044
 9953TIP3    H154054   4.591   1.052   3.655 -0.8733  0.2186  1.2724
 9953TIP3    H254055   4.615   1.192   3.602 -2.1022  0.6037  1.7055
 9954TIP3   OH254056   2.600   2.658   2.762 -0.2881  0.3001  0.5722
 9954TIP3    H154057   2.539   2.672   2.834 -0.7248  0.5869  0.1532
 9954TIP3    H254058   2.547   2.621   2.692 -0.1224  1.1503 -0.0223
 9955TIP3   OH254059   0.907   0.418   1.508  0.1777  0.6193  0.0476
 9955TIP3    H154060   0.848   0.345   1.487  0.3205  1.0226 -1.9522
 9955TIP3    H254061   0.849   0.487   1.540 -0.1312  0.1670  0.4837
 9956TIP3   OH254062   3.614   0.767   1.672 -0.3345 -0.4519  0.0015
 9956TIP3    H154063   3.659   0.843   1.708  1.2764 -2.4988  2.6657
 9956TIP3    H254064   3.658   0.749   1.589  1.0711 -0.0148  0.6304
 9957TIP3   OH254065   4.421   4.374   2.713  0.5327  0.6081  0.0271
 9957TIP3    H154066   4.381   4.363   2.627  1.4289  0.0525 -0.3333
 9957TIP3    H254067   4.408   4.466   2.734  0.2913  0.7443 -0.6874
 9958TIP3   OH254068   1.882   4.509   2.673  0.3133 -0.2081 -0.3240
 9958TIP3    H154069   1.965   4.556   2.674 -0.2277  0.7743  0.4068
 9958TIP3    H254070   1.890   4.443   2.743  0.6108 -0.3656 -0.5066
 9959TIP3   OH254071   2.609   3.058   4.115 -0.0003 -0.1160  0.1362
 9959TIP3    H154072   2.669   2.984   4.101 -0.8361 -1.0823  1.4195
 9959TIP3    H254073   2.531   3.034   4.064 -1.2793 -1.4369  2.5661
 9960TIP3   OH254074   0.481   2.087   3.379 -1.1225 -0.2324 -0.2152
 9960TIP3    H154075   0.523   2.002   3.388  0.1500  0.4964  1.3523
 9960TIP3    H254076   0.466   2.116   3.469  0.4106  2.0757 -0.6234
 9961TIP3   OH254077   4.672   2.844   1.374  0.0909  0.2283  1.1621
 9961TIP3    H154078   4.663   2.809   1.463 -2.9973 -0.3645  0.7298
 9961TIP3    H254079   4.644   2.935   1.381 -0.8519 -0.0193  0.6872
 9962TIP3   OH254080   2.779   3.894   1.978  0.0792 -0.0483  0.0771
 9962TIP3    H154081   2.840   3.821   1.983  0.1178  0.0315  1.0156
 9962TIP3    H254082   2.813   3.959   2.040 -0.6930  0.1793  0.2857
 9963TIP3   OH254083   3.866   6.471   4.017  0.6457 -0.7493 -0.1820
 9963TIP3    H154084   3.813   6.504   4.090  0.6630 -0.3842 -0.3336
 9963TIP3    H254085   3.895   6.385   4.046  0.8945 -0.4877  0.3684
 9964TIP3   OH254086   4.139   4.233   2.825 -1.3004 -0.1390 -0.2238
 9964TIP3    H154087   4.206   4.243   2.893 -0.4872  0.1407 -1.0474
 9964TIP3    H254088   4.056   4.235   2.872 -0.7390 -0.1552  0.7812
 9965TIP3   OH254089   2.327   4.558   1.860 -0.1888 -0.0218  0.6083
 9965TIP3    H154090   2.412   4.528   1.829 -0.2851  0.5181 -0.1828
 9965TIP3    H254091   2.265   4.493   1.827 -0.0045 -0.8761  1.8891
 9966TIP3   OH254092   3.070   6.078   3.791  0.3050 -0.2231 -0.0671
 9966TIP3    H154093   3.021   6.019   3.733  0.1833 -0.5658  0.3703
 9966TIP3    H254094   3.090   6.024   3.868 -1.1907  0.7257  1.0565
 9967TIP3   OH254095   2.014   0.538   2.906 -0.7781  0.2493  0.0196
 9967TIP3    H154096   2.069   0.487   2.965 -1.0369  0.1739  0.1988
 9967TIP3    H254097   1.933   0.553   2.955  0.2145  3.0180  0.9818
 9968TIP3   OH254098   5.221   3.901   2.190  0.4026  0.0589  1.0143
 9968TIP3    H154099   5.194   3.915   2.281  1.7794  0.4489  1.3926
 9968TIP3    H254100   5.289   3.834   2.195 -0.4930 -0.9385  0.0955
 9969TIP3   OH254101   3.597   3.947   1.614  0.0548  0.1004 -0.3563
 9969TIP3    H154102   3.611   4.004   1.538 -1.2857  1.2543  0.2058
 9969TIP3    H254103   3.525   3.890   1.588 -0.0081  0.0941 -0.1688
 9970TIP3   OH254104   2.351   3.793   2.057 -0.1968 -0.7062  0.1062
 9970TIP3    H154105   2.323   3.744   2.134  0.7704 -1.9340 -0.2974
 9970TIP3    H254106   2.269   3.826   2.019 -0.8271 -1.5835  0.6666
 9971TIP3   OH254107   2.953   4.061   2.110 -0.3749 -0.2826 -0.5831
 9971TIP3    H154108   2.977   4.100   2.026  1.1651 -1.6430 -0.8327
 9971TIP3    H254109   3.037   4.039   2.151 -1.1323 -0.7466  0.7694
 9972TIP3   OH254110   1.239   2.087   1.615  0.0561  0.1249 -0.3992
 9972TIP3    H154111   1.175   2.039   1.564 -0.6771  0.7826 -0.1220
 9972TIP3    H254112   1.197   2.172   1.633 -0.3350 -0.5708  2.4926
 9973TIP3   OH254113   3.155   5.691   1.685 -0.3369 -0.1957  0.1113
 9973TIP3    H154114   3.194   5.622   1.738  2.3549 -0.3662 -1.9123
 9973TIP3    H254115   3.081   5.648   1.641 -0.5352 -0.9381  1.1333
 9974TIP3   OH254116   3.848   0.134   3.961 -0.1023  0.5157 -0.0944
 9974TIP3    H154117   3.806   0.106   3.880  2.0930 -2.0002 -0.4904
 9974TIP3    H254118   3.893   0.216   3.938 -2.1261  1.5976 -0.4468
 9975TIP3   OH254119   4.726   0.972   1.752  0.0750  0.5951 -0.3375
 9975TIP3    H154120   4.675   1.043   1.715 -0.0175  0.7341  0.0466
 9975TIP3    H254121   4.767   1.010   1.830 -1.3417 -0.2128  0.8588
 9976TIP3   OH254122   1.000   3.698   1.353  0.2296  0.4600  0.3860
 9976TIP3    H154123   1.094   3.684   1.362  0.3731  1.3476  0.4246
 9976TIP3    H254124   0.988   3.791   1.372 -0.9074 -0.0324  2.3006
 9977TIP3   OH254125   1.883   5.465   2.559 -0.0602 -0.2229 -0.4466
 9977TIP3    H154126   1.907   5.468   2.652 -3.6244  1.4120  0.6041
 9977TIP3    H254127   1.932   5.537   2.519  1.8246 -1.2016  0.0427
 9978TIP3   OH254128   5.371   2.049   1.251  0.5703  0.0136  0.7580
 9978TIP3    H154129   5.332   2.007   1.174 -0.0436 -0.1255  1.1341
 9978TIP3    H254130   5.330   2.136   1.253  2.6967  1.1327 -0.6918
 9979TIP3   OH254131   5.616   4.735   3.218  0.5285 -0.2778  0.5231
 9979TIP3    H154132   5.601   4.724   3.124  0.1507 -0.1842  0.5721
 9979TIP3    H254133   5.678   4.808   3.224  0.6028 -0.3260  0.3454
 9980TIP3   OH254134   5.824   2.785   2.906 -0.1596  0.3195  0.0631
 9980TIP3    H154135   5.892   2.845   2.876 -1.4368  1.3067 -0.9956
 9980TIP3    H254136   5.802   2.734   2.828 -0.6288 -0.0002  0.3995
 9981TIP3   OH254137   5.558   3.351   0.679  0.1213  0.1373 -0.2961
 9981TIP3    H154138   5.539   3.264   0.714  0.8623 -0.2083 -0.7209
 9981TIP3    H254139   5.527   3.348   0.589  0.4872  0.1840 -0.4266
 9982TIP3   OH254140   0.468   6.084   2.457  0.0468  0.4640 -0.3684
 9982TIP3    H154141   0.491   6.027   2.530  1.1927 -0.0155 -1.0792
 9982TIP3    H254142   0.381   6.117   2.479 -0.7358 -1.6853  0.0059
 9983TIP3   OH254143   3.570   4.023   3.121 -0.2066 -0.2592  0.0421
 9983TIP3    H154144   3.578   3.999   3.213  0.0535  1.2681  0.4543
 9983TIP3    H254145   3.658   4.009   3.085  0.7497  2.5540  0.9703
 9984TIP3   OH254146   0.742   3.769   0.803  0.3195 -0.2562 -0.0078
 9984TIP3    H154147   0.781   3.723   0.729 -0.5683  0.5622 -1.0248
 9984TIP3    H254148   0.816   3.797   0.857  0.9280 -1.5712 -0.1404
 9985TIP3   OH254149   5.618   4.687   2.289  0.2327 -0.0201 -0.2666
 9985TIP3    H154150   5.657   4.635   2.219  0.2551  0.4372 -0.5971
 9985TIP3    H254151   5.589   4.623   2.354  2.1258 -0.3344  0.3140
 9986TIP3   OH254152   1.619   2.337   2.170  0.3720  0.9041 -0.1074
 9986TIP3    H154153   1.622   2.415   2.114  0.1492 -0.6415 -2.3847
 9986TIP3    H254154   1.548   2.284   2.133  1.9874 -1.4105 -0.0499
 9987TIP3   OH254155   4.746   2.922   2.996  0.8663  0.2287  0.1702
 9987TIP3    H154156   4.711   2.833   3.005  2.3272 -0.5578 -1.4260
 9987TIP3    H254157   4.677   2.978   3.030  0.1481 -1.5346  1.7961
 9988TIP3   OH254158   6.727   1.089   0.499  0.3557  0.0919 -0.1212
 9988TIP3    H154159   6.762   1.156   0.557 -0.5127 -1.3824  2.2569
 9988TIP3    H254160   6.664   1.135   0.444  2.8018  1.9581 -1.5664
 9989TIP3   OH254161   6.685   4.035   3.261 -0.0057 -0.0513 -0.4527
 9989TIP3    H154162   6.606   4.004   3.306 -0.7201  0.2799 -1.4481
 9989TIP3    H254163   6.747   4.056   3.331 -0.9164 -0.0108  0.3469
 9990TIP3   OH254164   3.264   0.986   2.209 -0.3648  0.5045 -0.0213
 9990TIP3    H154165   3.326   1.057   2.225  0.7529 -0.5578  0.5722
 9990TIP3    H254166   3.319   0.909   2.195 -1.5420 -0.2498 -0.6797
 9991TIP3   OH254167   5.576   3.756   2.060 -0.1865  0.4511  0.3907
 9991TIP3    H154168   5.592   3.666   2.031 -1.2628 -0.0009  1.1431
 9991TIP3    H254169   5.511   3.747   2.130  1.1421  1.6428  1.8361
 9992TIP3   OH254170   2.651   6.069   4.960 -0.3654  0.1352 -0.2044
 9992TIP3    H154171   2.745   6.075   4.944 -0.6383  2.0191 -1.3065
 9992TIP3    H254172   2.626   5.985   4.922  0.5816  0.4052 -1.4936
 9993TIP3   OH254173   6.079   3.342   2.402  0.4502  0.2186 -0.1568
 9993TIP3    H154174   6.032   3.369   2.323 -0.2718  1.5242  0.6855
 9993TIP3    H254175   6.170   3.328   2.372  0.3201  1.2505 -1.1012
 9994TIP3   OH254176   5.134   3.382   1.117 -0.0419 -0.1255  0.9183
 9994TIP3    H154177   5.067   3.379   1.186 -1.4120  1.1115 -0.2651
 9994TIP3    H254178   5.201   3.441   1.151 -1.2200  1.3365  0.8394
 9995TIP3   OH254179   1.206   6.524   3.342  0.1558 -0.2814 -0.0339
 9995TIP3    H154180   1.192   6.529   3.437  0.6031  0.9063 -0.0105
 9995TIP3    H254181   1.300   6.513   3.333  0.2033  0.3534 -0.3504
 9996TIP3   OH254182   4.139   2.253   2.746  0.5061  0.2833  0.1891
 9996TIP3    H154183   4.177   2.268   2.659  2.1179 -0.5471  0.7132
 9996TIP3    H254184   4.134   2.340   2.785  2.4950  0.3622  0.3264
 9997TIP3   OH254185   4.557   0.820   2.338 -0.2299 -0.5016 -0.0932
 9997TIP3    H154186   4.471   0.852   2.365  0.0730  1.0009 -0.8321
 9997TIP3    H254187   4.547   0.800   2.245  0.9828  2.7885 -1.0772
 9998TIP3   OH254188   3.474   2.878   3.489 -0.3394  0.3701 -0.4303
 9998TIP3    H154189   3.497   2.960   3.533 -0.5870  0.5630 -0.6608
 9998TIP3    H254190   3.541   2.816   3.518  0.1668  0.7911 -0.6753
 9999TIP3   OH254191   6.695   2.400   0.967 -0.1969 -0.1507  0.2282
 9999TIP3    H154192   6.633   2.368   1.033 -0.1343 -2.9780 -0.9421
 9999TIP3    H254193   6.781   2.376   1.001 -0.0945 -0.6634 -0.3794
10000TIP3   OH254194   0.247   3.519   0.730  0.2559 -0.1377 -0.1219
10000TIP3    H154195   0.335   3.551   0.711  0.5176  0.1715  1.5338
10000TIP3    H254196   0.257   3.425   0.742  0.1411 -0.2875 -1.1067
10001TIP3   OH254197   3.768   3.183   3.890  0.6181  0.1085 -0.0970
10001TIP3    H154198   3.774   3.147   3.979  0.6039 -2.0593 -0.9394
10001TIP3    H254199   3.856   3.216   3.872  1.1211 -1.1352  0.0397
10002TIP3   OH254200   0.289   0.173   2.700 -0.0371  0.1000 -0.2392
10002TIP3    H154201   0.234   0.204   2.628 -0.7894  1.8836  1.0416
10002TIP3    H254202   0.247   0.205   2.779  1.2686 -1.0260  0.9783
10003TIP3   OH254203   5.405   3.397   2.227  0.5432  0.5489  0.4667
10003TIP3    H154204   5.355   3.316   2.224  1.7348 -0.1930 -2.0245
10003TIP3    H254205   5.485   3.374   2.276  1.1759 -0.0196 -0.7849
10004TIP3   OH254206   2.528   2.018   3.167  0.0462  0.3373  0.0861
10004TIP3    H154207   2.618   2.042   3.144  0.2199  0.4185  0.8277
10004TIP3    H254208   2.526   1.923   3.159 -0.2354  0.4427 -1.4172
10005TIP3   OH254209   5.143   2.195   2.956  0.1593  0.1544  0.6958
10005TIP3    H154210   5.122   2.184   2.864 -0.0716  0.5231  0.7002
10005TIP3    H254211   5.058   2.200   3.000  0.2633  0.3756  0.8758
10006TIP3   OH254212   3.565   3.297   2.687 -0.0464  0.4233 -0.6678
10006TIP3    H154213   3.475   3.286   2.657 -0.5895  0.9846  0.6863
10006TIP3    H254214   3.592   3.210   2.715 -0.3106  0.3327 -0.6899
10007TIP3   OH254215   0.994   1.954   2.783  0.4013 -0.6840  0.2030
10007TIP3    H154216   1.045   1.933   2.705 -0.6732 -2.8600  0.0245
10007TIP3    H254217   1.024   1.891   2.849 -0.0806 -0.1492  0.9457
10008TIP3   OH254218   0.655   5.609   2.190  0.0671  0.1560  0.2894
10008TIP3    H154219   0.699   5.655   2.262  1.3277  0.8854 -0.9054
10008TIP3    H254220   0.649   5.674   2.120 -1.7449 -0.3392 -0.0669
10009TIP3   OH254221   4.523   1.499   1.358  0.3334 -0.2918  0.2548
10009TIP3    H154222   4.477   1.570   1.311  1.1451 -1.0231 -1.7819
10009TIP3    H254223   4.597   1.543   1.400  0.0803  0.2695  0.1333
10010TIP3   OH254224   3.784   2.008   0.491  0.0222  0.1754  0.9304
10010TIP3    H154225   3.867   2.030   0.449 -0.1922 -0.2030  0.2948
10010TIP3    H254226   3.806   1.995   0.584  0.6080  0.4105  0.8273
10011TIP3   OH254227   4.799   1.096   0.790 -0.2446  0.5374 -0.2923
10011TIP3    H154228   4.880   1.137   0.759 -0.1454  0.7503  0.2366
10011TIP3    H254229   4.742   1.169   0.814 -0.7073  0.3937 -0.9281
10012TIP3   OH254230   1.987   0.621   3.634 -0.2188 -0.9716 -0.1474
10012TIP3    H154231   1.951   0.675   3.563 -0.9041 -0.3185  0.6613
10012TIP3    H254232   2.016   0.685   3.699  0.6681 -1.5522  0.0374
10013TIP3   OH254233   0.851   1.961   1.906  0.2310 -0.2067  0.4362
10013TIP3    H154234   0.783   2.002   1.961  1.1373 -0.2213  1.6117
10013TIP3    H254235   0.819   1.973   1.817 -1.1152  0.1656  0.9314
10014TIP3   OH254236   1.544   6.345   3.527 -0.2983 -0.1162 -0.0955
10014TIP3    H154237   1.497   6.333   3.610  1.5938  1.6633  1.3155
10014TIP3    H254238   1.496   6.415   3.483 -0.3654  0.0612  0.2527
10015TIP3   OH254239   5.432   5.271   1.051 -0.4426 -0.3599  0.0628
10015TIP3    H154240   5.341   5.281   1.079 -0.6887  1.2183 -1.1719
10015TIP3    H254241   5.458   5.358   1.021  1.4222 -0.8236  0.1963
10016TIP3   OH254242   1.268   5.452   0.704 -0.2128 -0.0792  0.2253
10016TIP3    H154243   1.311   5.368   0.688  0.6230  0.1056  1.3665
10016TIP3    H254244   1.186   5.447   0.654  0.1866 -1.2531 -0.3479
10017TIP3   OH254245   1.798   5.201   1.520  0.8896 -0.4806 -0.1608
10017TIP3    H154246   1.734   5.263   1.554  1.8909 -1.0409  3.0961
10017TIP3    H254247   1.746   5.133   1.478 -0.2940  1.7462 -2.5801
10018TIP3   OH254248   3.128   0.685   1.783 -0.1481 -0.0180 -0.1057
10018TIP3    H154249   3.196   0.719   1.726  2.7524 -0.8299  2.5887
10018TIP3    H254250   3.098   0.605   1.739  2.3141 -0.8799 -0.4032
10019TIP3   OH254251   5.407   5.397   3.597  0.0883 -0.1581  0.5649
10019TIP3    H154252   5.489   5.446   3.597 -0.4420  0.7869 -0.9356
10019TIP3    H254253   5.365   5.422   3.679  0.1747  1.3475  0.1800
10020TIP3   OH254254   0.000   1.052   3.172  0.0919 -0.7810 -0.2261
10020TIP3    H154255   0.032   1.094   3.252  1.9346 -2.9788  0.3119
10020TIP3    H254256   0.060   1.082   3.103 -0.5655 -0.0690 -0.5008
10021TIP3   OH254257   6.194   5.054   2.889 -0.4372  0.2757 -0.1980
10021TIP3    H154258   6.265   5.074   2.827 -0.4272  0.5762 -0.0915
10021TIP3    H254259   6.235   4.998   2.955 -0.9315 -1.8320 -1.5736
10022TIP3   OH254260   4.730   4.889   1.137  0.4326  0.2004  0.2107
10022TIP3    H154261   4.810   4.941   1.128  1.2466 -0.7565  1.5823
10022TIP3    H254262   4.736   4.851   1.224 -1.4719 -0.0075  0.2751
10023TIP3   OH254263   0.937   3.221   0.779 -0.2223  0.4027  0.1659
10023TIP3    H154264   0.881   3.257   0.710  0.8534 -0.2158 -1.0679
10023TIP3    H254265   0.997   3.293   0.801 -0.1480  0.3992 -0.0208
10024TIP3   OH254266   4.517   2.450   1.492  0.2466 -0.1649 -0.0856
10024TIP3    H154267   4.460   2.525   1.510 -0.7091 -0.7760 -0.4691
10024TIP3    H254268   4.597   2.489   1.456  0.4490  0.7673  1.3031
10025TIP3   OH254269   4.980   6.429   2.899 -0.4588 -0.1022 -0.5565
10025TIP3    H154270   4.967   6.476   2.981 -1.5048  1.0479 -1.3285
10025TIP3    H254271   4.924   6.351   2.907 -2.2225  1.0485 -0.9243
10026TIP3   OH254272   2.773   2.830   1.575 -0.4764  0.0749  0.4339
10026TIP3    H154273   2.775   2.861   1.665 -0.2856  1.7486 -0.0901
10026TIP3    H254274   2.735   2.743   1.579 -0.3229  0.0671  2.1372
10027TIP3   OH254275   3.923   0.219   2.613  0.0826 -0.2194  0.0077
10027TIP3    H154276   3.887   0.304   2.589  1.5039  0.7036  0.9772
10027TIP3    H254277   3.917   0.216   2.708 -0.2621 -1.3625 -0.0375
10028TIP3   OH254278   3.802   1.375   1.870  0.1670 -0.5140 -0.0315
10028TIP3    H154279   3.850   1.351   1.791  0.3071  0.5429 -0.2870
10028TIP3    H254280   3.744   1.301   1.887  1.7223 -1.7364  0.1627
10029TIP3   OH254281   0.397   4.820   3.052 -0.0397 -0.3231 -0.5404
10029TIP3    H154282   0.375   4.735   3.089 -0.1813 -0.5737 -1.1969
10029TIP3    H254283   0.328   4.839   2.990  0.8048 -0.4549 -1.5492
10030TIP3   OH254284   6.048   4.750   0.821  0.0704  0.0264  0.5967
10030TIP3    H154285   6.042   4.748   0.917  2.1713 -1.4308  0.7517
10030TIP3    H254286   6.121   4.693   0.800  0.8383  1.7256 -1.8100
10031TIP3   OH254287   4.466   6.257   2.678  0.2988  0.0308 -0.0988
10031TIP3    H154288   4.373   6.237   2.670 -0.0066  1.2328  0.1387
10031TIP3    H254289   4.506   6.222   2.599 -0.1989 -1.2742  0.2048
10032TIP3   OH254290   2.404   0.637   3.086 -0.4124 -0.5398 -0.0768
10032TIP3    H154291   2.492   0.666   3.113 -0.5340  2.5846 -2.4086
10032TIP3    H254292   2.418   0.552   3.045  1.5516 -0.1490 -0.3167
10033TIP3   OH254293   3.957   6.409   3.192 -1.0015  0.1693 -0.4106
10033TIP3    H154294   3.869   6.373   3.203 -1.6229  1.7516  0.0572
10033TIP3    H254295   3.944   6.503   3.186  0.5126  0.3193 -2.2181
10034TIP3   OH254296   3.171   1.828   0.525  0.0972 -0.1554  0.2571
10034TIP3    H154297   3.077   1.810   0.538 -0.2990  1.8079  0.4566
10034TIP3    H254298   3.209   1.743   0.507 -1.6178 -1.1164  0.8801
10035TIP3   OH254299   5.792   0.661   2.632  0.1137  0.3715  0.0345
10035TIP3    H154300   5.763   0.575   2.601  1.0547  0.1058 -0.1511
10035TIP3    H254301   5.730   0.722   2.592 -0.2768 -0.1798 -0.2303
10036TIP3   OH254302   1.178   3.186   2.243 -0.5195  0.0306 -0.3287
10036TIP3    H154303   1.234   3.111   2.222  0.0867  0.0442  1.1052
10036TIP3    H254304   1.231   3.263   2.219 -0.9769  0.0250 -1.4082
10037TIP3   OH254305   1.383   2.250   2.118 -0.9655 -0.2037  0.3670
10037TIP3    H154306   1.298   2.272   2.081 -1.0318  0.6118  1.0003
10037TIP3    H254307   1.366   2.230   2.210 -0.0337  3.4627  1.4827
10038TIP3   OH254308   1.907   1.640   0.731  0.5378  0.4583 -0.2877
10038TIP3    H154309   1.887   1.602   0.816  2.3189 -0.5908 -0.2797
10038TIP3    H254310   1.971   1.580   0.693 -1.1035  0.2037 -2.9125
10039TIP3   OH254311   0.541   4.584   2.471  0.3400 -0.4908  0.2348
10039TIP3    H154312   0.470   4.521   2.484 -0.8284  0.0258 -2.7495
10039TIP3    H254313   0.574   4.564   2.383  3.7972 -0.5427  1.4165
10040TIP3   OH254314   0.534   3.375   0.893  0.4031 -0.1385 -0.0867
10040TIP3    H154315   0.464   3.317   0.863  1.0195 -0.4936 -0.8617
10040TIP3    H254316   0.529   3.371   0.988 -1.2230  0.5659 -0.1006
10041TIP3   OH254317   2.799   3.028   3.837 -1.0800 -0.0311  0.1514
10041TIP3    H154318   2.763   3.102   3.788  0.7392 -0.6511 -2.2797
10041TIP3    H254319   2.725   2.968   3.848 -1.4609 -0.1261 -2.4061
10042TIP3   OH254320   6.518   5.370   2.453  0.1292 -0.8185  0.2393
10042TIP3    H154321   6.432   5.350   2.490  0.8793 -2.3329  1.2933
10042TIP3    H254322   6.552   5.285   2.425  0.7530 -0.0651 -1.3931
10043TIP3   OH254323   1.281   1.077   0.685 -0.2944  0.2102  0.5328
10043TIP3    H154324   1.186   1.063   0.686 -0.4875  1.2999 -0.2410
10043TIP3    H254325   1.296   1.133   0.608  1.0522 -0.4758  0.2657
10044TIP3   OH254326   1.662   2.192   0.560  1.1324 -0.2840 -0.0003
10044TIP3    H154327   1.660   2.104   0.597  1.8114 -0.4644 -0.3592
10044TIP3    H254328   1.592   2.239   0.604  1.0673 -0.8732  0.5376
10045TIP3   OH254329   2.647   1.911   0.995 -0.4773 -0.4578 -0.0673
10045TIP3    H154330   2.661   2.000   0.961 -0.1854 -0.0633  1.0397
10045TIP3    H254331   2.582   1.873   0.936 -1.3801  0.8509  0.0338
10046TIP3   OH254332   2.055   6.554   1.377 -0.2451  0.2187 -0.0610
10046TIP3    H154333   2.050   6.589   1.288  0.5754  2.0321  0.5492
10046TIP3    H254334   1.991   6.483   1.379 -0.3988  0.2540 -2.0322
10047TIP3   OH254335   2.396   1.742   3.269 -0.3010 -0.0663  0.1547
10047TIP3    H154336   2.443   1.698   3.198 -0.0019  1.1820 -0.4495
10047TIP3    H254337   2.426   1.698   3.348  2.7695  1.3205 -0.0908
10048TIP3   OH254338   1.157   0.321   2.833  0.2873 -0.8051  0.3190
10048TIP3    H154339   1.223   0.280   2.889  0.0578 -1.8978 -0.1895
10048TIP3    H254340   1.208   0.362   2.762  0.5206 -0.1257  0.8652
10049TIP3   OH254341   0.352   4.163   1.245 -0.1611  0.2495  0.0813
10049TIP3    H154342   0.359   4.258   1.261  1.0792  0.0431  0.8866
10049TIP3    H254343   0.258   4.149   1.231 -0.7357  1.2443  2.3941
10050TIP3   OH254344   3.642   3.783   1.906 -0.1117  0.1303  0.1883
10050TIP3    H154345   3.608   3.738   1.829  0.0808 -1.4644  0.9926
10050TIP3    H254346   3.565   3.805   1.958 -0.1160 -0.9974  0.6863
10051TIP3   OH254347   2.471   2.200   2.800  0.4194  0.6257  0.5823
10051TIP3    H154348   2.457   2.155   2.716  1.0353  1.0782  0.2356
10051TIP3    H254349   2.413   2.154   2.861 -0.2393  0.4665 -0.1467
10052TIP3   OH254350   5.528   4.600   1.781  0.4084  0.6817 -0.1767
10052TIP3    H154351   5.461   4.535   1.802 -0.5494  2.2413  2.0102
10052TIP3    H254352   5.529   4.603   1.685 -0.4607 -1.5289 -0.3286
10053TIP3   OH254353   3.444   2.775   1.159  0.1879 -0.0173  0.0690
10053TIP3    H154354   3.396   2.704   1.202 -0.8248  1.1197  0.8800
10053TIP3    H254355   3.405   2.855   1.194  0.8229  0.9531 -1.3467
10054TIP3   OH254356   1.141   3.774   2.307 -0.3789  0.5774 -0.5130
10054TIP3    H154357   1.059   3.749   2.350  0.3009 -0.9951 -0.0378
10054TIP3    H254358   1.159   3.862   2.340 -1.8052  0.9221 -0.5564
10055TIP3   OH254359   3.022   0.961   2.071 -0.1107 -0.0239  0.1056
10055TIP3    H154360   3.105   0.937   2.112  1.2945 -2.3715 -3.5754
10055TIP3    H254361   2.955   0.932   2.133  1.8006 -2.0289  1.3812
10056TIP3   OH254362   3.495   1.007   0.498  0.6130  0.2342  0.1348
10056TIP3    H154363   3.580   1.041   0.470 -0.8690  3.3137 -1.0710
10056TIP3    H254364   3.431   1.068   0.462 -2.1688 -1.8921  1.0566
10057TIP3   OH254365   4.559   6.053   3.455 -0.0954 -0.3848 -0.3938
10057TIP3    H154366   4.550   6.041   3.550  0.0546 -1.7595 -0.5279
10057TIP3    H254367   4.548   6.147   3.441 -0.7172 -0.2401  0.9238
10058TIP3   OH254368   4.228   6.510   0.932 -0.1587  0.0577 -0.3028
10058TIP3    H154369   4.146   6.483   0.973 -0.1547  0.2716 -0.1535
10058TIP3    H254370   4.217   6.604   0.917 -0.2757 -0.0718 -1.0583
10059TIP3   OH254371   6.325   1.106   0.800  0.4748 -0.3274 -0.6042
10059TIP3    H154372   6.235   1.120   0.772 -0.5516 -0.0056  2.4582
10059TIP3    H254373   6.324   1.020   0.842  0.7575  0.8535  2.0550
10060TIP3   OH254374   5.689   0.272   0.634 -0.0005  0.3592 -0.0116
10060TIP3    H154375   5.723   0.359   0.614  0.2664 -0.0017 -1.1625
10060TIP3    H254376   5.633   0.286   0.710  0.1354  1.5149 -0.1033
10061TIP3   OH254377   1.422   6.480   1.188 -0.1400 -0.2229 -0.1265
10061TIP3    H154378   1.462   6.503   1.104  3.0694  0.3342  1.4059
10061TIP3    H254379   1.387   6.392   1.175  0.0396 -0.0440 -2.0952
10062TIP3   OH254380   5.455   6.680   0.680 -0.3299  0.3283 -0.1381
10062TIP3    H154381   5.468   6.586   0.684  0.1940  0.4089  0.1130
10062TIP3    H254382   5.541   6.716   0.660 -0.6625  0.7129 -0.9348
10063TIP3   OH254383   5.059   4.957   0.555  0.4229 -0.7606 -0.5523
10063TIP3    H154384   5.035   4.969   0.647  2.1437  3.1022 -0.3959
10063TIP3    H254385   5.151   4.931   0.557  0.0421 -2.2610 -1.2250
10064TIP3   OH254386   5.591   6.076   2.193 -0.3400 -0.1281  0.0855
10064TIP3    H154387   5.567   6.067   2.100  0.0864  2.3069 -0.3132
10064TIP3    H254388   5.684   6.052   2.196 -0.1238  0.6399 -0.2884
10065TIP3   OH254389   5.847   4.975   1.144 -0.3459  0.4961  0.1495
10065TIP3    H154390   5.889   5.033   1.081 -1.1576  1.6938  0.6733
10065TIP3    H254391   5.816   5.033   1.213 -0.9204 -0.6028  0.8454
10066TIP3   OH254392   0.068   1.007   2.295  0.0234 -0.2956 -0.1830
10066TIP3    H154393   0.112   1.062   2.360  0.6371 -0.1011 -0.7533
10066TIP3    H254394   0.073   0.918   2.332 -0.3729 -0.0705  0.4213
10067TIP3   OH254395   0.818   6.491   1.025  0.8211 -0.1681 -0.2792
10067TIP3    H154396   0.739   6.477   0.973 -0.5030  1.2551  1.2338
10067TIP3    H254397   0.837   6.585   1.015  1.2726 -0.1341  0.7853
10068TIP3   OH254398   5.342   4.838   0.589 -0.0858  0.1483 -0.1240
10068TIP3    H154399   5.415   4.826   0.651  1.4224  1.3925 -1.5718
10068TIP3    H254400   5.327   4.751   0.553  0.7804 -0.1140  0.1188
10069TIP3   OH254401   5.293   6.720   2.836 -0.4748 -0.2499 -0.0819
10069TIP3    H154402   5.295   6.687   2.926  1.3077  0.9833  0.3935
10069TIP3    H254403   5.261   6.810   2.845 -1.6962 -0.5790 -0.8965
10070TIP3   OH254404   4.317   5.925   3.616 -0.2298  0.3892 -0.0178
10070TIP3    H154405   4.294   5.838   3.648 -0.6869 -0.3150 -2.0991
10070TIP3    H254406   4.411   5.933   3.630  0.4194 -1.7210 -2.5100
10071TIP3   OH254407   6.581   6.750   0.965  0.4752 -0.8665  0.0855
10071TIP3    H154408   6.627   6.757   0.881  0.5778 -1.5689  0.0738
10071TIP3    H254409   6.489   6.738   0.940  0.1652  1.1479  0.1165
10072TIP3   OH254410   1.176   0.756   0.557  0.6740 -1.1141 -0.9179
10072TIP3    H154411   1.103   0.748   0.619  1.1222 -1.4302 -0.4314
10072TIP3    H254412   1.248   0.709   0.598  1.2245 -0.6139 -1.2961
10073TIP3   OH254413   1.525   6.327   2.520 -0.1568  0.1154  0.8708
10073TIP3    H154414   1.470   6.261   2.562  0.0520  0.9034  2.4536
10073TIP3    H254415   1.479   6.409   2.534  0.4265  0.5260  0.4230
10074TIP3   OH254416   5.234   2.426   1.471  0.0728  0.5166  0.0800
10074TIP3    H154417   5.244   2.481   1.549 -3.4397  1.1205  0.2861
10074TIP3    H254418   5.242   2.336   1.504  1.7651  0.7985  0.5083
10075TIP3   OH254419   0.656   5.802   2.445 -0.1160  0.3234 -0.8597
10075TIP3    H154420   0.746   5.800   2.412 -0.2809 -0.6051 -1.3009
10075TIP3    H254421   0.662   5.846   2.530  0.5412  1.4844 -1.4840
10076TIP3   OH254422   2.271   4.459   0.906  0.2576 -0.5425 -0.3670
10076TIP3    H154423   2.216   4.535   0.886  0.8699  0.4056  1.2918
10076TIP3    H254424   2.280   4.462   1.001  0.5782 -2.5279 -0.3112
10077TIP3   OH254425   2.748   3.148   0.551 -0.2102  0.2057  0.2329
10077TIP3    H154426   2.731   3.239   0.525  0.5739 -0.1012 -1.4445
10077TIP3    H254427   2.699   3.138   0.633  1.7812  2.9219  1.9121
10078TIP3   OH254428   2.757   5.685   2.661  0.2165  0.3308  0.7919
10078TIP3    H154429   2.754   5.755   2.596  0.1425  1.5231  2.0372
10078TIP3    H254430   2.841   5.696   2.705 -0.1739  0.1865  1.5934
10079TIP3   OH254431   4.814   3.526   1.024 -0.4130 -0.4031 -1.0340
10079TIP3    H154432   4.803   3.444   0.977 -2.2561 -0.9821  0.2921
10079TIP3    H254433   4.765   3.590   0.972  0.1344 -0.3537 -1.5009
10080TIP3   OH254434   5.272   1.062   3.299 -0.1360  0.2257 -0.3354
10080TIP3    H154435   5.250   1.115   3.375  2.1802 -0.4997  0.9645
10080TIP3    H254436   5.307   1.124   3.235  1.6019  0.4508  0.7739
10081TIP3   OH254437   6.240   1.958   0.776  0.1594  0.8398  0.1185
10081TIP3    H154438   6.157   1.971   0.731  0.1386  1.4966  0.3438
10081TIP3    H254439   6.288   2.040   0.765  0.3134  0.8753  0.9522
10082TIP3   OH254440   6.461   1.876   1.406  0.2218  0.4900  0.5633
10082TIP3    H154441   6.511   1.908   1.331 -1.0700 -0.6624 -0.8667
10082TIP3    H254442   6.504   1.794   1.429  0.1138  0.4219  0.5243
10083TIP3   OH254443   4.075   5.621   3.573  0.6303 -0.4431 -0.1614
10083TIP3    H154444   4.039   5.573   3.647 -0.4401 -0.2943 -0.5805
10083TIP3    H254445   4.168   5.595   3.571  1.5366  1.8599  3.1311
10084TIP3   OH254446   6.503   1.226   2.534 -0.0037 -0.0093 -0.0278
10084TIP3    H154447   6.513   1.301   2.594 -1.6555  0.6764 -0.5653
10084TIP3    H254448   6.472   1.265   2.452  0.2464 -1.1731 -0.6998
10085TIP3   OH254449   6.126   2.104   2.307  0.3390 -0.1230  0.3277
10085TIP3    H154450   6.061   2.046   2.347  0.8035  0.4894  2.0754
10085TIP3    H254451   6.200   2.102   2.368  1.4300  0.2300 -0.9500
10086TIP3   OH254452   6.114   1.483   2.675  0.5525  0.8843 -0.1403
10086TIP3    H154453   6.050   1.551   2.694 -1.0022 -0.3420 -0.8006
10086TIP3    H254454   6.199   1.525   2.690 -0.3921  1.9912  2.7102
10087TIP3   OH254455   5.505   1.512   2.515  0.4203  0.0633 -0.0101
10087TIP3    H154456   5.421   1.515   2.562  0.4086 -0.7454  0.0379
10087TIP3    H254457   5.541   1.425   2.537  0.9800  0.1632 -0.5264
10088TIP3   OH254458   3.335   3.841   0.697 -0.2685  0.1028  0.1711
10088TIP3    H154459   3.334   3.811   0.788 -0.6950 -0.3179  0.0352
10088TIP3    H254460   3.354   3.762   0.646  0.4002  0.4179 -0.0801
10089TIP3   OH254461   2.470   6.256   2.399  0.4899 -0.2512  0.1914
10089TIP3    H154462   2.432   6.190   2.458  0.9223 -0.0745  0.6792
10089TIP3    H254463   2.445   6.340   2.437  1.9896 -0.1126  0.9852
10090TIP3   OH254464   2.615   5.062   1.162 -0.3982  0.6713 -0.1226
10090TIP3    H154465   2.525   5.090   1.174 -0.2391  1.6048 -0.9627
10090TIP3    H254466   2.615   5.013   1.080 -0.0567  1.1681 -0.4311
10091TIP3   OH254467   2.072   1.647   1.027 -0.1858  0.2023  0.2626
10091TIP3    H154468   2.128   1.668   0.952  0.6595  0.6459  1.0065
10091TIP3    H254469   2.035   1.732   1.053  0.6380  0.2825  1.2158
10092TIP3   OH254470   4.003   2.619   3.214  0.1785  0.0123 -0.0774
10092TIP3    H154471   4.058   2.673   3.158  0.2449 -2.4348 -2.6105
10092TIP3    H254472   4.061   2.548   3.242 -1.3438 -2.3341 -2.3828
10093TIP3   OH254473   2.853   0.642   2.674 -0.4955 -0.2939 -0.6041
10093TIP3    H154474   2.808   0.717   2.714 -0.3532 -0.5929  0.1464
10093TIP3    H254475   2.914   0.681   2.612 -1.6433  0.1346 -1.5066
10094TIP3   OH254476   2.771   1.366   1.573 -0.3567  0.2831 -0.4163
10094TIP3    H154477   2.680   1.394   1.576  0.0966  1.8961 -0.4974
10094TIP3    H254478   2.787   1.342   1.482 -0.9691 -1.1037 -0.1890
10095TIP3   OH254479   5.047   0.469   2.319 -0.3356 -0.4014 -0.8693
10095TIP3    H154480   4.993   0.501   2.247  0.9549 -0.1607 -1.7831
10095TIP3    H254481   5.068   0.547   2.370 -0.6940 -0.4643 -0.6263
10096TIP3   OH254482   4.055   5.464   1.325 -0.4266  0.1606 -0.4073
10096TIP3    H154483   3.988   5.477   1.258 -1.2756 -0.8720  0.2092
10096TIP3    H254484   4.075   5.371   1.321 -0.7326  0.0171  0.9928
10097TIP3   OH254485   0.633   3.591   1.589 -0.5659 -0.1075  0.4866
10097TIP3    H154486   0.726   3.583   1.612 -0.4232 -1.0958 -0.3349
10097TIP3    H254487   0.587   3.582   1.672  0.0134 -1.5909  0.6772
10098TIP3   OH254488   4.554   6.749   1.634  0.2260 -0.3096 -0.5306
10098TIP3    H154489   4.477   6.735   1.579  0.4782  2.0348 -1.5994
10098TIP3    H254490   4.549   6.842   1.659 -0.0212 -1.2545  3.7260
10099TIP3   OH254491   1.136   3.472   3.264  0.1632 -0.0925 -1.1136
10099TIP3    H154492   1.126   3.566   3.245  1.4161  0.2551 -0.2048
10099TIP3    H254493   1.219   3.449   3.222 -0.5814 -1.0382 -2.1197
10100TIP3   OH254494   5.121   0.199   0.921  0.0980 -0.6090  0.1801
10100TIP3    H154495   5.150   0.275   0.971 -0.1357 -0.4140  0.0196
10100TIP3    H254496   5.199   0.143   0.915  0.8361  0.5311 -1.4195
10101TIP3   OH254497   6.334   1.178   2.850  1.0252  0.5342 -0.1605
10101TIP3    H154498   6.386   1.170   2.770  0.5650 -2.4991 -0.2668
10101TIP3    H254499   6.244   1.179   2.820  0.7993 -1.7045  0.2741
10102TIP3   OH254500   1.321   4.737   2.917  0.0547 -0.2469 -0.4012
10102TIP3    H154501   1.399   4.763   2.868 -0.1045  1.8271  0.3295
10102TIP3    H254502   1.253   4.725   2.851 -0.2893  2.9644 -0.7977
10103TIP3   OH254503   2.094   6.573   3.505 -0.7814  0.3117 -0.3013
10103TIP3    H154504   2.133   6.537   3.426 -1.3095 -0.5371 -0.1917
10103TIP3    H254505   2.164   6.572   3.570 -0.2802  1.2316 -0.8050
10104TIP3   OH254506   2.284   6.685   0.762 -0.6267 -0.0431  0.1145
10104TIP3    H154507   2.321   6.692   0.674  0.0266 -1.5874  0.2339
10104TIP3    H254508   2.354   6.649   0.815 -1.1192  0.5766  1.2175
10105TIP3   OH254509   3.653   2.910   1.044 -0.3772 -0.0941  0.0006
10105TIP3    H154510   3.577   2.865   1.081 -0.5367 -0.1273 -0.3557
10105TIP3    H254511   3.624   3.001   1.033 -0.0635  0.0970  0.6967
10106TIP3   OH254512   5.281   3.667   1.132  0.9960  0.1227  0.2643
10106TIP3    H154513   5.359   3.613   1.119  0.1783 -2.1069  3.4123
10106TIP3    H254514   5.304   3.724   1.206  0.4005  1.1678 -0.3308
10107TIP3   OH254515   2.960   0.192   3.391  0.0880 -0.4549  0.5036
10107TIP3    H154516   3.039   0.160   3.434 -0.1238 -1.1320  0.4062
10107TIP3    H254517   2.888   0.163   3.448 -0.2335 -1.8942 -0.5940
10108TIP3   OH254518   5.616   6.030   3.357 -0.0147  0.1700  0.1591
10108TIP3    H154519   5.650   6.082   3.284 -0.4149  0.6320  0.2899
10108TIP3    H254520   5.690   5.977   3.386  0.3580  0.5399 -0.0956
10109TIP3   OH254521   4.474   2.340   2.857 -1.0447 -0.3549 -0.3110
10109TIP3    H154522   4.431   2.424   2.841 -3.2817 -1.0248  1.5584
10109TIP3    H254523   4.475   2.333   2.953 -1.4981 -2.7046 -0.4291
10110TIP3   OH254524   4.395   5.300   3.684 -0.2027  0.4191 -0.3914
10110TIP3    H154525   4.393   5.246   3.762 -1.6180  0.3855 -0.4179
10110TIP3    H254526   4.310   5.344   3.683  0.9831  2.9023 -0.1981
10111TIP3   OH254527   3.109   5.691   3.139  0.0300  0.0134  0.0386
10111TIP3    H154528   3.125   5.598   3.156 -0.1759 -0.1175 -0.4479
10111TIP3    H254529   3.171   5.737   3.195  1.6162 -0.4660 -1.2431
10112TIP3   OH254530   0.884   1.700   1.984  0.1732  0.6066  0.3481
10112TIP3    H154531   0.870   1.792   1.964  0.2431  0.5694  0.1260
10112TIP3    H254532   0.796   1.663   1.988  0.1683  0.1699 -1.9884
10113TIP3   OH254533   1.930   4.839   4.473  0.1915 -0.4544  0.0610
10113TIP3    H154534   1.937   4.752   4.433  0.6062 -0.4494  0.1154
10113TIP3    H254535   1.977   4.897   4.413  0.0312 -0.2906  0.0932
10114TIP3   OH254536   3.165   3.289   1.351  0.0779  0.2225  0.7034
10114TIP3    H154537   3.109   3.336   1.412  2.9758  3.0151  1.4488
10114TIP3    H254538   3.246   3.273   1.399  1.1152 -0.8571 -1.2540
10115TIP3   OH254539   6.342   6.539   2.355 -0.2012 -0.1939  0.0736
10115TIP3    H154540   6.331   6.529   2.260  1.6258 -0.6038 -0.1320
10115TIP3    H254541   6.399   6.615   2.365 -0.6679  0.0608  0.8638
10116TIP3   OH254542   6.787   0.285   0.493 -0.1097 -0.1989 -0.0210
10116TIP3    H154543   6.847   0.275   0.419 -0.7620  1.3556 -0.7901
10116TIP3    H254544   6.840   0.261   0.569  0.5790 -1.8344 -0.9432
10117TIP3   OH254545   1.477   5.987   1.122  0.3083 -0.0403 -0.4145
10117TIP3    H154546   1.487   5.893   1.131 -4.0464 -0.5041  2.8929
10117TIP3    H254547   1.508   6.023   1.205 -0.8315  1.0274 -0.4162
10118TIP3   OH254548   4.334   5.201   2.791  0.0054 -0.4762 -0.3883
10118TIP3    H154549   4.424   5.179   2.813 -0.0254  0.1114  0.3702
10118TIP3    H254550   4.284   5.181   2.871 -0.3396  0.3435 -0.3900
10119TIP3   OH254551   3.197   1.477   4.409 -0.1564 -0.2227 -0.7199
10119TIP3    H154552   3.151   1.418   4.469  3.9149 -3.5901 -0.4153
10119TIP3    H254553   3.181   1.439   4.322 -0.2068  0.2718 -0.9281
10120TIP3   OH254554   4.968   5.732   2.870 -0.3108  0.3476  0.5570
10120TIP3    H154555   4.976   5.779   2.953 -2.1246 -0.1488  1.0393
10120TIP3    H254556   4.997   5.643   2.889 -0.3501  0.3357  0.5620
10121TIP3   OH254557   0.850   0.088   2.774 -0.2523 -0.8000  0.4654
10121TIP3    H154558   0.819   0.066   2.686 -0.2307  0.2106  0.1909
10121TIP3    H254559   0.858   0.183   2.773 -1.0118 -0.7069  1.8221
10122TIP3   OH254560   3.907   5.492   3.776 -0.7849  0.4926 -0.5559
10122TIP3    H154561   3.881   5.561   3.837 -0.0230  0.9661 -0.7562
10122TIP3    H254562   3.877   5.411   3.818 -3.6043  1.0466 -1.2986
10123TIP3   OH254563   1.952   3.250   1.448  0.4252 -0.0101 -0.2330
10123TIP3    H154564   1.859   3.250   1.429  0.2923 -0.9677  0.3277
10123TIP3    H254565   1.978   3.342   1.442 -0.8343  0.4552  0.9027
10124TIP3   OH254566   2.207   2.950   2.454  0.2481 -0.7608 -1.0423
10124TIP3    H154567   2.240   2.988   2.535  0.8581  1.0334 -2.0757
10124TIP3    H254568   2.190   2.858   2.475  1.8607 -0.7117  0.6770
10125TIP3   OH254569   3.053   3.804   2.303 -0.3024  0.2908  0.6660
10125TIP3    H154570   3.096   3.722   2.277 -0.9165  0.0954  0.2559
10125TIP3    H254571   3.122   3.854   2.347 -0.0049 -0.5801  1.2178
10126TIP3   OH254572   4.562   3.547   1.443  0.3118  0.4492 -0.2208
10126TIP3    H154573   4.607   3.622   1.482 -0.8729  1.4834 -0.7630
10126TIP3    H254574   4.616   3.523   1.367  0.1607  1.4368 -0.6586
10127TIP3   OH254575   5.300   3.503   1.429 -0.3784  0.1970  0.8592
10127TIP3    H154576   5.334   3.469   1.346  0.0396  1.8578  0.3256
10127TIP3    H254577   5.377   3.542   1.472 -0.9063  0.7623  1.3026
10128TIP3   OH254578   5.051   2.395   1.702  0.1716 -0.6186  0.2844
10128TIP3    H154579   5.083   2.394   1.792  3.6040  0.3572 -0.7812
10128TIP3    H254580   5.081   2.312   1.665  2.3829  0.6412 -0.9579
10129TIP3   OH254581   3.058   1.263   2.142  0.1211 -0.0098 -0.2350
10129TIP3    H154582   3.149   1.279   2.118 -0.6629  1.1515 -2.8307
10129TIP3    H254583   3.045   1.169   2.128  0.8200 -0.1189 -0.1834
10130TIP3   OH254584   2.932   4.079   1.604 -0.1440  0.3044  0.4092
10130TIP3    H154585   2.885   4.025   1.540 -0.2234  0.3593  0.4203
10130TIP3    H254586   2.978   4.144   1.551  1.5218 -0.9426  0.2480
10131TIP3   OH254587   2.756   3.849   3.569 -0.2936  0.2735 -0.0392
10131TIP3    H154588   2.663   3.831   3.585  0.3594 -1.3148  2.6341
10131TIP3    H254589   2.795   3.763   3.555  1.0738  0.7108  0.9321
10132TIP3   OH254590   2.760   6.219   2.450 -0.0697  0.3284 -0.0015
10132TIP3    H154591   2.790   6.302   2.415  0.1482  0.5535  0.7090
10132TIP3    H254592   2.665   6.230   2.460  0.2542  1.4466  2.5265
10133TIP3   OH254593   3.143   4.398   2.939 -0.0849 -0.0633  0.2901
10133TIP3    H154594   3.172   4.426   2.852 -3.3644 -3.2242 -2.1366
10133TIP3    H254595   3.191   4.318   2.956 -0.2191 -0.0214  0.8843
10134TIP3   OH254596   4.072   6.132   1.783 -0.3184  0.4760 -0.2761
10134TIP3    H154597   4.093   6.093   1.868 -1.2686  0.8285  0.1398
10134TIP3    H254598   4.102   6.223   1.790  0.6566  0.2049 -0.7518
10135TIP3   OH254599   0.741   3.010   2.646 -0.0098 -0.4885 -0.9283
10135TIP3    H154600   0.829   3.036   2.672  0.2661 -0.1266 -2.1478
10135TIP3    H254601   0.686   3.028   2.722  0.7280  0.6906 -0.6658
10136TIP3   OH254602   4.213   4.611   1.473  0.5712 -0.2380  0.1098
10136TIP3    H154603   4.165   4.622   1.391 -2.1462 -2.0562  1.2999
10136TIP3    H254604   4.242   4.520   1.473 -1.2393 -0.9029  1.9203
10137TIP3   OH254605   1.175   6.674   1.444 -0.1757  0.3645 -0.4312
10137TIP3    H154606   1.138   6.761   1.436  0.2633  0.3982 -2.5247
10137TIP3    H254607   1.240   6.682   1.515 -1.4879  1.2071  0.7285
10138TIP3   OH254608   3.791   4.625   3.194  0.0022  0.3530  0.5881
10138TIP3    H154609   3.819   4.715   3.213  1.0612 -0.0280  0.9435
10138TIP3    H254610   3.872   4.580   3.169 -0.8473  0.0471 -1.9065
10139TIP3   OH254611   0.814   5.608   3.572  0.5792 -0.0437  0.3036
10139TIP3    H154612   0.762   5.543   3.620  2.0088 -1.2143  0.3594
10139TIP3    H254613   0.863   5.655   3.640  0.4920  0.2229  0.1809
10140TIP3   OH254614   1.862   4.897   1.245 -0.5887 -0.5217  0.1758
10140TIP3    H154615   1.808   4.963   1.202 -0.7979 -0.2651  0.8185
10140TIP3    H254616   1.812   4.816   1.238 -1.5531 -0.1008  1.6271
10141TIP3   OH254617   1.301   1.568   1.962  0.3672 -0.0159 -0.6684
10141TIP3    H154618   1.352   1.648   1.945 -0.0092  0.5416  0.7238
10141TIP3    H254619   1.367   1.499   1.965  0.8376  0.4209 -0.6561
10142TIP3   OH254620   0.127   6.661   2.135 -0.2408 -0.3165  0.1928
10142TIP3    H154621   0.127   6.566   2.143  0.8634 -0.5199 -1.7283
10142TIP3    H254622   0.096   6.678   2.046 -3.0346  1.2893  1.3316
10143TIP3   OH254623   3.700   0.012   2.954  0.0224  0.5702  0.3050
10143TIP3    H154624   3.733  -0.068   2.915  2.0640  0.5425  1.8980
10143TIP3    H254625   3.676  -0.012   3.044 -2.1720  1.1493 -0.0619
10144TIP3   OH254626   1.183   1.180   1.330  0.1087 -0.9287 -0.4253
10144TIP3    H154627   1.212   1.256   1.381  0.6518 -1.9463  0.8149
10144TIP3    H254628   1.228   1.190   1.246 -0.2272  0.3816 -0.4763
10145TIP3   OH254629   3.536   2.315   2.570 -0.1647  0.7494 -0.0613
10145TIP3    H154630   3.577   2.264   2.639 -0.8847 -1.0528 -0.9060
10145TIP3    H254631   3.445   2.328   2.599  0.3708  2.9606  0.8549
10146TIP3   OH254632   1.043   1.808   1.743  0.1932  0.0267 -0.2070
10146TIP3    H154633   1.045   1.891   1.790  0.0481 -0.0117 -0.1340
10146TIP3    H254634   1.017   1.744   1.809  3.8724 -0.7265  0.7810
10147TIP3   OH254635   0.702   3.993   1.677 -0.0428 -0.0055 -0.4175
10147TIP3    H154636   0.783   3.956   1.712 -0.5892  0.9215  2.0424
10147TIP3    H254637   0.685   3.943   1.597  0.7391 -3.0969  1.2053
10148TIP3   OH254638   5.937   0.727   3.332 -0.4049  0.0332 -0.0037
10148TIP3    H154639   5.951   0.693   3.420 -0.9415  1.4241  0.6493
10148TIP3    H254640   5.973   0.815   3.335 -1.9089  0.7033 -0.6724
10149TIP3   OH254641   0.228   4.984   2.893  0.3460 -0.3141 -0.3822
10149TIP3    H154642   0.146   5.009   2.850  0.1759 -0.5544 -0.1972
10149TIP3    H254643   0.262   5.065   2.930 -0.6540 -0.5021  0.9922
10150TIP3   OH254644   0.490   0.696   2.438 -0.8683  0.2494  0.0799
10150TIP3    H154645   0.451   0.639   2.503  0.1337 -2.3223 -1.4204
10150TIP3    H254646   0.582   0.704   2.465 -0.4452 -0.8352 -0.9156
10151TIP3   OH254647   0.426   6.182   0.414 -0.1306  0.2239 -1.2863
10151TIP3    H154648   0.440   6.276   0.430 -0.9145  0.0291  0.9488
10151TIP3    H254649   0.352   6.160   0.471  0.3816 -1.8634 -1.3697
10152TIP3   OH254650   1.091   6.220   1.233  0.3839 -0.2527  0.9771
10152TIP3    H154651   1.026   6.160   1.197  0.1444  0.0616  0.8830
10152TIP3    H254652   1.044   6.302   1.245  0.7844  0.0034  0.8235
10153TIP3   OH254653   3.929   0.993   1.633 -0.2607 -0.0635  0.2884
10153TIP3    H154654   3.850   1.041   1.609  0.2672  2.1022  2.4410
10153TIP3    H254655   3.898   0.926   1.694 -0.6272 -0.4524 -0.3107
10154TIP3   OH254656   4.071   0.305   1.157 -0.3176  0.0593 -0.2905
10154TIP3    H154657   4.077   0.267   1.069 -0.5321 -0.9982  0.1332
10154TIP3    H254658   3.987   0.275   1.191 -0.5741  1.0797  0.0085
10155TIP3   OH254659   1.418   1.384   0.679  0.4589  0.0038  1.1019
10155TIP3    H154660   1.477   1.409   0.608 -0.1441 -0.0787  0.5628
10155TIP3    H254661   1.476   1.369   0.753  1.1757 -0.5935  0.4441
10156TIP3   OH254662   3.733   5.484   3.523  0.5259 -0.0818  0.1630
10156TIP3    H154663   3.823   5.474   3.554  0.9239  1.0381 -0.5754
10156TIP3    H254664   3.690   5.536   3.591  0.3784 -0.7487  0.5917
10157TIP3   OH254665   0.913   3.536   1.566 -0.0683 -0.5571  0.1549
10157TIP3    H154666   0.953   3.577   1.489  0.4102  0.7303  1.0612
10157TIP3    H254667   0.987   3.501   1.615 -0.2972 -0.6119  0.4571
10158TIP3   OH254668   3.378   4.541   1.753  0.0927 -0.2045  0.3218
10158TIP3    H154669   3.382   4.600   1.828 -1.5497  1.1625 -0.5965
10158TIP3    H254670   3.305   4.574   1.700 -0.5053 -2.7148 -0.5563
10159TIP3   OH254671   3.335   0.795   3.730 -0.5173  0.0573 -0.6568
10159TIP3    H154672   3.359   0.703   3.740  0.6358  0.3288 -0.8163
10159TIP3    H254673   3.331   0.829   3.819  0.2488  0.1418 -0.6515
10160TIP3   OH254674   4.235   0.172   1.351 -0.5292  0.4796  0.4974
10160TIP3    H154675   4.200   0.221   1.276  3.2680  1.4173 -0.9222
10160TIP3    H254676   4.243   0.082   1.320 -1.7569  0.2020  0.9220
10161TIP3   OH254677   5.338   4.524   1.254  0.3793 -0.1220 -0.1687
10161TIP3    H154678   5.263   4.571   1.215  0.3271 -0.8846 -1.0194
10161TIP3    H254679   5.319   4.432   1.237 -0.5965 -0.6943  3.3408
10162TIP3   OH254680   3.594   3.697   3.553  0.3308 -0.4554  0.2124
10162TIP3    H154681   3.640   3.628   3.506  1.4392 -0.8274  1.7511
10162TIP3    H254682   3.595   3.668   3.645 -0.6090  0.8346  0.6624
10163TIP3   OH254683   6.072   0.840   2.968  0.6500  0.6331  0.4855
10163TIP3    H154684   6.118   0.884   3.040  2.3077  0.8676 -0.6631
10163TIP3    H254685   6.120   0.866   2.889 -0.8872  0.0832 -0.6878
10164TIP3   OH254686   1.939   2.259   2.546  0.3112  0.0931  0.0256
10164TIP3    H154687   1.860   2.313   2.541 -1.3554 -2.0284  1.4721
10164TIP3    H254688   1.923   2.187   2.485  1.5364  0.0928 -0.3156
10165TIP3   OH254689   0.386   1.916   1.418 -0.3647 -0.1573 -0.3392
10165TIP3    H154690   0.338   1.835   1.432 -2.1239  1.0116  0.8285
10165TIP3    H254691   0.478   1.892   1.430 -0.8973 -1.8363  0.6957
10166TIP3   OH254692   1.153   3.196   3.512 -0.3425  0.4468 -0.2191
10166TIP3    H154693   1.096   3.180   3.437 -0.3481 -1.4010  0.1495
10166TIP3    H254694   1.215   3.124   3.512  0.0026  0.7100  1.2407
10167TIP3   OH254695   0.405   3.960   3.465  0.0879  0.0783  0.3150
10167TIP3    H154696   0.497   3.989   3.466  0.6553 -1.5960 -0.2468
10167TIP3    H254697   0.410   3.865   3.457 -1.7124 -0.0960  0.8689
10168TIP3   OH254698   3.308   3.218   3.573 -0.1723  0.1606  0.4076
10168TIP3    H154699   3.242   3.262   3.519  0.0874  0.2594  0.1638
10168TIP3    H254700   3.385   3.213   3.516  0.9823  2.6346  1.6151
10169TIP3   OH254701   0.760   2.322   1.069 -0.3506 -0.4801 -0.6929
10169TIP3    H154702   0.779   2.408   1.105  0.6429  0.1342 -2.5875
10169TIP3    H254703   0.667   2.325   1.046 -0.0618  0.5323 -1.8324
10170TIP3   OH254704   2.581   6.186   2.691  0.6044 -0.1537  0.0056
10170TIP3    H154705   2.610   6.124   2.758  1.8713  0.0398 -0.3433
10170TIP3    H254706   2.542   6.258   2.740  1.4171 -0.0690  0.5504
10171TIP3   OH254707   3.426   6.529   4.254 -0.1908 -0.4940 -0.5943
10171TIP3    H154708   3.382   6.614   4.255 -1.4001 -1.1018 -0.6349
10171TIP3    H254709   3.358   6.466   4.277  0.8585 -1.3916  0.2099
10172TIP3   OH254710   2.345   0.262   3.658  0.3587 -0.7772  0.3888
10172TIP3    H154711   2.292   0.218   3.724  0.5915 -3.5303 -1.0888
10172TIP3    H254712   2.283   0.285   3.589  0.3875  0.4588  0.7561
10173TIP3   OH254713   1.666   3.008   3.162  0.0757 -0.4367  0.7488
10173TIP3    H154714   1.694   2.942   3.099 -0.1534  0.6445 -0.5445
10173TIP3    H254715   1.624   2.958   3.232  0.7933 -1.7166  0.2977
10174TIP3   OH254716   3.178   6.195   1.497  0.0458 -0.2139 -0.0649
10174TIP3    H154717   3.106   6.133   1.484 -0.5661  0.2145  1.0695
10174TIP3    H254718   3.138   6.268   1.544  0.7996  0.9629 -1.2061
10175TIP3   OH254719   3.088   5.629   4.290  0.0360 -0.1824 -0.3767
10175TIP3    H154720   3.061   5.713   4.327 -2.3646 -0.9624 -0.1733
10175TIP3    H254721   3.069   5.565   4.360  2.5743 -0.8766 -0.2056
10176TIP3   OH254722   0.653   6.722   3.414  0.1779  0.2446  0.3263
10176TIP3    H154723   0.633   6.807   3.455 -0.0696  1.4669 -2.1496
10176TIP3    H254724   0.578   6.667   3.435 -0.8973  1.4766 -0.1206
10177TIP3   OH254725   0.434   2.559   2.087  0.0516  0.3998  0.1864
10177TIP3    H154726   0.522   2.598   2.087  0.2584 -0.0494  0.6132
10177TIP3    H254727   0.385   2.612   2.149  0.1597  0.3534  0.3125
10178TIP3   OH254728   0.121   3.481   2.022  0.2551 -0.3284  0.4758
10178TIP3    H154729   0.094   3.425   1.949 -1.2856  1.0562 -0.0814
10178TIP3    H254730   0.066   3.559   2.014 -1.2015 -0.8202  4.1281
10179TIP3   OH254731   3.866   4.654   1.373  0.0071  0.2913 -0.2361
10179TIP3    H154732   3.826   4.569   1.390  0.6597  0.3646  1.8902
10179TIP3    H254733   3.930   4.637   1.303 -1.6862 -0.3783 -1.6848
10180TIP3   OH254734   2.247   6.035   1.784 -0.0247 -0.3542 -0.0955
10180TIP3    H154735   2.239   5.991   1.699  0.4410 -2.9298  1.1075
10180TIP3    H254736   2.163   6.079   1.796 -0.6300 -1.1280 -1.2848
10181TIP3   OH254737   4.982   2.136   1.078  0.2769 -0.1831  0.4447
10181TIP3    H154738   4.920   2.077   1.121 -1.3593  2.1130  1.5178
10181TIP3    H254739   4.998   2.097   0.992  0.2055 -2.6968  1.4987
10182TIP3   OH254740   2.972   0.011   3.636 -0.0335 -0.4629  0.0640
10182TIP3    H154741   2.880   0.036   3.646  0.3239  0.2998  1.9057
10182TIP3    H254742   3.019   0.068   3.697  1.4412 -2.1788  0.6234
10183TIP3   OH254743   2.715   3.854   0.925  0.4835  0.0345  0.6599
10183TIP3    H154744   2.692   3.763   0.944 -0.9978  0.0711 -0.7065
10183TIP3    H254745   2.655   3.906   0.978 -0.6325  0.1538 -0.6537
10184TIP3   OH254746   5.476   3.826   2.462 -0.0473 -0.0987 -0.2198
10184TIP3    H154747   5.543   3.836   2.529  2.0522 -2.1136 -1.8612
10184TIP3    H254748   5.408   3.773   2.504  0.8322 -0.6441  0.5591
10185TIP3   OH254749   3.857   0.567   2.929  0.1812 -0.1718  0.0144
10185TIP3    H154750   3.803   0.632   2.885 -0.1778 -0.9308 -0.6931
10185TIP3    H254751   3.908   0.526   2.859  0.1444 -0.8916  0.4004
10186TIP3   OH254752   0.957   2.221   2.820  0.2090 -0.1791  0.2727
10186TIP3    H154753   0.917   2.138   2.791  0.5477  0.0700 -0.9588
10186TIP3    H254754   1.004   2.198   2.900  0.4240 -1.2219 -0.1342
10187TIP3   OH254755   3.019   6.494   1.334 -0.3263 -0.1972  0.3738
10187TIP3    H154756   2.975   6.512   1.251 -1.4350 -0.1106  0.9678
10187TIP3    H254757   3.083   6.426   1.313 -0.5607 -0.1411 -0.5537
10188TIP3   OH254758   5.708   2.675   1.811 -0.1342  0.2265 -0.1409
10188TIP3    H154759   5.640   2.733   1.847 -0.6898  0.2636 -1.2369
10188TIP3    H254760   5.661   2.616   1.752  0.4939 -1.0906  0.6372
10189TIP3   OH254761   2.387   6.680   2.215 -0.0938  0.5761  0.6031
10189TIP3    H154762   2.380   6.768   2.179 -0.5305  0.2600 -0.1091
10189TIP3    H254763   2.340   6.625   2.152  2.6756 -0.6212 -0.5464
10190TIP3   OH254764   0.065   3.216   1.182  0.3030 -0.8883 -0.1119
10190TIP3    H154765   0.037   3.208   1.273  2.4950 -0.3171  0.6816
10190TIP3    H254766   0.160   3.199   1.184  0.1617 -2.5663 -2.5652
10191TIP3   OH254767   3.613   1.870   3.426 -0.1730  0.3693  0.5664
10191TIP3    H154768   3.547   1.827   3.481 -1.7534  1.1615 -0.6089
10191TIP3    H254769   3.618   1.960   3.460  0.6205  0.1983  0.9107
10192TIP3   OH254770   2.706   0.489   2.471  0.2098 -0.2378  0.1311
10192TIP3    H154771   2.777   0.433   2.502  1.4184  0.2196 -1.6896
10192TIP3    H254772   2.723   0.575   2.510  0.3979 -0.2378  0.0472
10193TIP3   OH254773   0.430   3.849   2.572  0.5577 -0.2563 -0.4898
10193TIP3    H154774   0.384   3.811   2.647 -0.6864 -0.0617 -1.1218
10193TIP3    H254775   0.471   3.928   2.607 -2.3314  1.4070 -0.5132
10194TIP3   OH254776   1.730   5.246   2.528 -1.0073  0.4810  0.3392
10194TIP3    H154777   1.783   5.325   2.540 -2.2132  1.2135  1.0525
10194TIP3    H254778   1.793   5.178   2.503 -0.0161  1.7743 -0.8164
10195TIP3   OH254779   5.738   2.096   1.293  0.0242  0.6628  0.2330
10195TIP3    H154780   5.784   2.013   1.277  0.0894  0.7656 -0.1132
10195TIP3    H254781   5.673   2.075   1.360 -0.3974  0.1758 -0.3191
10196TIP3   OH254782   5.662   5.334   1.195  0.0563  0.2601  0.0636
10196TIP3    H154783   5.722   5.401   1.163 -0.2856  0.9817  0.8951
10196TIP3    H254784   5.598   5.323   1.124 -0.3796  1.4447  0.2464
10197TIP3   OH254785   2.434   1.036   3.465  0.5445 -0.9843 -0.1771
10197TIP3    H154786   2.409   0.947   3.488  0.1251 -0.9528 -0.4908
10197TIP3    H254787   2.353   1.075   3.432  1.2580 -1.2569 -2.4006
10198TIP3   OH254788   3.416   2.799   0.479 -0.4479 -0.0873 -0.2748
10198TIP3    H154789   3.340   2.741   0.484 -0.1482 -0.5072 -0.5910
10198TIP3    H254790   3.483   2.756   0.532 -0.7517  0.8004  0.8768
10199TIP3   OH254791   4.869   0.120   0.526  0.0107 -0.1667  0.8932
10199TIP3    H154792   4.904   0.123   0.437  0.3098  1.0185  1.0362
10199TIP3    H254793   4.888   0.031   0.556  2.9116  0.3781  0.9420
10200TIP3   OH254794   4.362   5.148   1.057  0.5730  0.2274 -0.2044
10200TIP3    H154795   4.374   5.217   0.992  0.6736 -0.0243 -0.4576
10200TIP3    H254796   4.424   5.080   1.030  0.0726 -0.1985 -0.2879
10201TIP3   OH254797   5.885   5.948   3.964 -0.7412 -0.2375  0.6414
10201TIP3    H154798   5.940   5.940   4.042 -0.0468 -0.1769  0.1705
10201TIP3    H254799   5.886   6.042   3.944 -0.6996 -0.2865  0.4083
10202TIP3   OH254800   2.570   0.131   3.841 -0.1589 -0.2361 -0.1546
10202TIP3    H154801   2.628   0.207   3.854 -0.1502  0.1995 -2.3855
10202TIP3    H254802   2.495   0.149   3.898  0.9379  0.1954  1.2390
10203TIP3   OH254803   0.021   4.578   2.974 -0.5420  0.5426 -0.1997
10203TIP3    H154804   0.050   4.617   3.056  0.4104 -0.0721 -0.2255
10203TIP3    H254805  -0.024   4.498   3.000 -1.3345  0.9632 -0.2244
10204TIP3   OH254806   0.893   0.834   1.860  0.4365 -0.1732  0.2133
10204TIP3    H154807   0.803   0.866   1.862  0.9488  1.2707  1.4221
10204TIP3    H254808   0.898   0.773   1.933  1.0741  1.6632  1.7745
10205TIP3   OH254809   4.873   1.260   3.035  0.0704 -0.0059  1.0705
10205TIP3    H154810   4.858   1.201   2.961  0.4549  2.3486 -1.0028
10205TIP3    H254811   4.968   1.269   3.040  0.0413  2.9809 -0.9603
10206TIP3   OH254812   0.695   5.376   1.396 -0.2833 -0.0719  0.2902
10206TIP3    H154813   0.648   5.437   1.339 -2.0520 -1.0602  0.6089
10206TIP3    H254814   0.747   5.432   1.453 -0.9853  1.0940 -0.1687
10207TIP3   OH254815   2.535   5.795   1.688  0.0882  1.1450 -0.3151
10207TIP3    H154816   2.473   5.850   1.641  0.2111  0.5262 -1.2173
10207TIP3    H254817   2.483   5.721   1.720  0.6290 -0.4163 -2.7505
10208TIP3   OH254818   6.764   2.598   2.554 -0.6552  0.3822  0.7960
10208TIP3    H154819   6.680   2.556   2.572 -0.6957 -0.9853 -1.9830
10208TIP3    H254820   6.746   2.653   2.477  1.2633 -1.2130 -0.9009
10209TIP3   OH254821   1.631   1.675   2.130  0.3482 -0.3333 -0.5469
10209TIP3    H154822   1.701   1.662   2.067  0.4030 -0.5436 -0.4440
10209TIP3    H254823   1.640   1.602   2.192  0.2111 -0.2072 -0.3759
10210TIP3   OH254824   4.953   4.829   1.363 -0.5967 -0.4528  0.6261
10210TIP3    H154825   4.953   4.924   1.349 -0.0635 -0.4472  0.6428
10210TIP3    H254826   4.970   4.819   1.457  4.1162 -0.6049 -0.0107
10211TIP3   OH254827   5.193   6.501   1.506 -0.5639  0.2270 -0.7796
10211TIP3    H154828   5.151   6.547   1.578 -0.6673 -0.0403 -0.6667
10211TIP3    H254829   5.141   6.523   1.429 -2.3614 -1.9120 -0.3028
10212TIP3   OH254830   0.019   6.617   0.982 -0.1779 -0.3638 -0.1933
10212TIP3    H154831   0.017   6.555   1.056 -1.4080 -0.1052  0.0148
10212TIP3    H254832  -0.073   6.627   0.958  0.1612  0.0826 -1.3327
10213TIP3   OH254833   3.007   6.369   2.406  0.6088 -0.8373 -0.7281
10213TIP3    H154834   3.053   6.290   2.377  1.1591 -0.1229 -1.8817
10213TIP3    H254835   3.004   6.425   2.328 -2.7964 -1.0679 -0.9415
10214TIP3   OH254836   6.761   5.862   3.092  0.1936 -0.0286 -0.1160
10214TIP3    H154837   6.699   5.792   3.070 -0.4712  0.2273  0.8448
10214TIP3    H254838   6.792   5.839   3.180  2.2010 -0.6456 -0.9462
10215TIP3   OH254839   3.795   1.683   1.553 -0.1653 -0.0927  0.5402
10215TIP3    H154840   3.818   1.762   1.504 -1.7600 -1.0425 -1.8770
10215TIP3    H254841   3.873   1.665   1.606  0.9480  2.0266 -0.2434
10216TIP3   OH254842   5.787   3.945   1.600  0.0540  0.5719 -0.0054
10216TIP3    H154843   5.801   4.006   1.672  2.3733  0.6593 -0.4581
10216TIP3    H254844   5.736   3.995   1.536 -1.0025  0.8787  1.0473
10217TIP3   OH254845   4.421   4.601   3.469 -0.2596  0.7177  0.3810
10217TIP3    H154846   4.446   4.667   3.534  0.7317  0.0804  0.6694
10217TIP3    H254847   4.497   4.595   3.411  0.7525 -1.9137  1.7966
10218TIP3   OH254848   4.077   5.560   1.596  0.3756 -0.8492 -0.2256
10218TIP3    H154849   4.073   5.531   1.504  0.7065 -0.0136 -0.5163
10218TIP3    H254850   4.036   5.489   1.645  1.2367 -1.8539 -0.8974
10219TIP3   OH254851   2.292   1.480   1.404  0.1262  0.1894  0.0605
10219TIP3    H154852   2.346   1.479   1.483  0.5318 -1.4030 -0.1866
10219TIP3    H254853   2.218   1.424   1.424  1.5232 -2.4416 -1.4318
10220TIP3   OH254854   4.278   3.291   2.063  0.4514  0.1525  0.0090
10220TIP3    H154855   4.224   3.370   2.066  0.6961  0.3270 -0.1370
10220TIP3    H254856   4.220   3.221   2.092  0.0291  0.2734 -0.5193
10221TIP3   OH254857   3.730   3.415   2.023 -0.7444  0.0584  0.0460
10221TIP3    H154858   3.650   3.419   1.970 -0.9838  1.8407  0.4729
10221TIP3    H254859   3.708   3.355   2.095 -1.5071  0.0842 -0.1596
10222TIP3   OH254860   4.952   1.951   2.772 -0.0786 -0.0531  0.6450
10222TIP3    H154861   4.982   2.018   2.711 -0.0847 -0.7073 -0.0953
10222TIP3    H254862   5.031   1.928   2.822  0.1184 -0.1014  0.3149
10223TIP3   OH254863   0.965   1.725   2.573  0.6346  0.3515  0.5229
10223TIP3    H154864   1.015   1.736   2.654  2.1280  0.1628 -0.3341
10223TIP3    H254865   1.028   1.690   2.511 -0.4761  0.5127 -0.7375
10224TIP3   OH254866   2.581   4.634   0.645  0.3676 -0.0888 -0.0122
10224TIP3    H154867   2.530   4.701   0.599  1.9831  1.1094 -0.1502
10224TIP3    H254868   2.516   4.581   0.690 -1.0352  0.9628 -0.7249
10225TIP3   OH254869   2.491   4.563   3.004 -0.3537 -0.2046  0.3000
10225TIP3    H154870   2.421   4.504   2.975 -1.2044  0.2905  1.2744
10225TIP3    H254871   2.529   4.596   2.923 -1.0915 -0.6623 -0.2525
10226TIP3   OH254872   3.019   1.721   1.116  0.1654  0.5601  0.5893
10226TIP3    H154873   3.086   1.765   1.169  0.7343  0.5205 -0.0749
10226TIP3    H254874   3.058   1.717   1.029  0.0978 -1.1865  0.6024
10227TIP3   OH254875   3.574   1.373   3.581  0.1431 -0.1993 -0.5544
10227TIP3    H154876   3.583   1.283   3.612  0.3670  0.3034  0.9503
10227TIP3    H254877   3.603   1.427   3.655 -1.0363  1.1316 -1.0032
10228TIP3   OH254878   2.354   4.349   3.856 -0.0980  0.6543  0.2405
10228TIP3    H154879   2.284   4.407   3.888 -0.2940  1.4118 -1.4793
10228TIP3    H254880   2.312   4.264   3.847 -0.1476  0.5174  1.5224
10229TIP3   OH254881   2.844   1.922   0.760 -0.2623 -0.1061 -0.0060
10229TIP3    H154882   2.756   1.928   0.723  0.6373  0.2641 -2.2311
10229TIP3    H254883   2.891   1.861   0.702  1.0770  0.0144  0.8932
10230TIP3   OH254884   0.868   6.038   2.471 -0.0145  0.1405  0.3006
10230TIP3    H154885   0.798   6.081   2.422 -0.5407  0.0774  0.9780
10230TIP3    H254886   0.932   6.012   2.404 -1.0403 -0.5763 -0.4325
10231TIP3   OH254887   0.711   4.727   3.794  0.4923  0.0608  0.3531
10231TIP3    H154888   0.789   4.680   3.766  0.9375 -0.0184  1.6907
10231TIP3    H254889   0.736   4.771   3.875 -0.1190  2.0703 -0.4892
10232TIP3   OH254890   1.753   6.315   2.668 -0.0874  0.5212  0.0519
10232TIP3    H154891   1.756   6.238   2.723  1.0885  0.3006 -0.2818
10232TIP3    H254892   1.680   6.300   2.608  0.5889 -0.7003 -0.5073
10233TIP3   OH254893   6.056   2.599   3.894 -0.2621 -0.3350 -0.5733
10233TIP3    H154894   6.050   2.584   3.800  0.0886 -0.0771 -0.6386
10233TIP3    H254895   5.993   2.538   3.932 -1.1611  0.2824 -1.0350
10234TIP3   OH254896   1.205   1.151   2.890  0.5995 -0.3382 -0.3950
10234TIP3    H154897   1.251   1.158   2.974  0.1401 -1.2751 -0.0579
10234TIP3    H254898   1.159   1.067   2.894 -0.4516  0.1777 -1.0672
10235TIP3   OH254899   2.207   6.747   2.478 -0.5217  0.1060 -0.1193
10235TIP3    H154900   2.296   6.718   2.457  1.0745  2.3749  2.7202
10235TIP3    H254901   2.168   6.770   2.394  0.9836 -2.3029 -1.5931
10236TIP3   OH254902   0.375   5.822   1.939  0.0460 -0.4938  0.4495
10236TIP3    H154903   0.368   5.852   1.848  1.8805 -0.2718  0.3341
10236TIP3    H254904   0.291   5.781   1.957 -0.2410 -0.8563 -1.4692
10237TIP3   OH254905   5.276   0.824   1.135  0.2422 -0.6329 -0.1417
10237TIP3    H154906   5.281   0.755   1.201 -0.2025 -0.5504 -0.0180
10237TIP3    H254907   5.215   0.888   1.172  0.0509 -0.5478 -0.5953
10238TIP3   OH254908   4.178   5.510   2.476 -0.1783  0.3997 -0.4762
10238TIP3    H154909   4.272   5.500   2.493 -0.1405  2.0331  0.4698
10238TIP3    H254910   4.172   5.524   2.381  0.7986  2.4148 -0.2937
10239TIP3   OH254911   1.108   0.694   3.282  0.2660 -0.5620  0.0774
10239TIP3    H154912   1.070   0.635   3.347  1.1936 -0.5235  0.6835
10239TIP3    H254913   1.066   0.670   3.200 -0.1946 -1.2944  0.5130
10240TIP3   OH254914   0.532   2.939   1.810 -0.1923 -0.1118  0.4344
10240TIP3    H154915   0.578   2.878   1.751 -1.5884  0.1651 -1.0092
10240TIP3    H254916   0.576   3.023   1.796  0.7492 -0.4416  1.2922
10241TIP3   OH254917   5.163   0.619   3.114 -0.1304  0.5126 -0.5224
10241TIP3    H154918   5.191   0.706   3.144 -0.0243  0.0563  0.7647
10241TIP3    H254919   5.090   0.596   3.171 -0.1256 -0.2750 -0.8182
10242TIP3   OH254920   3.079   6.705   2.913 -0.5439  0.0266  0.1640
10242TIP3    H154921   3.142   6.766   2.952 -0.1937 -0.7430  0.8115
10242TIP3    H254922   3.037   6.663   2.988  0.5569 -1.9080 -0.2544
10243TIP3   OH254923   3.807   2.578   0.798  0.7526  0.1208 -0.3087
10243TIP3    H154924   3.850   2.567   0.883 -2.3791 -0.3059  1.3759
10243TIP3    H254925   3.795   2.488   0.767 -0.0666  0.1633 -0.1190
10244TIP3   OH254926   0.905   4.986   1.138  0.9400  0.4447  0.1106
10244TIP3    H154927   0.875   4.925   1.071  1.4565  0.4892 -0.1660
10244TIP3    H254928   0.889   4.940   1.221  2.9340 -0.8411 -0.1425
10245TIP3   OH254929   6.688   1.026   2.629  0.3928 -0.0516 -0.4989
10245TIP3    H154930   6.776   1.046   2.598  0.7925  0.0002  0.6494
10245TIP3    H254931   6.640   1.109   2.621  0.1754 -0.2767 -1.9231
10246TIP3   OH254932   5.977   6.041   2.964 -0.0329 -0.2249 -0.4119
10246TIP3    H154933   6.030   5.976   2.917 -0.3639 -0.6210 -0.2515
10246TIP3    H254934   5.889   6.030   2.928 -0.0685  0.2143 -0.4609
10247TIP3   OH254935   3.617   0.441   2.786 -0.1639 -0.1626 -0.3594
10247TIP3    H154936   3.692   0.391   2.815  0.2638 -0.1728 -1.4329
10247TIP3    H254937   3.551   0.376   2.762  0.1324 -0.2117 -1.0739
10248TIP3   OH254938   1.074   2.195   2.318 -0.0116 -0.1316 -0.4828
10248TIP3    H154939   1.103   2.223   2.405 -0.8718  0.5970 -0.4204
10248TIP3    H254940   1.019   2.119   2.334 -0.5822  0.3044 -0.3318
10249TIP3   OH254941   3.376   6.335   3.751 -0.1041  0.2453  0.3318
10249TIP3    H154942   3.423   6.261   3.787  1.3792  1.1467  0.3205
10249TIP3    H254943   3.350   6.387   3.827  0.9113  0.8947  0.2600
10250TIP3   OH254944   3.701   1.873   2.887 -0.1452 -0.2264  0.1808
10250TIP3    H154945   3.689   1.806   2.955  0.5171 -1.2788 -0.6911
10250TIP3    H254946   3.734   1.824   2.811 -1.8285  0.7512 -1.2455
10251TIP3   OH254947   3.287   5.856   3.272 -0.0711 -0.0677 -0.1708
10251TIP3    H154948   3.291   5.952   3.268  1.9134 -0.0234  1.2441
10251TIP3    H254949   3.366   5.827   3.227 -0.1262 -1.0078  0.3152
10252TIP3   OH254950   2.751   2.137   2.745  0.4515 -0.0022  0.6448
10252TIP3    H154951   2.662   2.167   2.763  0.2569  0.0356 -0.3204
10252TIP3    H254952   2.741   2.044   2.729  0.6387 -0.0561  0.8409
10253TIP3   OH254953   6.623   4.535   3.523 -0.0295 -1.0984 -0.4589
10253TIP3    H154954   6.665   4.491   3.450  1.7739 -0.8773  0.3953
10253TIP3    H254955   6.552   4.585   3.483  2.0454  0.5203 -2.3810
10254TIP3   OH254956   0.595   3.033   2.884 -0.5924  0.7493 -0.3050
10254TIP3    H154957   0.568   2.958   2.937 -1.2368  1.4286  0.3750
10254TIP3    H254958   0.651   3.084   2.943 -0.9037  1.2550 -0.4364
10255TIP3   OH254959   2.893   3.403   1.401  0.1373  0.4134 -0.1410
10255TIP3    H154960   2.843   3.352   1.338  1.0200 -0.6253 -0.0302
10255TIP3    H254961   2.899   3.490   1.362 -1.2768  0.4217 -0.3925
10256TIP3   OH254962   0.699   3.115   1.113 -0.3728 -0.1112 -0.1884
10256TIP3    H154963   0.790   3.106   1.141 -1.0402 -1.3468  1.7961
10256TIP3    H254964   0.684   3.210   1.109  0.9848  0.1049 -0.5641
10257TIP3   OH254965   2.596   5.033   2.265  0.0148 -0.8478  0.6688
10257TIP3    H154966   2.665   5.094   2.238 -0.0906 -1.0373 -0.0558
10257TIP3    H254967   2.643   4.963   2.309  0.5207 -1.8508 -1.3335
10258TIP3   OH254968   3.583   2.617   2.784  0.1339 -0.2293  0.2867
10258TIP3    H154969   3.656   2.581   2.733 -0.2070 -0.6817  0.1062
10258TIP3    H254970   3.589   2.711   2.771  1.7368 -0.0796  1.6848
10259TIP3   OH254971   1.083   2.282   3.388 -0.1570  0.1346  0.5030
10259TIP3    H154972   1.029   2.357   3.413 -0.8904 -0.0391 -0.4833
10259TIP3    H254973   1.035   2.206   3.419  0.1134  0.0313  0.6675
10260TIP3   OH254974   2.984   3.364   2.482 -0.3582  0.1145 -0.3117
10260TIP3    H154975   3.063   3.326   2.444 -1.5703 -3.1536  0.1048
10260TIP3    H254976   2.952   3.424   2.415 -0.1227 -2.2120 -2.6838
10261TIP3   OH254977   3.603   4.224   0.339 -0.4845  0.5527 -0.2335
10261TIP3    H154978   3.592   4.283   0.264 -0.0632 -0.4385 -1.1127
10261TIP3    H254979   3.548   4.148   0.318  0.9373 -0.4774 -0.3755
10262TIP3   OH254980   3.646   0.990   2.956 -0.1531 -0.0819  0.5666
10262TIP3    H154981   3.665   0.956   2.869  0.1065  0.0350  0.5757
10262TIP3    H254982   3.560   0.955   2.977  0.4078 -1.3483  0.8888
10263TIP3   OH254983   2.056   5.543   1.143  0.0467 -0.1742 -0.0088
10263TIP3    H154984   2.021   5.592   1.218  2.2161  0.0561  0.9281
10263TIP3    H254985   2.013   5.583   1.067 -0.4831  1.1644  0.9472
10264TIP3   OH254986   4.457   2.421   0.889  0.0350  0.0617  0.0255
10264TIP3    H154987   4.439   2.327   0.880  1.3432 -0.3054  0.8497
10264TIP3    H254988   4.528   2.437   0.827 -2.7595  1.4458 -3.1187
10265TIP3   OH254989   4.086   2.005   0.497  0.5240  0.1436  0.2736
10265TIP3    H154990   4.137   2.012   0.416 -0.6099 -0.6231 -0.5465
10265TIP3    H254991   4.049   2.093   0.509  0.2215  0.1200 -0.3946
10266TIP3   OH254992   2.711   4.984   1.984 -0.0587 -0.7138 -0.5983
10266TIP3    H154993   2.643   5.005   2.048 -0.3327 -0.9117 -0.8272
10266TIP3    H254994   2.791   4.976   2.037  0.0864  1.0176 -0.5079
10267TIP3   OH254995   2.457   2.865   1.943 -0.2440  0.0061 -0.3942
10267TIP3    H154996   2.540   2.892   1.904 -0.3043  0.7068 -0.0508
10267TIP3    H254997   2.402   2.944   1.938 -0.6961 -0.2915 -0.1100
10268TIP3   OH254998   5.740   1.473   1.801 -0.2900 -0.0087 -0.1141
10268TIP3    H154999   5.784   1.467   1.716  2.0556  0.8680  0.9594
10268TIP3    H255000   5.803   1.437   1.863 -0.3166  2.8665  1.7383
10269TIP3   OH255001   3.286   2.694   4.444 -0.3471 -0.4601  0.3041
10269TIP3    H155002   3.312   2.645   4.366  0.5344  0.0377  0.2686
10269TIP3    H255003   3.233   2.633   4.495 -0.1754 -1.0845 -0.2570
10270TIP3   OH255004   0.732   0.568   1.078 -0.0583 -0.1463  0.1409
10270TIP3    H155005   0.729   0.607   0.991 -1.6078  3.2927  1.5647
10270TIP3    H255006   0.825   0.562   1.099  0.3394 -0.8591 -1.5833
10271TIP3   OH255007   3.309   5.205   2.185 -0.0683 -0.1983  0.8344
10271TIP3    H155008   3.231   5.196   2.130  0.2940 -0.7148  0.4031
10271TIP3    H255009   3.381   5.173   2.131  0.7904  2.1241  0.4579
10272TIP3   OH255010   4.493   3.584   1.096  0.3506 -0.0468 -0.3300
10272TIP3    H155011   4.480   3.665   1.047 -0.6160  0.3856  0.6069
10272TIP3    H255012   4.535   3.612   1.177 -0.9295 -0.3086  0.4603
10273TIP3   OH255013   3.261   1.899   0.841 -0.2665 -0.1921  0.0012
10273TIP3    H155014   3.206   1.949   0.902 -0.4839  1.1796 -1.2604
10273TIP3    H255015   3.214   1.817   0.829 -1.1841  0.2760  0.2569
10274TIP3   OH255016   1.158   5.584   2.094  0.7395 -0.0636  0.3772
10274TIP3    H155017   1.108   5.533   2.158 -0.6147  0.4188 -0.2666
10274TIP3    H255018   1.150   5.675   2.124  2.3442 -0.0916  0.9868
10275TIP3   OH255019   3.301   5.495   2.086  0.0302 -0.2169  0.1084
10275TIP3    H155020   3.244   5.567   2.114 -2.5534 -1.9484 -0.4111
10275TIP3    H255021   3.282   5.424   2.148  1.4874 -0.9273 -0.2231
10276TIP3   OH255022   3.524   0.569   1.840 -0.3853  0.3836 -0.6287
10276TIP3    H155023   3.510   0.487   1.791  3.7269 -1.4037  0.7902
10276TIP3    H255024   3.563   0.628   1.777  0.7989 -0.3656 -0.6217
10277TIP3   OH255025   5.795   1.834   3.663  0.2667 -0.6060  0.5787
10277TIP3    H155026   5.725   1.898   3.677  0.4662 -0.0951 -0.6489
10277TIP3    H255027   5.809   1.795   3.749 -1.6819 -0.8973  0.8103
10278TIP3   OH255028   2.558   4.229   1.263  0.0776 -0.1560 -0.2146
10278TIP3    H155029   2.596   4.253   1.347  1.4065 -0.8459 -0.5959
10278TIP3    H255030   2.631   4.231   1.201 -0.5208 -1.4016 -1.0046
10279TIP3   OH255031   6.363   6.090   2.243 -0.7365  0.2137  0.3588
10279TIP3    H155032   6.459   6.083   2.244 -0.7306  0.0389 -0.4423
10279TIP3    H255033   6.344   6.132   2.159 -1.3982 -0.4096  0.1908
10280TIP3   OH255034   5.695   3.952   2.223  0.7895  0.3511 -0.3919
10280TIP3    H155035   5.654   3.872   2.189 -0.0905  0.8502 -0.5373
10280TIP3    H255036   5.755   3.979   2.154  0.4314  0.2976 -0.7300
10281TIP3   OH255037   5.713   4.374   3.831  0.0509  0.1312  0.3463
10281TIP3    H155038   5.711   4.423   3.749 -0.8885 -1.1546 -0.4414
10281TIP3    H255039   5.631   4.396   3.874 -0.3175 -0.6366  0.0470
10282TIP3   OH255040   2.219   0.779   2.910 -0.9894 -0.3690  0.3107
10282TIP3    H155041   2.284   0.728   2.958  0.5362 -0.2477 -1.4876
10282TIP3    H255042   2.164   0.713   2.867  0.5124 -0.5972 -1.4016
10283TIP3   OH255043   1.897   2.479   2.318 -0.5439  0.0006  0.6963
10283TIP3    H155044   1.892   2.433   2.235  2.8260  3.3346 -1.7270
10283TIP3    H255045   1.970   2.438   2.364  0.8988  1.2498 -0.3860
10284TIP3   OH255046   3.694   3.906   1.309  0.2151  0.1813  0.1504
10284TIP3    H155047   3.610   3.934   1.272  0.1786 -0.9646 -0.6797
10284TIP3    H255048   3.750   3.983   1.298 -0.4931  0.6954 -0.0122
10285TIP3   OH255049   0.847   0.654   2.066 -0.1013  0.1295  0.1533
10285TIP3    H155050   0.755   0.640   2.043 -0.6623  0.6358  1.8930
10285TIP3    H255051   0.885   0.567   2.069 -0.2976 -0.0285 -1.3908
10286TIP3   OH255052   1.831   4.447   3.094  0.2100 -0.4091 -0.1065
10286TIP3    H155053   1.775   4.489   3.029  0.1455 -0.1390  0.1250
10286TIP3    H255054   1.861   4.367   3.051  0.2913 -0.1544 -0.5282
10287TIP3   OH255055   2.236   2.769   0.508 -0.2130 -0.0843 -0.6257
10287TIP3    H155056   2.318   2.721   0.498 -0.0000  0.3712 -1.1522
10287TIP3    H255057   2.175   2.726   0.448 -0.3130 -0.3145 -0.3617
10288TIP3   OH255058   0.070   0.793   3.033 -0.0636 -0.5865  0.3310
10288TIP3    H155059   0.130   0.758   3.098  1.0736 -0.2468 -0.4957
10288TIP3    H255060   0.033   0.871   3.073  0.2460 -0.6571  0.7588
10289TIP3   OH255061   0.412   1.903   2.753 -0.5605  0.1841 -0.3852
10289TIP3    H155062   0.413   1.955   2.833  0.5501 -0.0852 -0.2150
10289TIP3    H255063   0.470   1.949   2.693  2.0470 -1.7964  0.4215
10290TIP3   OH255064   2.981   5.112   0.614  0.1710  0.1044  0.6104
10290TIP3    H155065   3.072   5.106   0.586  0.1504 -1.4416  0.8237
10290TIP3    H255066   2.954   5.022   0.629 -1.7323  0.4480 -0.4745
10291TIP3   OH255067   2.769   4.264   1.071  0.1900 -0.3075 -0.6757
10291TIP3    H155068   2.802   4.345   1.033 -0.8436  0.9510  0.9598
10291TIP3    H255069   2.837   4.199   1.052  0.3292  0.5057 -3.3986
10292TIP3   OH255070   1.625   1.322   0.826 -0.1691  0.2507 -0.0303
10292TIP3    H155071   1.693   1.385   0.804 -0.8536  1.1545  0.3721
10292TIP3    H255072   1.631   1.255   0.757 -0.5641  1.6554 -1.4843
10293TIP3   OH255073   4.331   1.715   2.944  0.9401  0.3032 -0.7652
10293TIP3    H155074   4.415   1.754   2.966  0.5149  0.6414  0.3479
10293TIP3    H255075   4.283   1.713   3.027  0.2816 -0.9471 -1.1397
10294TIP3   OH255076   6.579   0.832   2.439 -0.0782  0.7909 -0.3142
10294TIP3    H155077   6.611   0.884   2.513  1.5264 -0.7931  0.1737
10294TIP3    H255078   6.485   0.850   2.436  0.1643  2.5017  0.7746
10295TIP3   OH255079   4.354   5.501   2.857  0.1209  0.3592 -0.5503
10295TIP3    H155080   4.308   5.441   2.797 -1.4537 -0.9560  1.8190
10295TIP3    H255081   4.445   5.470   2.855 -0.3415 -1.1040 -0.6142
10296TIP3   OH255082   0.755   2.080   0.679 -0.0352  0.1866 -0.3439
10296TIP3    H155083   0.792   2.095   0.592 -2.1396 -0.3517 -1.3973
10296TIP3    H255084   0.808   2.010   0.716  1.0379  0.5864 -1.0637
10297TIP3   OH255085   2.441   1.423   2.243 -0.0936 -0.0492  0.9452
10297TIP3    H155086   2.499   1.493   2.272 -0.8775  0.7673  0.6218
10297TIP3    H255087   2.460   1.415   2.149  0.5934 -0.8721  1.1447
10298TIP3   OH255088   4.135   3.200   2.502  0.5518  0.2505 -1.0635
10298TIP3    H155089   4.093   3.183   2.417  1.9232 -0.1000 -1.6967
10298TIP3    H255090   4.225   3.224   2.480  1.2557 -0.9452  0.3496
10299TIP3   OH255091   3.039   4.843   0.679 -0.7316  0.0391 -0.1001
10299TIP3    H155092   2.971   4.776   0.676 -0.2751 -0.4125 -2.0272
10299TIP3    H255093   3.060   4.852   0.771  0.0779 -3.4182  0.1973
10300TIP3   OH255094   5.706   3.281   1.302  0.1757 -0.1624 -0.6522
10300TIP3    H155095   5.711   3.196   1.346 -2.8391  0.4534  1.1919
10300TIP3    H255096   5.706   3.345   1.373 -2.6636  1.0200 -1.5917
10301TIP3   OH255097   3.397   1.028   1.794  0.1811  0.8446 -0.2632
10301TIP3    H155098   3.408   0.950   1.848 -0.3696 -0.1409 -1.5171
10301TIP3    H255099   3.307   1.056   1.809  0.5429  1.5718  0.5966
10302TIP3   OH255100   2.430   1.384   0.667  0.7044 -0.3335  0.3593
10302TIP3    H155101   2.372   1.330   0.721 -0.4858 -0.4573 -0.9690
10302TIP3    H255102   2.417   1.349   0.578  0.7008  1.4549 -0.3690
10303TIP3   OH255103   3.598   6.264   3.419  0.5554  0.0673 -0.2195
10303TIP3    H155104   3.626   6.346   3.459 -0.4707 -0.6024  2.0297
10303TIP3    H255105   3.552   6.217   3.489  1.1025 -2.4357 -1.4088
10304TIP3   OH255106   0.108   3.810   3.136  0.0532  0.1383 -0.3973
10304TIP3    H155107   0.088   3.833   3.227 -2.6293 -1.2924 -0.4865
10304TIP3    H255108   0.183   3.751   3.142  0.1397  0.3483  0.8729
10305TIP3   OH255109   5.232   1.758   2.241 -0.0154 -0.2707  0.4501
10305TIP3    H155110   5.165   1.774   2.174  0.8751 -0.3502 -0.4899
10305TIP3    H255111   5.252   1.664   2.232  0.8033 -0.0736  0.1558
10306TIP3   OH255112   1.468   1.999   1.536 -0.4918  0.1495 -0.1090
10306TIP3    H155113   1.422   2.060   1.594 -0.3605 -0.4569  0.6461
10306TIP3    H255114   1.417   1.918   1.541 -0.3889  0.0416 -0.7229
10307TIP3   OH255115   2.315   6.038   2.514  0.4604 -0.5647 -0.2209
10307TIP3    H155116   2.265   6.013   2.592  0.9612 -0.0562  0.2766
10307TIP3    H255117   2.315   5.960   2.459 -0.7854 -0.6054 -0.1889
10308TIP3   OH255118   3.648   2.668   4.065 -0.4750 -0.1716  0.1255
10308TIP3    H155119   3.725   2.711   4.102 -0.6329  0.2788 -0.0565
10308TIP3    H255120   3.647   2.695   3.973  0.7716 -2.5150 -0.6388
10309TIP3   OH255121   0.214   0.159   4.024  0.1493 -0.4235 -0.2378
10309TIP3    H155122   0.142   0.097   4.010 -0.2224 -0.2025  0.6103
10309TIP3    H255123   0.261   0.123   4.099 -0.2042  0.4219  0.4110
10310TIP3   OH255124   3.643   2.563   2.472  0.1438  0.6475 -0.1164
10310TIP3    H155125   3.560   2.530   2.506  0.1889 -0.4960 -1.0648
10310TIP3    H255126   3.709   2.530   2.533 -0.0192  0.8805  0.1877
10311TIP3   OH255127   2.751   6.555   3.419 -0.5343  0.4742  0.5362
10311TIP3    H155128   2.845   6.568   3.430 -0.1982 -1.3190  0.0462
10311TIP3    H255129   2.720   6.526   3.505 -0.2487 -0.9284  0.1838
10312TIP3   OH255130   2.964   3.507   4.088 -0.0709 -0.2232  0.3249
10312TIP3    H155131   3.024   3.473   4.154  0.6770  0.4147 -0.0015
10312TIP3    H255132   3.000   3.475   4.005 -0.1526  0.2086  0.1212
10313TIP3   OH255133   6.129   1.483   1.795  0.3929 -0.3230  0.1253
10313TIP3    H155134   6.149   1.525   1.878 -1.7184 -0.2463  0.6485
10313TIP3    H255135   6.093   1.553   1.741 -0.4149 -0.8395 -0.0233
10314TIP3   OH255136   5.506   1.870   2.120 -0.0047  0.0198  0.2592
10314TIP3    H155137   5.571   1.913   2.176 -0.0041 -0.2591  0.4731
10314TIP3    H255138   5.448   1.824   2.181 -0.3907  0.2539  0.0641
10315TIP3   OH255139   1.472   3.572   3.221  0.2189  0.2179  0.0149
10315TIP3    H155140   1.548   3.631   3.223  0.3928  0.0221  2.6585
10315TIP3    H255141   1.506   3.490   3.185  0.9352  0.5411 -0.0654
10316TIP3   OH255142   3.119   0.462   1.023  0.5012  0.0436  0.2596
10316TIP3    H155143   3.142   0.399   1.092  0.9760  0.3181  0.3567
10316TIP3    H255144   3.035   0.497   1.050  0.6330  0.0686  0.6475
10317TIP3   OH255145   6.294   2.704   1.856  0.0575  0.5902 -0.2095
10317TIP3    H155146   6.234   2.700   1.930  0.8991 -0.3995  0.4419
10317TIP3    H255147   6.245   2.670   1.782  0.0334 -0.9316  0.4799
10318TIP3   OH255148   2.626   4.453   3.849 -0.7242  0.3959  0.0597
10318TIP3    H155149   2.618   4.528   3.790 -0.1626  0.0130 -0.5167
10318TIP3    H255150   2.542   4.407   3.840 -1.0354  0.9016  0.3489
10319TIP3   OH255151   1.914   2.047   2.374  0.2247  0.2041  0.1591
10319TIP3    H155152   1.850   2.069   2.306  1.6995  3.2645 -0.4425
10319TIP3    H255153   1.976   1.989   2.330  1.9650  3.2569 -1.8028
10320TIP3   OH255154   1.233   3.348   1.201  0.2315 -0.1690  0.0900
10320TIP3    H155155   1.307   3.375   1.255  1.1176 -2.6711  0.2641
10320TIP3    H255156   1.159   3.346   1.260  0.5943 -0.1931  0.5473
10321TIP3   OH255157   6.647   0.022   1.790  0.4057 -0.4575 -0.3417
10321TIP3    H155158   6.615  -0.058   1.829 -1.5912  0.0497 -0.8476
10321TIP3    H255159   6.629   0.012   1.696  1.4160  0.0202 -0.6043
10322TIP3   OH255160   1.135   2.317   2.085  0.2733  0.3010 -0.4285
10322TIP3    H155161   1.107   2.272   2.165  1.4578 -0.4967 -0.4385
10322TIP3    H255162   1.092   2.268   2.014 -1.4475  1.5098 -0.2887
10323TIP3   OH255163   2.499   3.264   2.323 -0.1364  0.0941 -0.0445
10323TIP3    H155164   2.410   3.278   2.355 -0.1539 -0.3109  0.0999
10323TIP3    H255165   2.489   3.255   2.229  0.0879  2.7250 -0.3910
10324TIP3   OH255166   6.587   6.509   2.741 -0.5953 -0.2896 -1.0206
10324TIP3    H155167   6.612   6.577   2.679  2.0372 -1.3429 -1.2173
10324TIP3    H255168   6.579   6.429   2.688 -0.4874 -0.7664 -0.3335
10325TIP3   OH255169   0.039   4.175   3.453 -0.1895 -0.3288 -0.1825
10325TIP3    H155170   0.117   4.208   3.498 -0.3401 -0.3674  0.1138
10325TIP3    H255171  -0.026   4.165   3.523 -0.8439  0.8397 -0.5940
10326TIP3   OH255172   5.065   0.953   2.911  0.3631 -0.2686  0.2377
10326TIP3    H155173   5.156   0.974   2.892  0.3283 -0.7994 -0.5444
10326TIP3    H255174   5.014   1.011   2.854  0.2085 -0.0649  0.5786
10327TIP3   OH255175   0.336   2.113   1.901  0.1973 -0.0645  0.6281
10327TIP3    H155176   0.245   2.108   1.872  0.4241 -0.8997  0.0370
10327TIP3    H255177   0.334   2.173   1.976 -1.0494 -1.0912  1.4557
10328TIP3   OH255178   0.644   5.820   2.009 -0.1733  0.8641 -0.1288
10328TIP3    H155179   0.676   5.907   2.030 -1.7694  1.3053  0.6248
10328TIP3    H255180   0.553   5.833   1.981 -0.0734 -0.4300 -1.1503
10329TIP3   OH255181   3.607   3.539   2.847 -0.4746  0.1146 -0.0125
10329TIP3    H155182   3.549   3.608   2.816  1.2023  1.2184 -0.8315
10329TIP3    H255183   3.580   3.461   2.797 -0.3616  0.9448 -1.4057
10330TIP3   OH255184   1.766   5.149   3.813  0.1573  0.1494  0.5469
10330TIP3    H155185   1.737   5.059   3.795  1.4167 -0.3048  0.6780
10330TIP3    H255186   1.861   5.146   3.802  0.2022  1.5153  0.3900
10331TIP3   OH255187   4.555   3.957   1.123 -0.2242 -0.2003 -0.3484
10331TIP3    H155188   4.566   3.974   1.029 -0.4819 -3.3712 -1.0724
10331TIP3    H255189   4.644   3.944   1.156 -0.0512  1.9237  0.1380
10332TIP3   OH255190   3.059   1.524   3.885 -0.1512  0.3627 -0.3531
10332TIP3    H155191   3.098   1.439   3.904 -1.3375 -0.0206  0.4554
10332TIP3    H255192   2.979   1.504   3.837 -0.4655  1.0096 -0.1158
10333TIP3   OH255193   0.112   6.251   2.772  0.5914  0.4926  0.0966
10333TIP3    H155194   0.085   6.160   2.773 -0.7970  0.8521 -1.1202
10333TIP3    H255195   0.075   6.288   2.852 -1.8132  0.7340 -1.0425
10334TIP3   OH255196   3.328   0.278   0.675 -0.4075 -0.0541  0.1381
10334TIP3    H155197   3.275   0.354   0.651 -1.0975  0.0471  1.8527
10334TIP3    H255198   3.323   0.220   0.598 -1.0093  1.0101 -0.6524
10335TIP3   OH255199   2.592   0.162   4.191 -0.0149  0.0516 -0.2207
10335TIP3    H155200   2.506   0.185   4.157 -1.8455 -0.8614  3.3205
10335TIP3    H255201   2.614   0.235   4.250  2.0254  0.5840 -1.5385
10336TIP3   OH255202   5.636   4.429   2.807 -0.1060  0.5621 -0.2917
10336TIP3    H155203   5.621   4.336   2.787  2.0113  0.0596  0.1593
10336TIP3    H255204   5.565   4.452   2.867  0.4488 -1.4218  1.2703
10337TIP3   OH255205   2.892   4.702   3.011  0.4062  0.0240 -0.3050
10337TIP3    H155206   2.868   4.792   3.032  0.5188 -0.1708  0.7221
10337TIP3    H255207   2.942   4.673   3.087  2.6345 -0.0623 -1.6956
10338TIP3   OH255208   5.117   5.063   1.270  0.7181  0.2804 -0.6207
10338TIP3    H155209   5.032   5.097   1.295  1.3307  1.5064 -0.1142
10338TIP3    H255210   5.164   5.138   1.234  1.9508 -0.1081  0.1003
10339TIP3   OH255211   5.824   5.229   0.885 -0.1684 -0.3323  0.7791
10339TIP3    H155212   5.795   5.309   0.839 -1.1170 -2.4837 -2.7949
10339TIP3    H255213   5.917   5.242   0.899 -0.1724  1.1884 -0.3341
10340TIP3   OH255214   5.427   0.127   3.029  0.0140  0.2427  0.0509
10340TIP3    H155215   5.491   0.056   3.018  0.1681  0.6373 -1.8113
10340TIP3    H255216   5.475   0.206   3.007 -0.6487  0.7469  0.3841
10341TIP3   OH255217   1.294   2.571   2.464  0.1949  0.2720 -0.1995
10341TIP3    H155218   1.321   2.540   2.377  0.6726  1.1170 -0.3644
10341TIP3    H255219   1.209   2.529   2.479  0.8903 -1.2394 -0.3223
10342TIP3   OH255220   4.362   4.431   0.843 -0.7444 -0.3307  0.1520
10342TIP3    H155221   4.373   4.372   0.918  0.6696 -0.8553 -0.4389
10342TIP3    H255222   4.299   4.386   0.787 -2.5799  0.5102  1.4099
10343TIP3   OH255223   1.648   6.159   3.289  0.3966 -0.8166 -0.4266
10343TIP3    H155224   1.652   6.092   3.358  1.4508 -0.3401 -0.0152
10343TIP3    H255225   1.693   6.235   3.326 -0.5873  0.0699 -0.9700
10344TIP3   OH255226   0.513   1.877   1.046 -0.4452  0.5117 -0.3976
10344TIP3    H155227   0.474   1.945   1.102  0.8968  2.1414 -1.3315
10344TIP3    H255228   0.608   1.893   1.052 -0.1176 -1.0854 -0.9144
10345TIP3   OH255229   3.486   1.688   0.526 -0.4374  0.3385 -0.3533
10345TIP3    H155230   3.572   1.675   0.565 -1.2259  0.6006  1.5514
10345TIP3    H255231   3.481   1.783   0.510  0.1587  0.1507 -1.8544
10346TIP3   OH255232   5.190   6.775   0.674  0.1421  0.1918 -0.1386
10346TIP3    H155233   5.162   6.857   0.716  0.2120  0.4476 -0.5889
10346TIP3    H255234   5.278   6.794   0.642  0.5279 -0.3573  0.5690
10347TIP3   OH255235   3.982   5.280   3.956  0.3419  0.7870 -0.1616
10347TIP3    H155236   4.077   5.275   3.969  0.2184  0.4126  0.6795
10347TIP3    H255237   3.946   5.221   4.022 -0.4751  0.8561 -0.5352
10348TIP3   OH255238   4.785   3.096   3.321 -0.1096  0.5431 -0.2258
10348TIP3    H155239   4.779   3.084   3.415 -1.4129 -0.4383 -0.4044
10348TIP3    H255240   4.876   3.076   3.300  0.2964  1.2006  0.8682
10349TIP3   OH255241   5.630   2.269   1.114 -0.3432  0.3579 -0.1883
10349TIP3    H155242   5.692   2.341   1.120 -2.5362  2.3369  0.0253
10349TIP3    H255243   5.658   2.208   1.182 -0.0314  2.3438  1.5593
10350TIP3   OH255244   2.224   1.146   1.142 -0.3630 -0.1980  0.5390
10350TIP3    H155245   2.316   1.126   1.153 -0.5278 -1.2937  0.0176
10350TIP3    H255246   2.221   1.242   1.132  0.6803 -0.1381  0.7780
10351TIP3   OH255247   2.943   3.682   2.600 -0.2121  0.1768  0.0782
10351TIP3    H155248   2.892   3.604   2.575 -0.1012  0.1303 -0.0003
10351TIP3    H255249   2.967   3.666   2.692 -1.1513  0.6318  0.4151
10352TIP3   OH255250   5.890   0.281   0.862  0.0548  0.1552  0.7700
10352TIP3    H155251   5.876   0.360   0.810  1.2787  0.5711  1.0433
10352TIP3    H255252   5.818   0.281   0.926 -0.6038  0.4260  0.0337
10353TIP3   OH255253   3.333   1.270   2.478  0.1073  0.3247 -0.5992
10353TIP3    H155254   3.423   1.239   2.472 -0.2569 -1.1335  0.7714
10353TIP3    H255255   3.338   1.364   2.460  1.7880  0.1379 -1.2216
10354TIP3   OH255256   2.264   3.786   0.838 -0.3693  0.0712 -0.0914
10354TIP3    H155257   2.298   3.862   0.791 -2.1064  0.1578 -1.3337
10354TIP3    H255258   2.245   3.818   0.926  0.6382  0.5782 -0.0537
10355TIP3   OH255259   2.056   2.082   3.305 -0.5755  0.5606  0.7832
10355TIP3    H155260   2.011   2.167   3.311 -1.0939  0.2761  1.0017
10355TIP3    H255261   2.022   2.032   3.379  1.8476  1.1231  2.3749
10356TIP3   OH255262   3.411   6.751   3.071  0.4775  0.0860  0.4391
10356TIP3    H155263   3.460   6.677   3.109 -0.3100 -0.8996 -0.4116
10356TIP3    H255264   3.320   6.722   3.070  0.4024  0.2486 -1.7372
10357TIP3   OH255265   2.158   0.896   1.852 -0.1396  0.3659  0.0956
10357TIP3    H155266   2.186   0.931   1.937  0.8718 -0.3159  0.0568
10357TIP3    H255267   2.221   0.931   1.790 -0.2697  0.0278 -0.2295
10358TIP3   OH255268   0.657   6.385   3.940  0.1848  0.0658  0.7301
10358TIP3    H155269   0.653   6.455   3.874  0.6452 -0.9612 -0.4197
10358TIP3    H255270   0.585   6.405   4.000  0.6781  1.8552  0.7779
10359TIP3   OH255271   3.089   3.271   0.681  0.1419  0.7983  0.1882
10359TIP3    H155272   3.043   3.330   0.741 -2.3203 -0.6585 -0.1016
10359TIP3    H255273   3.131   3.207   0.738 -1.8363 -0.3343  0.4659
10360TIP3   OH255274   5.754   4.729   1.031  0.3145  0.1647  0.3374
10360TIP3    H155275   5.799   4.811   1.053  1.6837 -0.4566 -0.0581
10360TIP3    H255276   5.703   4.708   1.110  1.3872  0.4567  1.1356
10361TIP3   OH255277   2.657   0.085   2.816  0.3385 -0.6134  0.0901
10361TIP3    H155278   2.712   0.100   2.893 -0.3062 -1.8885  0.8239
10361TIP3    H255279   2.655   0.170   2.771  0.2631  0.3051  1.7770
10362TIP3   OH255280   6.651   4.768   2.132 -0.0049 -0.8851  0.9373
10362TIP3    H155281   6.595   4.819   2.190 -0.3839 -1.9430  1.5300
10362TIP3    H255282   6.696   4.833   2.079 -1.3529  0.0193  0.8465
10363TIP3   OH255283   4.941   6.780   1.822 -0.2893  0.6394 -0.5123
10363TIP3    H155284   5.005   6.851   1.821  0.6960 -0.1848 -2.9717
10363TIP3    H255285   4.877   6.804   1.755  0.4975 -1.1050 -1.9637
10364TIP3   OH255286   4.067   1.833   2.229  0.2599 -0.3442 -0.3632
10364TIP3    H155287   4.094   1.911   2.181  0.0995  0.2556  0.4843
10364TIP3    H255288   4.006   1.788   2.170  1.8889 -0.9133 -1.6656
10365TIP3   OH255289   1.446   1.505   1.667 -0.3078 -0.1615 -0.1162
10365TIP3    H155290   1.512   1.569   1.639 -0.3163  0.1401  0.5225
10365TIP3    H255291   1.363   1.552   1.663 -0.3368 -0.1835  0.1743
10366TIP3   OH255292   6.396   4.283   2.414  0.3418 -0.0637 -0.6083
10366TIP3    H155293   6.466   4.244   2.466 -0.6911 -0.6843  0.3694
10366TIP3    H255294   6.401   4.238   2.329  0.7649 -0.5215 -0.3477
10367TIP3   OH255295   2.844   3.863   3.821  0.4610 -0.1284 -0.2495
10367TIP3    H155296   2.933   3.830   3.810  0.8326  0.6040  0.3912
10367TIP3    H255297   2.808   3.867   3.733  1.1113 -0.3266 -0.5276
10368TIP3   OH255298   3.087   3.241   3.744  0.0128  0.0781 -0.0304
10368TIP3    H155299   3.153   3.207   3.685  0.8799  0.7973  0.5053
10368TIP3    H255300   3.129   3.314   3.789 -0.3179 -0.9752  2.1156
10369TIP3   OH255301   6.685   5.272   3.053 -0.4157 -0.0159  0.5402
10369TIP3    H155302   6.596   5.293   3.083 -0.0925  2.4282 -0.0057
10369TIP3    H255303   6.728   5.235   3.131 -1.9394 -1.5042  0.7386
10370TIP3   OH255304   2.440   6.755   3.673  0.1323  0.5868 -0.1327
10370TIP3    H155305   2.489   6.832   3.702 -1.7119  1.4035  0.9875
10370TIP3    H255306   2.391   6.786   3.597 -0.1674  0.3415 -0.0396
10371TIP3   OH255307   4.549   4.542   0.659  0.4840  0.0149  0.6690
10371TIP3    H155308   4.471   4.515   0.707  0.0766 -1.9683 -0.9677
10371TIP3    H255309   4.597   4.460   0.644  1.1567  0.7041 -1.2658
10372TIP3   OH255310   2.269   0.023   3.474  0.1289  0.4117  0.4779
10372TIP3    H155311   2.318   0.057   3.400  0.5027 -1.2814 -0.1057
10372TIP3    H255312   2.177   0.044   3.455  0.5023  3.2255  1.3765
10373TIP3   OH255313   1.777   3.657   1.970 -0.1858 -0.0958 -0.0580
10373TIP3    H155314   1.817   3.699   1.894 -3.1461  0.1980 -1.5969
10373TIP3    H255315   1.753   3.730   2.028  0.3026 -0.1845  0.2672
10374TIP3   OH255316   0.165   2.009   0.623 -0.1685 -0.0854  0.1769
10374TIP3    H155317   0.100   2.000   0.693 -1.0063  0.1341 -0.5516
10374TIP3    H255318   0.159   2.101   0.597  0.0667 -0.1924 -0.2544
10375TIP3   OH255319   4.301   4.223   4.252  0.0080  0.3243  0.2524
10375TIP3    H155320   4.305   4.316   4.276  0.1710  0.0001  1.5594
10375TIP3    H255321   4.211   4.210   4.224 -0.1361  0.7736  0.4902
10376TIP3   OH255322   2.989   6.215   0.823  0.0854  0.2727  0.3242
10376TIP3    H155323   2.950   6.132   0.852 -0.8437  1.4606  2.7803
10376TIP3    H255324   2.929   6.247   0.756 -1.0212  0.1783  1.2314
10377TIP3   OH255325   2.291   3.047   0.539  0.2150 -0.3263 -0.1663
10377TIP3    H155326   2.261   2.956   0.529  2.1656 -0.8862 -1.5064
10377TIP3    H255327   2.364   3.042   0.600 -1.8412  0.9384  2.6233
10378TIP3   OH255328   3.193   4.751   2.219 -0.1861  0.4553 -0.2660
10378TIP3    H155329   3.122   4.815   2.216  0.1281  0.9896  1.9516
10378TIP3    H255330   3.167   4.688   2.287  1.8269  1.2305  1.3546
10379TIP3   OH255331   5.286   2.994   3.813  0.1009 -0.4873 -0.0211
10379TIP3    H155332   5.211   3.043   3.847  1.6535  1.4441  0.8571
10379TIP3    H255333   5.306   2.930   3.881 -0.5390 -0.7889 -0.1141
10380TIP3   OH255334   1.914   1.952   3.532 -0.3087 -0.6132  0.1398
10380TIP3    H155335   1.919   1.869   3.577  0.6049 -0.4066  0.4369
10380TIP3    H255336   1.936   2.018   3.598  0.3893 -0.2559 -0.4244
10381TIP3   OH255337   5.936   3.865   1.999  0.3037  0.2516  0.3062
10381TIP3    H155338   5.982   3.870   1.915 -0.8047  0.3392 -0.3208
10381TIP3    H255339   5.954   3.776   2.029  0.8369  0.2658  0.0582
10382TIP3   OH255340   5.995   1.717   0.795 -0.3284 -0.3310  0.1990
10382TIP3    H155341   5.966   1.797   0.752 -0.7833 -0.7357 -0.2556
10382TIP3    H255342   6.079   1.696   0.754  0.1238  0.2839  0.7995
10383TIP3   OH255343   3.118   2.242   0.676  0.1837 -0.3651 -0.5703
10383TIP3    H155344   3.075   2.292   0.606 -1.1456 -1.2713 -0.4372
10383TIP3    H255345   3.158   2.168   0.631 -1.1583 -1.2611 -0.3444
10384TIP3   OH255346   6.639   4.712   1.662  0.0474  0.1115  0.4209
10384TIP3    H155347   6.720   4.743   1.704  0.0787  1.1618 -0.3921
10384TIP3    H255348   6.667   4.633   1.614  0.7460  0.8200 -0.3736
10385TIP3   OH255349   0.533   5.539   1.188 -0.2779  0.2313 -0.4791
10385TIP3    H155350   0.562   5.537   1.097  0.6051 -0.5196 -0.1892
10385TIP3    H255351   0.583   5.611   1.227 -1.1677  1.0200 -0.7301
10386TIP3   OH255352   4.142   4.139   1.031 -0.9501 -0.2892 -0.3293
10386TIP3    H155353   4.067   4.190   1.063 -0.0677  1.6095 -1.1264
10386TIP3    H255354   4.218   4.179   1.074 -0.0735  0.1516 -2.1858
10387TIP3   OH255355   1.479   3.513   2.907  0.4365  0.2442  0.2352
10387TIP3    H155356   1.399   3.528   2.959 -0.3768 -0.6706 -0.7069
10387TIP3    H255357   1.465   3.428   2.865  0.3565  1.5831 -2.6941
10388TIP3   OH255358   4.337   3.596   1.901 -0.0338  0.1433 -0.1261
10388TIP3    H155359   4.388   3.655   1.957 -1.2148  1.3972 -0.3077
10388TIP3    H255360   4.261   3.573   1.954  0.3463 -1.1179 -0.1168
10389TIP3   OH255361   6.149   2.330   1.327 -0.4447 -0.2220  0.2214
10389TIP3    H155362   6.174   2.246   1.365 -1.2650 -1.0347 -0.9463
10389TIP3    H255363   6.057   2.341   1.353 -0.2935  0.3882  0.4943
10390TIP3   OH255364   4.810   4.309   1.996  0.5810 -0.1122  0.4054
10390TIP3    H155365   4.847   4.270   2.075  2.1559 -0.5347 -0.4937
10390TIP3    H255366   4.871   4.379   1.972  0.3781 -0.2782 -0.6672
10391TIP3   OH255367   3.185   6.393   3.006  0.5181 -0.1799 -0.1139
10391TIP3    H155368   3.177   6.377   2.912  0.2110 -2.4846  0.2489
10391TIP3    H255369   3.108   6.446   3.028 -0.1927 -0.8443 -0.9224
10392TIP3   OH255370   1.954   4.871   2.167  0.2675  0.5054  0.0819
10392TIP3    H155371   1.960   4.910   2.254 -1.4527 -3.3982  2.2028
10392TIP3    H255372   1.863   4.888   2.140 -0.0039 -0.5312  0.3022
10393TIP3   OH255373   6.743   1.408   3.478 -0.0213  0.5508 -1.1836
10393TIP3    H155374   6.707   1.381   3.562 -3.1248 -1.3231 -2.9172
10393TIP3    H255375   6.727   1.502   3.473 -0.0827  0.6205  0.1593
10394TIP3   OH255376   6.030   5.826   0.740 -0.1651  0.4646  0.1122
10394TIP3    H155377   6.123   5.838   0.718  0.4278 -0.2911  2.0239
10394TIP3    H255378   6.029   5.752   0.800 -2.3396 -1.3931 -2.0088
10395TIP3   OH255379   1.349   2.965   1.268 -0.3059 -0.0928 -0.0275
10395TIP3    H155380   1.353   3.053   1.305  1.1298  0.2359 -0.8849
10395TIP3    H255381   1.349   2.978   1.174 -1.4459 -0.9943 -0.1717
10396TIP3   OH255382   2.315   6.471   2.086  0.3859 -0.2895 -0.4376
10396TIP3    H155383   2.361   6.419   2.151 -1.6136 -0.2606  1.1019
10396TIP3    H255384   2.313   6.415   2.008  1.6532 -0.8824 -0.0653
10397TIP3   OH255385   3.743   3.206   1.645 -0.9240 -0.0712 -0.2371
10397TIP3    H155386   3.675   3.261   1.683 -0.0194  1.3338 -0.5817
10397TIP3    H255387   3.818   3.217   1.703 -0.2930  0.1827 -1.0808
10398TIP3   OH255388   1.030   6.743   3.744 -0.2891  0.4993  0.9444
10398TIP3    H155389   1.040   6.703   3.831  2.6775 -0.0356  0.4528
10398TIP3    H255390   1.035   6.837   3.760 -1.8708  0.5189  1.5231
10399TIP3   OH255391   0.536   2.801   1.146  0.0025 -0.3406  0.2796
10399TIP3    H155392   0.473   2.802   1.218  0.5425  1.5360  0.7645
10399TIP3    H255393   0.604   2.862   1.172  0.1835  0.4403 -1.8284
10400TIP3   OH255394   5.796   2.903   1.169 -0.3128 -0.2865 -0.2626
10400TIP3    H155395   5.880   2.874   1.206 -0.6746 -0.7123  0.2450
10400TIP3    H255396   5.813   2.992   1.138  0.3828 -0.4473 -0.3634
10401TIP3   OH255397   4.690   6.017   0.664  0.0354  0.2202 -0.2195
10401TIP3    H155398   4.647   5.935   0.689  0.3728  0.0279 -0.2627
10401TIP3    H255399   4.747   6.037   0.738 -0.7177  0.8927  0.1829
10402TIP3   OH255400   4.341   1.357   3.725  0.3534 -0.0004 -1.0879
10402TIP3    H155401   4.338   1.299   3.801 -0.7767 -0.8281 -1.7260
10402TIP3    H255402   4.370   1.442   3.760  2.9238 -1.1298 -0.2780
10403TIP3   OH255403   1.848   0.450   3.291  0.6738  0.6294  0.1224
10403TIP3    H155404   1.826   0.502   3.214 -0.1567 -1.0518 -0.8151
10403TIP3    H255405   1.773   0.460   3.349  0.0544 -0.2927 -0.4944
10404TIP3   OH255406   2.378   6.318   1.247 -0.3071  0.6716  0.1720
10404TIP3    H155407   2.318   6.309   1.321  1.7203  1.0628  1.9890
10404TIP3    H255408   2.418   6.404   1.258  1.1645  0.1207 -0.4555
10405TIP3   OH255409   5.784   4.273   2.020  0.3696  0.2172  0.8276
10405TIP3    H155410   5.840   4.210   2.065 -0.4840 -1.1910  0.0287
10405TIP3    H255411   5.696   4.253   2.050  0.1327  1.4944  1.0488
10406TIP3   OH255412   4.592   0.743   3.849 -0.3350 -0.6626 -0.2124
10406TIP3    H155413   4.570   0.693   3.928 -1.1779 -1.1159 -0.7202
10406TIP3    H255414   4.665   0.799   3.876  0.1138 -1.5967  0.5873
10407TIP3   OH255415   3.535   6.114   3.639  0.8217  0.3148  0.1475
10407TIP3    H155416   3.482   6.042   3.604  0.7430  0.8667 -0.9064
10407TIP3    H255417   3.508   6.120   3.731 -0.8995  0.5136 -0.3315
10408TIP3   OH255418   4.696   4.878   3.345 -0.4027  0.1853 -0.3674
10408TIP3    H155419   4.716   4.957   3.295  0.3830  0.0511 -0.2867
10408TIP3    H255420   4.646   4.909   3.421 -0.4967  0.5439 -0.5746
10409TIP3   OH255421   5.744   5.110   1.586  0.0954 -0.3565 -0.1953
10409TIP3    H155422   5.654   5.091   1.612 -0.4013  0.4565 -1.2060
10409TIP3    H255423   5.779   5.165   1.656  0.0555 -1.2857  0.5575
10410TIP3   OH255424   5.636   0.609   1.011  0.9186 -0.3928 -0.3760
10410TIP3    H155425   5.642   0.603   0.916  0.5260  0.1794 -0.4402
10410TIP3    H255426   5.658   0.521   1.042 -1.1629 -1.2348 -1.1005
10411TIP3   OH255427   3.435   1.460   3.075 -0.4936  0.1010  0.0116
10411TIP3    H155428   3.370   1.435   3.009  1.5155 -0.8403 -1.7404
10411TIP3    H255429   3.510   1.491   3.024  0.7293  0.4230  1.9029
10412TIP3   OH255430   6.401   3.961   2.385  0.4647  0.0012 -0.4795
10412TIP3    H155431   6.335   3.934   2.321 -1.3665  1.0094  0.9009
10412TIP3    H255432   6.436   3.879   2.419  0.9245 -0.5512 -2.1792
10413TIP3   OH255433   3.916   2.787   0.585 -0.0376  0.5180  0.0728
10413TIP3    H155434   3.900   2.721   0.652  0.5524  1.1682  0.8801
10413TIP3    H255435   3.944   2.865   0.634 -0.2359  1.2146 -0.8843
10414TIP3   OH255436   5.315   2.772   2.375  0.1300 -0.0945 -0.3593
10414TIP3    H155437   5.236   2.810   2.413 -0.4866  0.4468 -2.0850
10414TIP3    H255438   5.359   2.729   2.448 -1.2994  0.3666  0.8111
10415TIP3   OH255439   2.395   1.970   1.926 -0.3951  0.3334  0.0184
10415TIP3    H155440   2.380   1.903   1.860 -0.4589  1.5177 -1.2257
10415TIP3    H255441   2.324   2.033   1.912  0.0604  1.0096  0.6766
10416TIP3   OH255442   2.561   4.450   2.568  0.1091 -0.0999  0.8609
10416TIP3    H155443   2.512   4.378   2.529 -0.2324  1.1874 -1.2633
10416TIP3    H255444   2.543   4.525   2.510  0.1634  1.7902  3.1438
10417TIP3   OH255445   2.847   4.519   2.609 -0.0750 -0.7741 -0.1663
10417TIP3    H155446   2.756   4.506   2.584 -0.0302  0.7523 -1.2574
10417TIP3    H255447   2.859   4.463   2.686 -1.7319 -1.4990 -0.3868
10418TIP3   OH255448   3.178   6.140   3.111  0.4403 -0.2768 -0.4097
10418TIP3    H155449   3.201   6.223   3.069 -0.2877  0.9925  1.5981
10418TIP3    H255450   3.238   6.133   3.185  0.9487 -1.9297 -0.9210
10419TIP3   OH255451   0.488   0.484   1.701  0.1832 -0.2957  0.1261
10419TIP3    H155452   0.404   0.503   1.743 -0.0184 -0.4469 -0.2036
10419TIP3    H255453   0.533   0.426   1.762 -0.0757 -0.4520  0.1702
10420TIP3   OH255454   5.108   3.382   1.721  0.5707 -0.3853 -0.1506
10420TIP3    H155455   5.108   3.470   1.683  1.7125  0.7083  2.1681
10420TIP3    H255456   5.144   3.326   1.652  0.6532  1.1095 -1.3752
10421TIP3   OH255457   1.030   0.528   3.474 -0.1704 -0.2775 -0.5554
10421TIP3    H155458   1.101   0.504   3.533 -0.3310 -0.3565 -0.3937
10421TIP3    H255459   0.965   0.460   3.486  0.2384 -0.8805 -1.5929
10422TIP3   OH255460   2.614   2.262   0.620 -0.2595  0.0781 -0.2443
10422TIP3    H155461   2.677   2.296   0.557  1.0690 -0.4959  0.7398
10422TIP3    H255462   2.546   2.330   0.625  2.0177  2.4597  1.2547
10423TIP3   OH255463   1.998   3.341   3.169  0.1421  0.0101  0.5063
10423TIP3    H155464   2.018   3.383   3.085 -1.4872 -1.2708 -0.5786
10423TIP3    H255465   1.923   3.390   3.203 -0.2651 -0.5301  0.3902
10424TIP3   OH255466   3.720   0.948   2.108 -0.0806  0.3565 -0.2578
10424TIP3    H155467   3.660   0.991   2.169 -0.1940 -1.3183  0.8765
10424TIP3    H255468   3.707   0.854   2.124  3.2176 -0.0752  0.4349
10425TIP3   OH255469   2.739   5.952   2.505  0.0629 -0.0671  0.2925
10425TIP3    H155470   2.668   5.973   2.566  0.0332 -0.4846  0.4075
10425TIP3    H255471   2.766   6.037   2.469  0.6686  0.2879  1.5393
10426TIP3   OH255472   2.407   4.818   0.524 -0.6082 -0.2687 -0.2851
10426TIP3    H155473   2.361   4.838   0.442  0.0261  0.1025 -0.5636
10426TIP3    H255474   2.397   4.897   0.577  0.7040  0.3036 -0.8279
10427TIP3   OH255475   1.532   5.447   0.989  0.1392  0.6856  0.6066
10427TIP3    H155476   1.443   5.441   1.024 -0.3158 -2.4201 -0.7351
10427TIP3    H255477   1.520   5.479   0.900  0.4003  0.5692  0.5304
10428TIP3   OH255478   6.722   4.035   2.973  0.8089  0.6448  0.3880
10428TIP3    H155479   6.706   4.003   3.062 -1.7036 -2.1039 -0.9015
10428TIP3    H255480   6.781   3.969   2.934 -0.2235  0.3594 -0.7427
10429TIP3   OH255481   6.388   5.592   1.666  0.8494 -0.4953 -0.3226
10429TIP3    H155482   6.349   5.666   1.619 -0.0313 -0.6111  0.2074
10429TIP3    H255483   6.323   5.522   1.659  0.7078 -0.5225  1.0522
10430TIP3   OH255484   5.122   0.150   1.350  0.2392 -0.5733  0.6452
10430TIP3    H155485   5.201   0.155   1.296  0.5687 -1.4425  1.0173
10430TIP3    H255486   5.050   0.164   1.289  0.7208  2.1974  0.6225
10431TIP3   OH255487   2.190   1.323   2.274  0.4331 -0.5027  0.5380
10431TIP3    H155488   2.268   1.377   2.257  0.6012 -0.7291  0.5797
10431TIP3    H255489   2.123   1.386   2.299  0.9947 -0.4029  1.8981
10432TIP3   OH255490   2.068   5.689   4.369 -0.2319  0.1750  0.1247
10432TIP3    H155491   1.982   5.683   4.410 -0.6868  0.2924 -0.7832
10432TIP3    H255492   2.097   5.779   4.387  0.5242 -0.3999  1.9824
10433TIP3   OH255493   4.677   1.310   0.872 -0.4595  0.1161 -0.2579
10433TIP3    H155494   4.640   1.313   0.960 -0.3370  2.0071 -0.2286
10433TIP3    H255495   4.642   1.388   0.829  1.7910  0.8307 -0.9214
10434TIP3   OH255496   0.069   1.623   2.036 -0.5334 -0.0423 -0.8157
10434TIP3    H155497   0.052   1.540   2.081  0.3238 -0.1709 -0.7151
10434TIP3    H255498   0.136   1.665   2.089 -1.0761  0.7929 -0.7780
10435TIP3   OH255499   5.440   4.830   1.940  0.3794  0.1514 -0.2207
10435TIP3    H155500   5.484   4.909   1.909 -0.1372  0.4429 -0.2217
10435TIP3    H255501   5.509   4.765   1.945  0.9154  0.7409  0.2719
10436TIP3   OH255502   4.225   2.304   2.488  0.3066 -0.0036  0.5855
10436TIP3    H155503   4.312   2.319   2.450 -0.6453  0.5465 -1.4841
10436TIP3    H255504   4.213   2.209   2.484  0.4083  0.0077 -0.0778
10437TIP3   OH255505   5.103   3.120   2.750 -0.4014  0.0570 -0.0755
10437TIP3    H155506   5.098   3.131   2.845  1.1074  0.0535  0.0233
10437TIP3    H255507   5.019   3.154   2.718 -0.3648  1.4234  1.1480
10438TIP3   OH255508   2.509   4.787   1.648 -0.0397 -0.4686  0.2121
10438TIP3    H155509   2.503   4.700   1.688 -1.8135 -0.4290  0.1010
10438TIP3    H255510   2.439   4.789   1.583  0.1318  0.9525  0.0290
10439TIP3   OH255511   3.303   0.447   2.861  0.4042  0.0570  0.5398
10439TIP3    H155512   3.357   0.525   2.876  0.3052  0.4943 -1.1502
10439TIP3    H255513   3.266   0.460   2.774 -0.6017 -1.3218  0.7285
   6.79627   6.79627  30.00000
