Title
55513
    1DOPE     N    1   5.394   5.023  16.330  0.6165  0.0739 -0.5719
    1DOPE   HN1    2   5.447   4.935  16.344  0.7004  0.0065 -1.3058
    1DOPE   HN2    3   5.464   5.099  16.328  0.1698  0.5285  0.2747
    1DOPE   HN3    4   5.327   5.030  16.410  0.9631 -1.5986 -0.0892
    1DOPE   C12    5   5.302   5.014  16.211  0.0472 -0.4967  0.5596
    1DOPE  H12A    6   5.356   4.947  16.141  1.3997 -0.9280  1.9649
    1DOPE  H12B    7   5.301   5.107  16.150 -1.1245 -1.0273 -0.2733
    1DOPE   C11    8   5.173   4.953  16.244 -0.3694 -0.2988 -0.0369
    1DOPE  H11A    9   5.184   4.847  16.277  0.8235 -0.4386 -0.8281
    1DOPE  H11B   10   5.108   4.946  16.154  1.2273  0.6548 -1.3249
    1DOPE     P   11   5.055   5.168  16.329 -0.0363 -0.7050 -0.4284
    1DOPE   O13   12   5.159   5.274  16.343 -0.0034 -0.0245  0.4720
    1DOPE   O14   13   4.945   5.185  16.428 -0.3619  0.1745 -0.4156
    1DOPE   O11   14   5.001   5.163  16.180 -0.0334 -0.5369  0.6007
    1DOPE   O12   15   5.118   5.025  16.355  0.0547  0.3893  0.6728
    1DOPE    C1   16   4.867   5.197  16.151  0.9027  0.5380 -0.1374
    1DOPE    HA   17   4.864   5.220  16.043 -1.8955 -1.9935 -0.7408
    1DOPE    HB   18   4.828   5.286  16.205  0.5963  1.7163 -2.2253
    1DOPE    C2   19   4.776   5.080  16.192  0.3938  0.3847  0.0579
    1DOPE    HS   20   4.805   5.043  16.293  0.0996  1.3250  0.4943
    1DOPE   O21   21   4.812   4.978  16.095 -0.4581  0.2438 -0.0914
    1DOPE   C21   22   4.772   4.857  16.116  0.0112  0.0936  0.6105
    1DOPE   O22   23   4.713   4.822  16.217  0.6554 -0.5273  0.1962
    1DOPE   C22   24   4.819   4.762  16.005  0.3770 -0.3385 -0.1175
    1DOPE   H2R   25   4.906   4.702  16.039 -1.1021 -2.8296 -0.4714
    1DOPE   H2S   26   4.861   4.833  15.930 -0.1458  1.8567  1.5638
    1DOPE    C3   27   4.629   5.122  16.180 -0.4090  0.2242  0.5022
    1DOPE    HX   28   4.596   5.200  16.252 -3.8245  0.7300 -1.3919
    1DOPE    HY   29   4.574   5.031  16.213  2.0386 -0.7907  2.0953
    1DOPE   O31   30   4.588   5.162  16.045 -0.2783 -0.0516 -0.3626
    1DOPE   C31   31   4.511   5.085  15.972 -0.2440 -0.0669  0.1419
    1DOPE   O32   32   4.476   4.973  16.001 -0.1590 -0.1674  0.1628
    1DOPE   C32   33   4.456   5.166  15.851  0.0748  0.4783 -0.3884
    1DOPE   H2X   34   4.408   5.260  15.884 -0.9333 -0.3822  0.6965
    1DOPE   H2Y   35   4.546   5.199  15.795 -0.0184  1.7197  0.1731
    1DOPE   C23   36   4.710   4.687  15.923 -0.1825  0.2682  1.0299
    1DOPE   H3R   37   4.650   4.758  15.862  1.6585  0.9092 -0.0868
    1DOPE   H3S   38   4.640   4.633  15.992 -0.3057 -0.2957  0.4702
    1DOPE   C24   39   4.776   4.594  15.819  0.3046 -0.4025 -0.7831
    1DOPE   H4R   40   4.716   4.500  15.816 -0.1695 -0.1871  0.9845
    1DOPE   H4S   41   4.868   4.549  15.863 -0.2524  0.1327  1.0120
    1DOPE   C25   42   4.800   4.645  15.678 -0.5388 -0.2580 -0.0549
    1DOPE   H5R   43   4.836   4.750  15.692 -0.2857 -0.5867  2.1119
    1DOPE   H5S   44   4.706   4.651  15.618 -0.3225  3.0529 -0.2746
    1DOPE   C26   45   4.907   4.572  15.592 -0.0715  0.4503 -0.0815
    1DOPE   H6R   46   4.868   4.470  15.567 -0.4197  1.1034 -2.3781
    1DOPE   H6S   47   5.004   4.584  15.645  0.8321  1.2890 -1.8609
    1DOPE   C27   48   4.936   4.638  15.455  0.2271 -0.0129 -0.2212
    1DOPE   H7R   49   5.040   4.676  15.449  0.0909  0.3550 -0.3145
    1DOPE   H7S   50   4.866   4.724  15.445  0.2318  0.0239  0.0552
    1DOPE   C28   51   4.926   4.540  15.331  0.3509  0.0512 -0.1944
    1DOPE   H8R   52   5.013   4.472  15.332 -0.3119 -1.2105 -5.2758
    1DOPE   H8S   53   4.935   4.597  15.236 -3.6467 -1.1976 -1.5009
    1DOPE   C29   54   4.792   4.467  15.326 -0.2670 -0.6283 -0.0092
    1DOPE   H9R   55   4.708   4.523  15.372  0.1552 -1.2795  1.6222
    1DOPE  C210   56   4.771   4.343  15.289 -0.3164 -0.1946  0.1143
    1DOPE  H10R   57   4.666   4.317  15.271 -0.6346  1.3790 -0.4824
    1DOPE  C211   58   4.867   4.242  15.239 -0.0218 -0.1197  0.3435
    1DOPE  H11R   59   4.967   4.291  15.236 -1.2410  2.7456  1.9825
    1DOPE  H11S   60   4.835   4.210  15.138 -0.4587 -0.7717  0.6826
    1DOPE  C212   61   4.891   4.121  15.330 -0.2819 -0.7270 -0.2843
    1DOPE  H12R   62   4.803   4.065  15.368 -1.0314  1.7253  1.8759
    1DOPE  H12S   63   4.930   4.157  15.427 -0.7390 -0.2100 -0.2900
    1DOPE  C213   64   5.018   4.038  15.282  0.6199  0.3052  0.3705
    1DOPE  H13R   65   5.026   3.964  15.364  0.8840  0.6492  0.6587
    1DOPE  H13S   66   5.107   4.105  15.274  0.1758  1.1562  2.0523
    1DOPE  C214   67   4.984   3.970  15.151 -0.0992  0.5672  0.0783
    1DOPE  H14R   68   5.071   3.924  15.101  0.1646  0.4799  0.6072
    1DOPE  H14S   69   4.951   4.042  15.073 -2.5524  1.5285  1.8502
    1DOPE  C215   70   4.890   3.845  15.162  0.2079  0.2059  0.7522
    1DOPE  H15R   71   4.794   3.884  15.202  0.2985  2.0588 -0.6542
    1DOPE  H15S   72   4.931   3.761  15.222  2.7748 -1.3920 -2.8618
    1DOPE  C216   73   4.860   3.791  15.024  0.3806 -0.2234 -0.3319
    1DOPE  H16R   74   4.950   3.751  14.972 -0.5379 -0.6727 -1.6177
    1DOPE  H16S   75   4.830   3.880  14.965 -1.0219  0.0332  0.7206
    1DOPE  C217   76   4.755   3.682  15.024 -0.6715  0.3604  0.2066
    1DOPE  H17R   77   4.660   3.732  15.049 -1.4142 -1.3810  1.0701
    1DOPE  H17S   78   4.785   3.613  15.105 -0.4585  0.9037  0.5931
    1DOPE  C218   79   4.741   3.618  14.889  0.2382  0.1694  0.7664
    1DOPE  H18R   80   4.715   3.691  14.810 -0.4163 -0.9704 -0.1044
    1DOPE  H18S   81   4.666   3.539  14.907  0.8791 -0.3481  1.2552
    1DOPE  H18T   82   4.843   3.580  14.866 -0.7336 -2.3141  0.2714
    1DOPE   C33   83   4.353   5.079  15.774  0.1540 -0.0839 -0.1306
    1DOPE   H3X   84   4.279   5.029  15.841  0.5603  0.2119  0.5554
    1DOPE   H3Y   85   4.405   4.997  15.722  0.7620  0.1777  0.0504
    1DOPE   C34   86   4.265   5.166  15.681  0.6309  0.3300 -0.1715
    1DOPE   H4X   87   4.224   5.252  15.739 -1.6367 -1.9102  1.7526
    1DOPE   H4Y   88   4.324   5.197  15.593  0.9169 -3.7329 -1.6152
    1DOPE   C35   89   4.150   5.084  15.622  0.1923 -0.3868  0.7758
    1DOPE   H5X   90   4.097   5.151  15.551  1.2578  0.1058  0.4234
    1DOPE   H5Y   91   4.083   5.042  15.700 -1.5118 -0.8535 -0.8703
    1DOPE   C36   92   4.195   4.962  15.543 -0.8065  0.0901  0.1736
    1DOPE   H6X   93   4.222   4.888  15.621 -0.3383  0.1232  0.0514
    1DOPE   H6Y   94   4.291   4.989  15.492 -0.6904 -0.4246  0.1196
    1DOPE   C37   95   4.097   4.900  15.454 -0.1766  0.4057  0.0635
    1DOPE   H7X   96   4.057   4.992  15.407 -1.5437 -0.8614 -1.3916
    1DOPE   H7Y   97   4.143   4.844  15.369 -3.2376 -1.3734 -0.5836
    1DOPE   C38   98   4.000   4.809  15.526  0.4543  0.3500 -0.1131
    1DOPE   H8X   99   3.925   4.868  15.583  0.2882  0.2551 -0.2297
    1DOPE   H8Y  100   4.044   4.739  15.600 -1.3311 -0.0145  0.6546
    1DOPE   C39  101   3.925   4.716  15.426  0.0407 -0.3811  0.7684
    1DOPE   H9X  102   3.989   4.663  15.354 -0.4812 -2.1276  1.5245
    1DOPE  C310  103   3.790   4.726  15.409  0.4404 -0.1242 -0.1367
    1DOPE  H10X  104   3.749   4.660  15.331  2.7653 -0.8543 -0.8172
    1DOPE  C311  105   3.685   4.810  15.487 -0.2361  0.5014 -0.6897
    1DOPE  H11X  106   3.596   4.764  15.533 -0.1823  2.2881  1.3647
    1DOPE  H11Y  107   3.726   4.871  15.571 -0.4148  0.1866 -0.3712
    1DOPE  C312  108   3.636   4.922  15.392 -0.5326 -0.3833 -0.1708
    1DOPE  H12X  109   3.528   4.912  15.367 -0.9007  1.1847  0.6814
    1DOPE  H12Y  110   3.688   4.915  15.294 -0.0430  0.7253  0.0013
    1DOPE  C313  111   3.658   5.058  15.450 -0.1490 -0.1429 -0.1760
    1DOPE  H13X  112   3.636   5.061  15.559 -1.0949  0.4463 -0.3641
    1DOPE  H13Y  113   3.768   5.071  15.445 -0.0630 -0.3325  0.9562
    1DOPE  C314  114   3.567   5.167  15.402  0.4364 -0.3793  0.3561
    1DOPE  H14X  115   3.461   5.135  15.412  0.2852  0.5314  1.9913
    1DOPE  H14Y  116   3.606   5.181  15.299  3.1971 -1.5839  1.1335
    1DOPE  C315  117   3.582   5.306  15.471 -0.6555  0.0709 -0.6383
    1DOPE  H15X  118   3.521   5.384  15.421 -0.6317  0.4617 -0.0597
    1DOPE  H15Y  119   3.683   5.349  15.451  0.3746 -1.7498  0.2940
    1DOPE  C316  120   3.551   5.317  15.623 -0.3432  0.1597  0.2814
    1DOPE  H16X  121   3.589   5.414  15.660 -2.7817  1.5764 -0.6695
    1DOPE  H16Y  122   3.608   5.254  15.695 -1.6271  0.8980  1.9977
    1DOPE  C317  123   3.400   5.326  15.662  0.5527 -0.1813  0.1551
    1DOPE  H17X  124   3.348   5.391  15.588  1.1976  1.3939  1.0429
    1DOPE  H17Y  125   3.356   5.224  15.655 -0.4420  0.1703  0.9646
    1DOPE  C318  126   3.370   5.381  15.798  0.5603  0.4373  0.5739
    1DOPE  H18X  127   3.409   5.484  15.811 -0.7013  1.0830 -0.4992
    1DOPE  H18Y  128   3.259   5.379  15.809  0.3443 -0.4030 -1.2528
    1DOPE  H18Z  129   3.409   5.316  15.878 -0.9738  0.2173  1.1796
    2DOPE     N  130   5.496   5.416  15.998  0.5847  0.1582  0.4418
    2DOPE   HN1  131   5.524   5.368  15.909  1.1621 -1.3594  1.4032
    2DOPE   HN2  132   5.406   5.368  16.018  0.1659 -0.6142 -2.6415
    2DOPE   HN3  133   5.472   5.515  15.978  1.1238  0.3919  0.9177
    2DOPE   C12  134   5.597   5.392  16.103 -0.0626  0.5678  0.1455
    2DOPE  H12A  135   5.559   5.425  16.202 -2.3906 -1.3604 -0.0190
    2DOPE  H12B  136   5.687   5.456  16.088  0.7004 -0.2582  1.0441
    2DOPE   C11  137   5.641   5.242  16.094 -0.2844  0.8251  0.2862
    2DOPE  H11A  138   5.553   5.174  16.088  1.6206 -1.7307 -0.3832
    2DOPE  H11B  139   5.703   5.209  16.180  2.1504  3.4818 -0.2985
    2DOPE     P  140   5.871   5.228  15.973  0.3127 -0.3870  0.4087
    2DOPE   O13  141   5.923   5.110  16.041 -0.3878 -0.1961  0.0805
    2DOPE   O14  142   5.926   5.366  16.013  0.7393  0.1303  0.9138
    2DOPE   O11  143   5.901   5.208  15.820 -0.1821 -0.1865 -0.1560
    2DOPE   O12  144   5.711   5.223  15.967 -0.0502 -0.0321  0.3866
    2DOPE    C1  145   5.901   5.334  15.746 -0.0129  0.0570  0.3203
    2DOPE    HA  146   5.994   5.393  15.758 -1.3852  2.0681  1.7532
    2DOPE    HB  147   5.824   5.407  15.779 -2.4984 -0.7136 -3.1756
    2DOPE    C2  148   5.873   5.303  15.590 -0.0888 -0.4395 -0.4302
    2DOPE    HS  149   5.777   5.248  15.589 -1.0777  1.1281  1.6787
    2DOPE   O21  150   5.976   5.221  15.533 -0.1510  0.6212 -0.4401
    2DOPE   C21  151   5.928   5.133  15.443 -0.3126 -0.2816  0.1534
    2DOPE   O22  152   5.810   5.124  15.404  0.0852  0.2293  0.3736
    2DOPE   C22  153   6.042   5.040  15.400  0.3131 -0.5544  0.1101
    2DOPE   H2R  154   6.005   4.936  15.413  0.6408 -0.8271 -1.0502
    2DOPE   H2S  155   6.124   5.036  15.476  0.5457 -1.3235 -0.1741
    2DOPE    C3  156   5.856   5.433  15.503 -0.0404  0.4028  0.5256
    2DOPE    HX  157   5.958   5.477  15.503  0.5660 -0.9546  0.9919
    2DOPE    HY  158   5.798   5.515  15.551  0.0462  1.1548 -0.5974
    2DOPE   O31  159   5.816   5.422  15.365  0.2592  0.2370  0.3628
    2DOPE   C31  160   5.686   5.400  15.355 -0.2347  0.3235  0.3350
    2DOPE   O32  161   5.601   5.410  15.442  0.0764  0.6118 -0.5528
    2DOPE   C32  162   5.655   5.378  15.206  1.0919  1.0331 -0.4268
    2DOPE   H2X  163   5.709   5.454  15.145  1.1797  0.4567 -1.0787
    2DOPE   H2Y  164   5.711   5.284  15.185 -0.8768  0.0466 -1.4817
    2DOPE   C23  165   6.080   5.053  15.252 -0.3017  0.1077 -0.0052
    2DOPE   H3R  166   6.127   5.154  15.241  1.3977 -0.2760  2.7831
    2DOPE   H3S  167   5.992   5.068  15.186  0.6559  0.8403 -1.1509
    2DOPE   C24  168   6.173   4.946  15.196  0.0607 -0.3345 -0.1283
    2DOPE   H4R  169   6.124   4.847  15.213  1.0381 -0.6261  1.0885
    2DOPE   H4S  170   6.259   4.933  15.265 -0.7500 -0.6764  0.8461
    2DOPE   C25  171   6.215   4.980  15.057  0.6140 -0.9238 -0.2681
    2DOPE   H5R  172   6.272   5.076  15.051  2.1383 -1.8052 -0.4093
    2DOPE   H5S  173   6.131   4.994  14.986 -0.0203  0.7726  0.7564
    2DOPE   C26  174   6.303   4.867  14.997 -0.5616 -0.1220  0.4913
    2DOPE   H6R  175   6.249   4.770  14.995 -0.9428 -0.1053  3.8779
    2DOPE   H6S  176   6.391   4.854  15.064 -0.6695 -1.4813  0.3873
    2DOPE   C27  177   6.350   4.910  14.855 -0.2918  0.1130 -0.6032
    2DOPE   H7R  178   6.414   4.999  14.872 -2.4481  1.3542  1.6606
    2DOPE   H7S  179   6.262   4.937  14.794 -1.2841  0.0347  0.7543
    2DOPE   C28  180   6.443   4.801  14.791  0.1581 -0.1035 -0.3977
    2DOPE   H8R  181   6.378   4.710  14.789  0.0965 -0.0569 -0.5713
    2DOPE   H8S  182   6.530   4.771  14.853 -1.5931 -0.6757  1.9343
    2DOPE   C29  183   6.473   4.826  14.646  0.1083  0.0438 -0.1618
    2DOPE   H9R  184   6.387   4.829  14.577 -0.1026 -0.6429  0.0600
    2DOPE  C210  185   6.590   4.843  14.583 -0.1050  0.3547  0.4400
    2DOPE  H10R  186   6.596   4.864  14.475 -1.2456  2.2670  0.7057
    2DOPE  C211  187   6.730   4.837  14.662  0.1203 -0.1784  1.3456
    2DOPE  H11R  188   6.719   4.803  14.768  0.4079 -1.0552  1.0965
    2DOPE  H11S  189   6.781   4.935  14.664 -0.3718  0.0892  3.2764
    2DOPE  C212  190   6.837   4.732  14.611  0.4863  0.5187 -0.4312
    2DOPE  H12R  191   6.797   4.629  14.612 -0.4600  0.7474 -4.0642
    2DOPE  H12S  192   6.929   4.741  14.672 -0.0145 -1.9291  0.8251
    2DOPE  C213  193   6.876   4.755  14.470  0.8347 -0.3563  0.3795
    2DOPE  H13R  194   6.906   4.861  14.459 -0.9881  0.0579 -1.0374
    2DOPE  H13S  195   6.784   4.735  14.412 -0.7764  2.4335  1.7594
    2DOPE  C214  196   6.985   4.654  14.429 -0.7039 -0.4397 -0.7627
    2DOPE  H14R  197   6.950   4.550  14.444  0.4255 -0.6423  0.7355
    2DOPE  H14S  198   7.073   4.667  14.496 -1.5571 -1.1754  0.5277
    2DOPE  C215  199   7.023   4.676  14.281  0.2000 -0.9169 -0.6989
    2DOPE  H15R  200   7.054   4.782  14.271 -1.6612  0.0767  2.5623
    2DOPE  H15S  201   6.928   4.676  14.222  1.0023  2.7298 -2.2303
    2DOPE  C216  202   7.142   4.598  14.240 -0.4026  0.4046 -0.2712
    2DOPE  H16R  203   7.105   4.494  14.247 -0.0331  0.3778  2.2916
    2DOPE  H16S  204   7.226   4.619  14.309 -0.0034  0.7938 -0.8603
    2DOPE  C217  205   7.189   4.625  14.093 -1.2539 -0.4360 -0.1937
    2DOPE  H17R  206   7.228   4.728  14.084  0.6298 -1.1171 -0.3657
    2DOPE  H17S  207   7.103   4.611  14.024 -1.5806  2.0782 -0.3596
    2DOPE  C218  208   7.306   4.529  14.044  0.7608  0.1976 -0.4613
    2DOPE  H18R  209   7.380   4.514  14.126 -1.1519 -3.4513  0.8338
    2DOPE  H18S  210   7.363   4.579  13.964 -0.4871  0.7276 -1.0432
    2DOPE  H18T  211   7.267   4.428  14.018  0.9353 -0.5571  1.9022
    2DOPE   C33  212   5.504   5.359  15.178  0.0295  0.1914 -0.0713
    2DOPE   H3X  213   5.476   5.361  15.071 -0.9507  0.1915  0.1753
    2DOPE   H3Y  214   5.453   5.446  15.225 -0.5402 -0.4039  0.4308
    2DOPE   C34  215   5.450   5.219  15.217 -0.2488  0.2822 -0.3159
    2DOPE   H4X  216   5.524   5.143  15.185 -0.2514  0.2148 -0.1635
    2DOPE   H4Y  217   5.431   5.208  15.326 -0.7942  2.3977 -0.1467
    2DOPE   C35  218   5.317   5.192  15.137 -0.0643 -0.2763 -0.1029
    2DOPE   H5X  219   5.350   5.188  15.031  2.0786 -2.6626  0.5597
    2DOPE   H5Y  220   5.252   5.280  15.154 -0.6222 -0.1558 -2.5211
    2DOPE   C36  221   5.235   5.062  15.170 -0.3603  0.0477  0.1072
    2DOPE   H6X  222   5.214   5.072  15.279  3.8701  0.1267  1.0957
    2DOPE   H6Y  223   5.304   4.978  15.148  0.1242  0.5100 -0.1665
    2DOPE   C37  224   5.111   5.054  15.079  0.3324  0.0827  0.4066
    2DOPE   H7X  225   5.053   5.144  15.109 -1.5055 -1.9884  3.6835
    2DOPE   H7Y  226   5.138   5.070  14.973 -0.9989 -0.1720  0.0143
    2DOPE   C38  227   5.040   4.923  15.099  0.3301  1.0928  0.0861
    2DOPE   H8X  228   4.945   4.925  15.040 -0.7347  0.9680  1.7314
    2DOPE   H8Y  229   5.016   4.916  15.207  2.0405 -0.1941  0.4296
    2DOPE   C39  230   5.128   4.804  15.063  0.2501  0.3236 -0.7937
    2DOPE   H9X  231   5.217   4.801  15.126  1.3964  0.7866 -2.3157
    2DOPE  C310  232   5.114   4.710  14.965  0.0816 -1.1319  0.3476
    2DOPE  H10X  233   5.180   4.623  14.976  0.4169 -1.1637 -1.4704
    2DOPE  C311  234   5.005   4.689  14.861 -0.1798 -0.5972 -0.8627
    2DOPE  H11X  235   4.934   4.615  14.905 -0.9449  2.2419  3.2592
    2DOPE  H11Y  236   4.949   4.785  14.850  0.9263 -0.0448 -1.8754
    2DOPE  C312  237   5.037   4.651  14.709 -0.3068  0.0880 -0.4741
    2DOPE  H12X  238   4.937   4.624  14.670 -1.0241  0.4710  1.0335
    2DOPE  H12Y  239   5.093   4.555  14.704 -0.5353 -0.1625  1.2301
    2DOPE  C313  240   5.107   4.759  14.625 -0.2328 -0.5613 -0.0643
    2DOPE  H13X  241   5.046   4.851  14.637 -0.3647 -0.6351 -0.1746
    2DOPE  H13Y  242   5.207   4.770  14.673 -0.2301  1.0908 -0.3883
    2DOPE  C314  243   5.107   4.714  14.472 -0.0323 -1.5120 -0.2408
    2DOPE  H14X  244   5.135   4.801  14.409 -0.7359 -1.6403 -0.7434
    2DOPE  H14Y  245   5.003   4.686  14.448 -0.9481  1.2874  0.0888
    2DOPE  C315  246   5.206   4.597  14.446  0.1962 -0.0259  0.1736
    2DOPE  H15X  247   5.174   4.555  14.349  0.9853  1.1541 -0.6282
    2DOPE  H15Y  248   5.190   4.522  14.526  0.0826  0.2020  0.3658
    2DOPE  C316  249   5.356   4.644  14.430 -0.8408 -0.2204 -0.2315
    2DOPE  H16X  250   5.388   4.668  14.533 -0.2998 -1.4145 -0.0986
    2DOPE  H16Y  251   5.345   4.739  14.374 -2.8317 -0.1097  0.2717
    2DOPE  C317  252   5.446   4.543  14.359 -0.5873 -0.7348  0.0646
    2DOPE  H17X  253   5.429   4.442  14.401  0.2685 -1.6835 -1.7603
    2DOPE  H17Y  254   5.424   4.539  14.250  3.1339  0.0322 -0.8738
    2DOPE  C318  255   5.592   4.593  14.367  0.5319  0.1965 -0.0116
    2DOPE  H18X  256   5.659   4.531  14.304 -0.4527 -1.1173  0.2043
    2DOPE  H18Y  257   5.613   4.693  14.323  3.2543 -0.4519 -0.3548
    2DOPE  H18Z  258   5.621   4.606  14.473 -0.5643 -1.0589  0.4664
    3DOPE     N  259   3.326   6.964  16.349  0.3832 -0.4120  0.1496
    3DOPE   HN1  260   3.368   6.870  16.359 -0.0274 -0.5249  0.8682
    3DOPE   HN2  261   3.392   7.031  16.392 -0.4135 -0.0518  0.8534
    3DOPE   HN3  262   3.235   6.967  16.400  0.4228  1.2301  0.1765
    3DOPE   C12  263   3.301   6.970  16.200 -0.3848  0.2097  0.6900
    3DOPE  H12A  264   3.382   7.023  16.147 -2.4869  1.4058 -1.5593
    3DOPE  H12B  265   3.203   7.020  16.182 -0.0638  0.4176 -0.6157
    3DOPE   C11  266   3.287   6.825  16.147  0.6532  0.4397  0.2653
    3DOPE  H11A  267   3.246   6.814  16.044  2.4949  0.8773 -0.5600
    3DOPE  H11B  268   3.211   6.773  16.210  3.0503  0.8316  3.7458
    3DOPE     P  269   3.541   6.775  16.107  0.5050 -0.1973 -0.3770
    3DOPE   O13  270   3.613   6.653  16.102 -0.4912 -0.0362  0.2411
    3DOPE   O14  271   3.600   6.888  16.180 -0.2181 -0.5295  0.1876
    3DOPE   O11  272   3.489   6.827  15.969 -0.2962  0.0433  0.1181
    3DOPE   O12  273   3.400   6.741  16.163 -0.8288  0.0737  0.4770
    3DOPE    C1  274   3.570   6.880  15.861 -0.3440  0.0828  0.6779
    3DOPE    HA  275   3.662   6.824  15.837 -0.7725  0.0574 -1.0329
    3DOPE    HB  276   3.600   6.984  15.886 -0.4725  0.5220 -0.9178
    3DOPE    C2  277   3.497   6.878  15.727  0.0434  0.0182  0.1325
    3DOPE    HS  278   3.417   6.953  15.745  1.5136  1.7146 -0.0996
    3DOPE   O21  279   3.441   6.745  15.701 -0.7938 -0.3604 -0.5513
    3DOPE   C21  280   3.311   6.742  15.655 -0.5298  0.3434  0.0540
    3DOPE   O22  281   3.240   6.842  15.646 -0.0416  0.3765 -0.4159
    3DOPE   C22  282   3.286   6.599  15.602  0.3434 -0.5879  0.3013
    3DOPE   H2R  283   3.279   6.528  15.688 -1.5093  0.0838  0.7431
    3DOPE   H2S  284   3.376   6.577  15.541  0.8567  1.9845 -0.0020
    3DOPE    C3  285   3.581   6.937  15.611  0.0797 -0.7465  0.6528
    3DOPE    HX  286   3.663   6.866  15.586  0.3032 -0.2329 -0.0755
    3DOPE    HY  287   3.621   7.031  15.654 -0.5454 -0.4909  0.6868
    3DOPE   O31  288   3.503   6.980  15.494  0.0434  0.4033 -0.3044
    3DOPE   C31  289   3.477   6.880  15.404 -0.1238  0.6945  0.3203
    3DOPE   O32  290   3.525   6.770  15.406 -0.6666 -0.0052  0.7072
    3DOPE   C32  291   3.401   6.936  15.292 -0.1519  0.1201  0.4099
    3DOPE   H2X  292   3.301   6.944  15.340  0.5290  2.4565  1.5742
    3DOPE   H2Y  293   3.435   7.040  15.275 -0.5628  0.1056 -0.6156
    3DOPE   C23  294   3.159   6.582  15.515  0.8182  0.1421  0.0348
    3DOPE   H3R  295   3.071   6.629  15.564  0.1929 -1.2256  0.2645
    3DOPE   H3S  296   3.130   6.477  15.496  0.6906  0.4515 -1.7018
    3DOPE   C24  297   3.166   6.646  15.379  0.5301 -0.4394 -0.4892
    3DOPE   H4R  298   3.232   6.590  15.310  2.4585 -1.6240  2.1406
    3DOPE   H4S  299   3.195   6.753  15.394 -1.1121 -0.1439  0.8950
    3DOPE   C25  300   3.035   6.668  15.306  0.4078 -0.1049  1.2209
    3DOPE   H5R  301   2.964   6.730  15.364  2.1665  1.7692  1.4692
    3DOPE   H5S  302   2.996   6.567  15.279  0.5603  0.2638 -0.4978
    3DOPE   C26  303   3.043   6.749  15.171 -0.1811  0.7726 -0.3866
    3DOPE   H6R  304   2.963   6.708  15.106 -0.1395 -0.5202  0.3513
    3DOPE   H6S  305   3.138   6.738  15.114 -0.0311 -0.5858  0.0994
    3DOPE   C27  306   3.016   6.900  15.185  0.4058 -0.1217 -0.6282
    3DOPE   H7R  307   3.078   6.942  15.267 -0.3437 -0.9795  0.4007
    3DOPE   H7S  308   2.917   6.916  15.231  1.3853 -0.9163  1.9839
    3DOPE   C28  309   3.041   6.979  15.056 -0.4280  0.2414 -0.1726
    3DOPE   H8R  310   3.137   6.951  15.008  0.5301  2.6985  0.1921
    3DOPE   H8S  311   3.057   7.085  15.083  1.1475 -0.1695  0.6183
    3DOPE   C29  312   2.920   6.948  14.960 -0.3014  0.5911  0.2005
    3DOPE   H9R  313   2.917   6.843  14.927 -3.3368 -0.0629  2.1674
    3DOPE  C210  314   2.809   7.023  14.932  0.0650 -0.0554 -1.0846
    3DOPE  H10R  315   2.722   6.982  14.878  0.0006  1.9657 -2.6566
    3DOPE  C211  316   2.803   7.168  14.979 -0.3180 -0.8030 -0.2910
    3DOPE  H11R  317   2.725   7.219  14.917 -0.4665  1.2295  1.4496
    3DOPE  H11S  318   2.901   7.211  14.952 -0.2295 -0.0653  1.1415
    3DOPE  C212  319   2.786   7.197  15.124  0.1424 -1.3519  0.0064
    3DOPE  H12R  320   2.858   7.141  15.188  0.0996  0.0122  1.3147
    3DOPE  H12S  321   2.691   7.154  15.161 -1.2515 -0.6535 -2.5621
    3DOPE  C213  322   2.786   7.348  15.160 -0.3131 -0.2079  0.4040
    3DOPE  H13R  323   2.894   7.371  15.149  0.2718 -1.9854  1.8452
    3DOPE  H13S  324   2.752   7.367  15.264 -1.0071  1.7846 -0.1461
    3DOPE  C214  325   2.699   7.438  15.066 -0.5163  0.3158  0.6247
    3DOPE  H14R  326   2.723   7.437  14.958  1.8487  1.9353  1.0583
    3DOPE  H14S  327   2.721   7.544  15.092  1.2779 -0.3273  1.9443
    3DOPE  C215  328   2.550   7.406  15.081  0.1659 -0.1164  0.7503
    3DOPE  H15R  329   2.520   7.393  15.187  1.3840 -0.4625  1.0663
    3DOPE  H15S  330   2.535   7.306  15.034  2.4376  0.1335 -0.6538
    3DOPE  C216  331   2.475   7.511  15.006 -0.6081 -0.6030  0.3235
    3DOPE  H16R  332   2.518   7.532  14.905 -0.4672 -2.2171  0.0181
    3DOPE  H16S  333   2.490   7.607  15.060 -1.2808  0.9221 -2.0203
    3DOPE  C217  334   2.326   7.488  15.008  0.9398 -0.0615 -0.1501
    3DOPE  H17R  335   2.313   7.391  14.956  0.4082  0.7445 -1.5994
    3DOPE  H17S  336   2.282   7.565  14.941  3.1622  0.0709 -1.5550
    3DOPE  C218  337   2.256   7.481  15.145  0.9825 -0.3108 -0.9087
    3DOPE  H18R  338   2.148   7.458  15.142  0.6242  1.2726 -0.7460
    3DOPE  H18S  339   2.249   7.580  15.194 -0.0891 -1.3390  1.1261
    3DOPE  H18T  340   2.308   7.404  15.205  1.1072 -2.2058 -3.2678
    3DOPE   C33  341   3.412   6.863  15.159 -0.1207  0.5020 -0.4031
    3DOPE   H3X  342   3.331   6.892  15.089  0.7084  1.8460 -0.8410
    3DOPE   H3Y  343   3.412   6.755  15.188  1.2557  0.7964  0.8290
    3DOPE   C34  344   3.540   6.901  15.079  0.2589 -0.0429 -0.2021
    3DOPE   H4X  345   3.619   6.928  15.152  1.0318 -1.7257 -0.3616
    3DOPE   H4Y  346   3.574   6.805  15.034 -1.3386 -1.8009  2.0942
    3DOPE   C35  347   3.528   7.013  14.975  0.3507 -0.1951  0.2474
    3DOPE   H5X  348   3.627   7.055  14.949 -0.3955  0.6086 -1.4976
    3DOPE   H5Y  349   3.468   7.100  15.010  2.4274  2.2240 -1.8259
    3DOPE   C36  350   3.470   6.956  14.843  0.1806 -0.3769 -0.1994
    3DOPE   H6X  351   3.375   6.907  14.872  0.5898 -1.0987 -0.0692
    3DOPE   H6Y  352   3.537   6.874  14.811  3.7628  2.1204  0.2522
    3DOPE   C37  353   3.439   7.053  14.725 -0.5696  0.2905 -0.3622
    3DOPE   H7X  354   3.371   7.136  14.751  0.2973  0.3903  1.7666
    3DOPE   H7Y  355   3.543   7.089  14.707 -0.3620 -1.1379 -2.3320
    3DOPE   C38  356   3.399   6.979  14.598  0.1624 -0.5948  0.3446
    3DOPE   H8X  357   3.304   6.922  14.608 -2.0876  2.7719  0.0245
    3DOPE   H8Y  358   3.477   6.905  14.573 -0.5304 -1.4327  0.6171
    3DOPE   C39  359   3.368   7.074  14.487 -0.5789 -0.4131  0.9535
    3DOPE   H9X  360   3.291   7.149  14.507 -1.4166 -0.8066 -0.6150
    3DOPE  C310  361   3.440   7.092  14.371  0.2763 -0.7613 -0.4777
    3DOPE  H10X  362   3.414   7.168  14.296 -1.9735 -0.7015  0.2825
    3DOPE  C311  363   3.560   7.009  14.332  0.0775  0.6160  0.0769
    3DOPE  H11X  364   3.609   6.964  14.422  0.9776 -0.5232 -0.9479
    3DOPE  H11Y  365   3.524   6.927  14.266 -2.1813  2.5748 -1.2682
    3DOPE  C312  366   3.671   7.086  14.254  0.3592 -0.5648  0.9688
    3DOPE  H12X  367   3.638   7.110  14.150  1.5866  0.1416  0.7263
    3DOPE  H12Y  368   3.760   7.022  14.233  0.6880 -0.1397  1.0523
    3DOPE  C313  369   3.720   7.220  14.316 -0.7019 -0.4181  0.0302
    3DOPE  H13X  370   3.638   7.293  14.332  1.0302  1.7553 -0.3914
    3DOPE  H13Y  371   3.774   7.193  14.409 -1.6377 -0.6179  0.5180
    3DOPE  C314  372   3.806   7.303  14.213  1.1950  0.2603 -0.1720
    3DOPE  H14X  373   3.814   7.406  14.254 -0.4676  0.7745 -1.0710
    3DOPE  H14Y  374   3.760   7.303  14.113  1.2117 -4.9213 -0.4608
    3DOPE  C315  375   3.943   7.230  14.187 -0.4919  0.3557  0.1565
    3DOPE  H15X  376   3.924   7.129  14.144  0.9688  0.8956 -1.8843
    3DOPE  H15Y  377   3.994   7.214  14.285 -1.3593  1.7505  0.8657
    3DOPE  C316  378   4.029   7.296  14.078  0.1834 -1.1079 -0.0358
    3DOPE  H16X  379   4.073   7.388  14.123  0.1478  1.1915 -4.2118
    3DOPE  H16Y  380   3.970   7.323  13.988  0.5293 -2.4821 -0.6974
    3DOPE  C317  381   4.145   7.214  14.020  0.7150  0.0885 -0.5361
    3DOPE  H17X  382   4.213   7.180  14.102 -0.8067 -0.6939  0.4498
    3DOPE  H17Y  383   4.106   7.123  13.969 -3.2350  1.2155  0.1141
    3DOPE  C318  384   4.242   7.295  13.931  0.0144 -0.4168 -0.2894
    3DOPE  H18X  385   4.335   7.239  13.908  0.4098  0.8659 -2.0182
    3DOPE  H18Y  386   4.204   7.352  13.843  2.4710  0.5795 -0.7877
    3DOPE  H18Z  387   4.282   7.373  13.999  0.0460 -2.3139  2.0026
    4DOPE     N  388   4.622   4.599  16.376 -0.4000  0.2789 -0.9597
    4DOPE   HN1  389   4.651   4.681  16.319 -0.0832 -0.0404 -1.2541
    4DOPE   HN2  390   4.696   4.575  16.445 -0.0747  1.9695 -0.6564
    4DOPE   HN3  391   4.609   4.515  16.317 -0.5806 -0.7436  0.4710
    4DOPE   C12  392   4.494   4.647  16.447 -0.0197  0.3512  0.3066
    4DOPE  H12A  393   4.515   4.739  16.506 -0.6641 -0.5598  2.0268
    4DOPE  H12B  394   4.467   4.567  16.519 -1.0443  0.3002 -0.1276
    4DOPE   C11  395   4.374   4.667  16.352 -0.3609  0.3756  0.0795
    4DOPE  H11A  396   4.397   4.728  16.262  0.6684  2.4332  1.6352
    4DOPE  H11B  397   4.300   4.718  16.418  0.5943  0.0701  1.4201
    4DOPE     P  398   4.181   4.518  16.246  0.0805  0.1615  0.0817
    4DOPE   O13  399   4.076   4.511  16.348 -0.2077  0.4418  0.0747
    4DOPE   O14  400   4.191   4.397  16.159 -0.1943 -0.1645 -0.1055
    4DOPE   O11  401   4.167   4.655  16.172 -0.7185  0.3768 -0.0851
    4DOPE   O12  402   4.323   4.536  16.314  1.1016 -0.0345 -0.5873
    4DOPE    C1  403   4.241   4.660  16.047 -0.5367  0.1876 -0.6422
    4DOPE    HA  404   4.336   4.604  16.057 -0.4513  0.1201 -1.6952
    4DOPE    HB  405   4.264   4.766  16.022  0.9904  0.1162  0.3952
    4DOPE    C2  406   4.156   4.603  15.930  0.1434 -0.1315  0.1745
    4DOPE    HS  407   4.153   4.492  15.936  1.8292 -0.1843  0.3403
    4DOPE   O21  408   4.214   4.645  15.801 -0.0677  0.0571 -0.3361
    4DOPE   C21  409   4.317   4.577  15.760  0.2151  0.1796 -0.6371
    4DOPE   O22  410   4.360   4.470  15.802  0.2815  0.2280 -0.1948
    4DOPE   C22  411   4.382   4.649  15.646 -0.8323  0.1367 -0.2049
    4DOPE   H2R  412   4.452   4.722  15.691 -1.6624  0.4666  0.5860
    4DOPE   H2S  413   4.305   4.714  15.598  0.0804  2.2910  1.0900
    4DOPE    C3  414   4.002   4.654  15.931 -0.3963  0.2244 -0.1553
    4DOPE    HX  415   4.014   4.764  15.936  1.1378  0.0511  0.3743
    4DOPE    HY  416   3.948   4.628  16.024  0.2248  1.6096  0.6274
    4DOPE   O31  417   3.927   4.620  15.810  0.4449 -0.3736 -0.0252
    4DOPE   C31  418   3.900   4.491  15.800  0.4944 -0.3881 -0.0978
    4DOPE   O32  419   3.895   4.412  15.888  0.1691 -0.0488 -0.2559
    4DOPE   C32  420   3.885   4.456  15.651  0.0824 -0.2272 -0.9056
    4DOPE   H2X  421   3.799   4.512  15.609  0.4833 -0.4349 -2.0281
    4DOPE   H2Y  422   3.976   4.490  15.598  0.2766 -0.1922 -0.5539
    4DOPE   C23  423   4.436   4.554  15.532 -0.1133 -0.2104 -0.2025
    4DOPE   H3R  424   4.514   4.480  15.561 -0.6659 -0.9069 -0.4696
    4DOPE   H3S  425   4.494   4.603  15.451 -0.0184 -2.5031 -1.6040
    4DOPE   C24  426   4.309   4.488  15.470  0.3160 -0.5124  0.1878
    4DOPE   H4R  427   4.237   4.567  15.438 -1.0667 -1.2299  1.3938
    4DOPE   H4S  428   4.251   4.434  15.548  0.9585 -0.9779  0.3503
    4DOPE   C25  429   4.329   4.391  15.355 -0.0722  0.4886 -0.1598
    4DOPE   H5R  430   4.227   4.363  15.321 -1.2589  4.7479 -0.6870
    4DOPE   H5S  431   4.389   4.302  15.383  0.9066  1.0348 -0.4746
    4DOPE   C26  432   4.402   4.454  15.237 -0.4277 -0.6284 -0.1046
    4DOPE   H6R  433   4.496   4.511  15.256  0.1853 -1.8103  0.4706
    4DOPE   H6S  434   4.336   4.532  15.194  1.3944  0.2048 -1.5292
    4DOPE   C27  435   4.424   4.350  15.130 -0.2462 -0.2110 -0.0014
    4DOPE   H7R  436   4.324   4.332  15.085 -0.4143 -2.9951  1.2589
    4DOPE   H7S  437   4.458   4.254  15.173 -0.0697 -1.8551 -3.4588
    4DOPE   C28  438   4.524   4.379  15.015 -0.1384  0.8033 -0.2363
    4DOPE   H8R  439   4.524   4.287  14.953 -4.7091  0.2018  0.3418
    4DOPE   H8S  440   4.630   4.382  15.048 -0.2495 -3.3932  1.0329
    4DOPE   C29  441   4.482   4.494  14.927 -0.3358  0.0136 -0.6044
    4DOPE   H9R  442   4.409   4.468  14.849 -1.4302 -1.2068  0.7580
    4DOPE  C210  443   4.505   4.626  14.943  1.2174  0.2771  0.9634
    4DOPE  H10R  444   4.456   4.691  14.869  1.0325 -1.9833 -1.0263
    4DOPE  C211  445   4.582   4.678  15.062  0.7683 -0.7434  0.6121
    4DOPE  H11R  446   4.677   4.717  15.020  1.0505 -2.5251 -0.5303
    4DOPE  H11S  447   4.624   4.602  15.132 -0.9323 -2.0756  0.2618
    4DOPE  C212  448   4.519   4.789  15.152  0.0976 -0.1435 -0.1286
    4DOPE  H12R  449   4.420   4.753  15.188  0.3090 -1.1948 -0.5723
    4DOPE  H12S  450   4.500   4.884  15.099  1.3304  0.9649  1.3296
    4DOPE  C213  451   4.609   4.837  15.277  0.6166  0.2944  0.4668
    4DOPE  H13R  452   4.711   4.861  15.239  0.9719 -0.3276  1.0170
    4DOPE  H13S  453   4.632   4.746  15.337 -1.3520  0.7189  1.9854
    4DOPE  C214  454   4.551   4.954  15.354 -0.3413 -0.0872  0.5467
    4DOPE  H14R  455   4.458   4.916  15.401  2.0284 -3.6757  2.8064
    4DOPE  H14S  456   4.538   5.042  15.287 -0.0833 -2.0303 -2.2377
    4DOPE  C215  457   4.638   4.981  15.480 -0.0687  0.0357  0.5357
    4DOPE  H15R  458   4.661   4.886  15.534  0.0047 -1.7605 -2.4708
    4DOPE  H15S  459   4.585   5.054  15.545 -0.6577  1.7313 -1.7322
    4DOPE  C216  460   4.766   5.057  15.441 -0.0405 -0.1692 -0.1547
    4DOPE  H16R  461   4.750   5.167  15.439 -0.9585 -0.2851  0.2418
    4DOPE  H16S  462   4.810   5.020  15.346 -0.2904  1.6653 -1.0252
    4DOPE  C217  463   4.867   5.049  15.556  0.8964 -0.0542  0.0103
    4DOPE  H17R  464   4.896   4.947  15.589 -0.4209  0.0807  1.7280
    4DOPE  H17S  465   4.810   5.096  15.639 -0.1383  1.0717 -1.2911
    4DOPE  C218  466   4.983   5.145  15.541  0.4234 -0.2791  0.3434
    4DOPE  H18R  467   4.967   5.255  15.533  2.3433  0.1350  1.4022
    4DOPE  H18S  468   5.040   5.107  15.453 -0.1353  0.9137 -0.5785
    4DOPE  H18T  469   5.033   5.146  15.640  1.0327  0.4695  0.0346
    4DOPE   C33  470   3.879   4.299  15.633  0.3826 -1.0358 -0.2446
    4DOPE   H3X  471   3.793   4.286  15.564  0.0888 -0.9031  0.0932
    4DOPE   H3Y  472   3.838   4.256  15.727 -2.4688  0.8471 -0.5003
    4DOPE   C34  473   4.009   4.234  15.589 -0.5616  0.0323 -0.1490
    4DOPE   H4X  474   3.978   4.131  15.562  0.6745 -1.1953  2.7622
    4DOPE   H4Y  475   4.054   4.281  15.499 -1.0691  0.7453 -0.0420
    4DOPE   C35  476   4.103   4.214  15.710  0.3208  0.2307  0.4631
    4DOPE   H5X  477   4.039   4.185  15.796 -0.6160 -0.3990 -0.4276
    4DOPE   H5Y  478   4.155   4.307  15.740  0.4356  0.3015  0.0456
    4DOPE   C36  479   4.205   4.105  15.698  0.1123  0.0448  0.9826
    4DOPE   H6X  480   4.155   4.006  15.688  1.2039 -0.4743  0.3926
    4DOPE   H6Y  481   4.255   4.100  15.797  0.1149 -0.9240  0.9422
    4DOPE   C37  482   4.304   4.122  15.587  0.4362  0.1234 -0.7050
    4DOPE   H7X  483   4.247   4.123  15.492 -0.1408  0.1355 -0.3664
    4DOPE   H7Y  484   4.346   4.223  15.607 -0.6940  0.8787 -1.9840
    4DOPE   C38  485   4.407   4.011  15.595 -0.3985 -0.5102  0.2409
    4DOPE   H8X  486   4.359   3.913  15.575 -0.4077 -0.1989 -1.3951
    4DOPE   H8Y  487   4.449   4.005  15.697 -3.5741  1.5319  1.8040
    4DOPE   C39  488   4.515   4.034  15.491 -0.2259 -0.6022  0.1743
    4DOPE   H9X  489   4.607   4.060  15.546 -0.4697 -0.3615  0.4658
    4DOPE  C310  490   4.516   4.025  15.361  0.1812  0.2444  0.8236
    4DOPE  H10X  491   4.607   4.055  15.305  0.1158 -1.8269 -0.4810
    4DOPE  C311  492   4.395   3.966  15.286 -0.9401 -0.6762  0.5587
    4DOPE  H11X  493   4.352   3.878  15.337 -0.5191 -1.1405  0.1199
    4DOPE  H11Y  494   4.320   4.047  15.280 -0.4615 -0.3555 -2.2645
    4DOPE  C312  495   4.427   3.943  15.142  0.1773 -0.1570 -0.6596
    4DOPE  H12X  496   4.494   3.855  15.132 -1.7025 -1.6761 -0.4033
    4DOPE  H12Y  497   4.469   4.037  15.100 -1.5760  1.4230  0.9366
    4DOPE  C313  498   4.295   3.924  15.069  0.0606  0.1493 -0.4181
    4DOPE  H13X  499   4.319   3.864  14.979  3.4996  2.5594 -1.2987
    4DOPE  H13Y  500   4.214   3.881  15.133  0.8205  1.2752  1.3795
    4DOPE  C314  501   4.246   4.052  15.006 -0.4621  0.2531 -0.0725
    4DOPE  H14X  502   4.334   4.105  14.964 -0.3793  1.2723  1.2973
    4DOPE  H14Y  503   4.211   4.124  15.083 -1.2926 -0.4446  0.2165
    4DOPE  C315  504   4.144   4.029  14.899  0.6986 -0.3209 -0.1902
    4DOPE  H15X  505   4.177   3.958  14.820  2.2345 -0.2727  0.3722
    4DOPE  H15Y  506   4.124   4.127  14.852  0.3390  0.9157  2.3603
    4DOPE  C316  507   4.006   3.981  14.956 -0.5508  0.1992 -0.2425
    4DOPE  H16X  508   3.973   4.046  15.040 -0.9928  0.4994 -0.6459
    4DOPE  H16Y  509   4.020   3.876  14.990 -3.7288  0.5061  2.5175
    4DOPE  C317  510   3.901   3.993  14.846  0.3503 -0.1611 -0.3545
    4DOPE  H17X  511   3.885   4.099  14.816  0.6015 -0.0742 -0.1845
    4DOPE  H17Y  512   3.934   3.942  14.754 -0.6673 -0.9280 -0.3112
    4DOPE  C318  513   3.772   3.920  14.897 -0.1241 -0.1482  0.4796
    4DOPE  H18X  514   3.727   3.985  14.975  1.8302  2.3869 -0.3645
    4DOPE  H18Y  515   3.699   3.909  14.813  0.4123 -0.3420  0.0274
    4DOPE  H18Z  516   3.785   3.820  14.944 -1.0735 -1.0591 -1.0976
    5DOPE     N  517   0.930   4.215  16.707 -0.2395 -0.1525  0.0787
    5DOPE   HN1  518   0.903   4.196  16.805  0.9774  3.3650  1.2348
    5DOPE   HN2  519   0.911   4.315  16.687 -3.4501 -1.0779 -2.6425
    5DOPE   HN3  520   0.869   4.170  16.635  2.0425 -2.0367 -0.8164
    5DOPE   C12  521   1.068   4.163  16.680 -0.8698  0.0682  0.1284
    5DOPE  H12A  522   1.086   4.067  16.734 -1.3351  1.1603  2.3424
    5DOPE  H12B  523   1.142   4.229  16.732 -0.1403 -2.0591  1.9452
    5DOPE   C11  524   1.085   4.164  16.524 -0.3926  0.3678 -0.0267
    5DOPE  H11A  525   1.190   4.165  16.490 -0.2608  1.2989  0.3698
    5DOPE  H11B  526   1.049   4.259  16.479 -1.1742 -0.4842 -1.2532
    5DOPE     P  527   1.038   3.903  16.463 -0.4038 -0.1139  0.0415
    5DOPE   O13  528   0.917   3.831  16.427 -0.5147  0.4690 -0.0731
    5DOPE   O14  529   1.113   3.861  16.584 -0.2281  0.2927 -0.1593
    5DOPE   O11  530   1.141   3.913  16.341  0.2122  0.8908  0.5042
    5DOPE   O12  531   1.009   4.056  16.484 -0.1836  0.2791  0.0796
    5DOPE    C1  532   1.138   3.986  16.220 -0.0360 -0.6923 -0.2421
    5DOPE    HA  533   1.245   4.009  16.198 -0.1833 -0.2450 -0.4940
    5DOPE    HB  534   1.102   4.090  16.236  1.8941  0.2388 -1.5238
    5DOPE    C2  535   1.091   3.909  16.097  0.3174 -0.2788 -0.0640
    5DOPE    HS  536   1.003   3.847  16.123  0.8724 -1.9765 -1.9679
    5DOPE   O21  537   1.197   3.822  16.074 -0.1207 -0.0625  0.2816
    5DOPE   C21  538   1.158   3.732  15.982  0.2647  0.2236 -0.6393
    5DOPE   O22  539   1.042   3.721  15.938 -0.0291 -0.1581  0.6704
    5DOPE   C22  540   1.274   3.632  15.952  0.3727 -0.5319  0.3069
    5DOPE   H2R  541   1.238   3.571  15.866  0.3474  1.0859 -0.8698
    5DOPE   H2S  542   1.289   3.561  16.037  0.6113 -1.0189 -0.1372
    5DOPE    C3  543   1.055   4.007  15.979 -0.2275  0.0530  0.0286
    5DOPE    HX  544   0.959   4.053  16.012 -0.3863  0.2604 -0.7181
    5DOPE    HY  545   1.025   3.952  15.888  0.5234 -2.1494  1.0488
    5DOPE   O31  546   1.163   4.097  15.950 -1.5296 -0.3497  0.4304
    5DOPE   C31  547   1.264   4.063  15.875  0.3066  0.1481 -0.8405
    5DOPE   O32  548   1.275   3.957  15.814  0.4109 -0.4379 -0.2483
    5DOPE   C32  549   1.363   4.179  15.870 -0.7216  0.0111 -0.7330
    5DOPE   H2X  550   1.411   4.177  15.770  0.7628  0.2085 -0.0475
    5DOPE   H2Y  551   1.299   4.270  15.870 -0.5795  0.1119 -0.7503
    5DOPE   C23  552   1.405   3.700  15.916  0.0405 -0.1463 -0.2110
    5DOPE   H3R  553   1.433   3.777  15.991  0.6072 -0.7560  0.2159
    5DOPE   H3S  554   1.404   3.749  15.816  1.8263  1.4499  0.4938
    5DOPE   C24  555   1.524   3.608  15.909 -0.4670  0.0845 -0.9710
    5DOPE   H4R  556   1.498   3.521  15.846 -2.1439 -0.4049  0.3296
    5DOPE   H4S  557   1.536   3.561  16.009 -1.7780 -2.2010 -1.8358
    5DOPE   C25  558   1.638   3.686  15.856  0.3659 -0.1516  0.1819
    5DOPE   H5R  559   1.653   3.780  15.913  0.2730 -0.1618  0.2236
    5DOPE   H5S  560   1.607   3.716  15.753  1.6810 -0.5938 -0.3625
    5DOPE   C26  561   1.767   3.606  15.861  0.4612  0.0999  0.3014
    5DOPE   H6R  562   1.775   3.552  15.957 -2.2009 -1.9433 -0.5272
    5DOPE   H6S  563   1.850   3.679  15.846 -1.4106  1.9620 -1.8785
    5DOPE   C27  564   1.761   3.502  15.745  0.1696 -0.0564 -0.2940
    5DOPE   H7R  565   1.768   3.555  15.648  2.0431 -1.5835 -1.0580
    5DOPE   H7S  566   1.660   3.455  15.755 -0.1107  0.0167 -2.4098
    5DOPE   C28  567   1.871   3.390  15.749  0.4065  0.4303  0.1069
    5DOPE   H8R  568   1.968   3.442  15.766 -0.5721  1.4684  3.3017
    5DOPE   H8S  569   1.879   3.348  15.647 -3.7650 -1.4944  0.3908
    5DOPE   C29  570   1.856   3.290  15.863 -0.5144 -0.1870  0.0319
    5DOPE   H9R  571   1.852   3.334  15.964  0.1538 -1.3879  0.5965
    5DOPE  C210  572   1.854   3.160  15.850  0.5902 -0.2459  0.7743
    5DOPE  H10R  573   1.839   3.101  15.941 -1.3827  1.1511  1.4142
    5DOPE  C211  574   1.877   3.071  15.728 -0.4926  0.2028 -0.1125
    5DOPE  H11R  575   1.886   3.137  15.639 -1.1062 -1.6811 -1.6356
    5DOPE  H11S  576   1.788   3.006  15.713  1.2347 -2.2164 -0.3835
    5DOPE  C212  577   2.012   2.998  15.728  0.1880 -0.1466 -0.1600
    5DOPE  H12R  578   2.009   2.932  15.817 -1.8930 -0.5116 -0.4450
    5DOPE  H12S  579   2.092   3.074  15.742 -0.5252  0.4484  0.8036
    5DOPE  C213  580   2.039   2.898  15.616 -0.5557  0.2160 -0.2322
    5DOPE  H13R  581   2.133   2.844  15.643  0.0627  0.9178 -0.9302
    5DOPE  H13S  582   2.055   2.951  15.520  1.6604  2.2346  1.1404
    5DOPE  C214  583   1.930   2.793  15.609 -0.1607  0.9337 -0.1885
    5DOPE  H14R  584   1.834   2.838  15.573 -0.4567 -0.0274 -0.6286
    5DOPE  H14S  585   1.920   2.756  15.713  1.4430  0.5668 -0.1436
    5DOPE  C215  586   1.967   2.668  15.522 -0.4887  0.8134  0.8973
    5DOPE  H15R  587   1.894   2.594  15.561 -1.4606  1.1627 -0.2011
    5DOPE  H15S  588   2.072   2.634  15.531 -0.2543  0.1324 -2.7974
    5DOPE  C216  589   1.926   2.696  15.370 -0.8322 -0.0904 -0.1573
    5DOPE  H16R  590   1.980   2.788  15.338  2.6758 -1.8857  0.0957
    5DOPE  H16S  591   1.817   2.720  15.364 -0.5261  1.0366 -1.9979
    5DOPE  C217  592   1.956   2.576  15.273 -0.2094  0.2074 -0.8604
    5DOPE  H17R  593   2.066   2.567  15.266 -0.0395  1.7397 -0.5495
    5DOPE  H17S  594   1.937   2.599  15.166  2.7324 -0.4305 -1.5858
    5DOPE  C218  595   1.880   2.446  15.312  0.4169  0.1346  0.8398
    5DOPE  H18R  596   1.773   2.475  15.295  0.7827  1.5668  0.8034
    5DOPE  H18S  597   1.888   2.417  15.418 -4.3430  0.0153  1.3956
    5DOPE  H18T  598   1.901   2.355  15.252 -1.5570  0.3885 -0.3409
    5DOPE   C33  599   1.470   4.160  15.985 -0.8879 -0.2735 -0.4435
    5DOPE   H3X  600   1.421   4.097  16.063 -0.0145  0.5106  0.7669
    5DOPE   H3Y  601   1.508   4.246  16.043  2.2901 -2.1744  0.4976
    5DOPE   C34  602   1.597   4.092  15.927 -0.7874 -0.1881 -0.5799
    5DOPE   H4X  603   1.575   3.985  15.905  0.6087 -0.3912 -1.0446
    5DOPE   H4Y  604   1.622   4.140  15.830 -0.9533 -1.5760 -1.3389
    5DOPE   C35  605   1.721   4.093  16.022  0.2490  0.4446 -0.7183
    5DOPE   H5X  606   1.697   4.035  16.114  1.2642  1.2717  0.0992
    5DOPE   H5Y  607   1.747   4.198  16.048 -1.3962  1.0280 -1.2721
    5DOPE   C36  608   1.851   4.020  15.976  0.5696 -0.2136  0.3570
    5DOPE   H6X  609   1.826   3.922  15.930 -4.7380  0.4023  1.2486
    5DOPE   H6Y  610   1.927   3.997  16.054 -2.0807  0.7750  3.4767
    5DOPE   C37  611   1.910   4.098  15.855  0.3052 -0.4006  0.6070
    5DOPE   H7X  612   1.830   4.101  15.778 -0.9389 -0.3121  1.8669
    5DOPE   H7Y  613   1.936   4.199  15.891 -0.5590  0.1842 -0.3525
    5DOPE   C38  614   2.030   4.040  15.784 -0.0851 -0.3523  0.3305
    5DOPE   H8X  615   2.112   4.076  15.849 -2.5265  4.8815  0.9941
    5DOPE   H8Y  616   2.043   4.088  15.685  0.8247 -0.8803  0.1833
    5DOPE   C39  617   2.039   3.893  15.767  0.4954  0.2794 -0.2588
    5DOPE   H9X  618   2.066   3.836  15.858  0.0445 -0.1616 -0.3953
    5DOPE  C310  619   2.018   3.820  15.656 -0.4349 -0.1846 -0.1482
    5DOPE  H10X  620   2.039   3.712  15.668  0.5537  0.1544  1.5987
    5DOPE  C311  621   1.987   3.873  15.514 -0.3710  0.3993 -0.1882
    5DOPE  H11X  622   1.977   3.983  15.515  0.4028  0.4780 -0.5454
    5DOPE  H11Y  623   2.076   3.849  15.452 -0.8292  0.1045 -0.7443
    5DOPE  C312  624   1.860   3.808  15.454  1.1239  0.5537  0.0784
    5DOPE  H12X  625   1.865   3.698  15.465 -2.5564 -0.0123 -2.0510
    5DOPE  H12Y  626   1.858   3.840  15.347  0.4640 -0.8536 -0.3503
    5DOPE  C313  627   1.730   3.864  15.509 -0.1571  0.0671  0.0387
    5DOPE  H13X  628   1.740   3.844  15.618 -0.1114  0.0238  0.0268
    5DOPE  H13Y  629   1.719   3.975  15.509 -1.0494  0.0115 -1.7565
    5DOPE  C314  630   1.604   3.805  15.447  0.4128  0.2415 -0.3312
    5DOPE  H14X  631   1.628   3.697  15.457  0.2704  0.3614  1.6319
    5DOPE  H14Y  632   1.592   3.841  15.343 -0.8238  1.1209  0.0981
    5DOPE  C315  633   1.474   3.844  15.517  0.2533  0.0596 -0.2824
    5DOPE  H15X  634   1.469   3.954  15.529  1.2151  0.7465 -4.6997
    5DOPE  H15Y  635   1.474   3.796  15.618 -0.2209  0.4785 -0.0764
    5DOPE  C316  636   1.349   3.801  15.438 -0.1576 -0.3526 -0.3420
    5DOPE  H16X  637   1.370   3.694  15.415  3.1871  0.4674 -1.6193
    5DOPE  H16Y  638   1.335   3.853  15.341  0.4578  2.0351  0.7677
    5DOPE  C317  639   1.225   3.815  15.519 -0.5258  0.8137 -0.3763
    5DOPE  H17X  640   1.236   3.748  15.607 -2.2357 -0.6986 -1.2402
    5DOPE  H17Y  641   1.214   3.914  15.568 -0.3583  2.0461 -2.6541
    5DOPE  C318  642   1.109   3.766  15.437  0.2090  0.2151  0.1865
    5DOPE  H18X  643   1.082   3.852  15.373  0.3253  0.3555  0.3274
    5DOPE  H18Y  644   1.132   3.675  15.377 -1.0505 -1.3048  1.8965
    5DOPE  H18Z  645   1.025   3.734  15.502  1.3178 -2.2242  0.5582
    6DOPE     N  646   3.126   4.409  16.420  0.1344 -0.4764  1.0943
    6DOPE   HN1  647   3.199   4.401  16.493  1.7710  2.8791  0.0556
    6DOPE   HN2  648   3.118   4.512  16.404 -0.5286 -0.4269  1.6864
    6DOPE   HN3  649   3.034   4.376  16.455 -1.2281 -0.1526 -1.8918
    6DOPE   C12  650   3.157   4.344  16.292  0.0403 -0.0091  0.0414
    6DOPE  H12A  651   3.146   4.236  16.312 -0.3247  0.0988  0.4352
    6DOPE  H12B  652   3.263   4.363  16.262  0.2139  0.3410  0.8469
    6DOPE   C11  653   3.054   4.370  16.177 -0.4941  0.5305 -0.6652
    6DOPE  H11A  654   2.952   4.336  16.205 -0.1319 -1.5267 -1.6330
    6DOPE  H11B  655   3.094   4.310  16.092 -1.0068  0.4435 -0.8447
    6DOPE     P  656   2.931   4.590  16.083  0.3049  0.0079 -0.0297
    6DOPE   O13  657   2.979   4.712  16.014  0.1683 -0.2662  0.5164
    6DOPE   O14  658   2.834   4.615  16.193 -0.6731 -0.0772  0.4540
    6DOPE   O11  659   2.856   4.486  15.988  0.9439  0.3201  0.2380
    6DOPE   O12  660   3.058   4.505  16.127 -0.3456  0.0876  0.0069
    6DOPE    C1  661   2.851   4.507  15.844 -0.4784  0.4218  0.2212
    6DOPE    HA  662   2.845   4.408  15.793 -2.5399  0.4674  0.3058
    6DOPE    HB  663   2.941   4.559  15.805  1.3961 -0.8659  2.5617
    6DOPE    C2  664   2.714   4.573  15.784 -0.2721 -0.1919 -0.4076
    6DOPE    HS  665   2.702   4.660  15.851  3.1548 -0.2773  0.4937
    6DOPE   O21  666   2.614   4.471  15.781  0.1557  0.3958  0.3297
    6DOPE   C21  667   2.535   4.469  15.888 -0.6627  0.3110 -0.5923
    6DOPE   O22  668   2.536   4.552  15.977 -0.3515 -0.2009 -0.1162
    6DOPE   C22  669   2.438   4.351  15.881 -0.5939 -0.0572  0.2610
    6DOPE   H2R  670   2.469   4.280  15.960 -2.3047 -0.2711  0.7827
    6DOPE   H2S  671   2.454   4.298  15.784 -0.0549  1.5617 -0.5901
    6DOPE    C3  672   2.724   4.631  15.640 -0.1401  0.5314 -0.5805
    6DOPE    HX  673   2.792   4.719  15.643  2.4202 -1.3453  2.0390
    6DOPE    HY  674   2.625   4.661  15.601 -0.8607 -2.2044 -1.0946
    6DOPE   O31  675   2.780   4.539  15.542 -0.0171  0.0489  0.6356
    6DOPE   C31  676   2.913   4.528  15.521  0.0433 -0.0923  0.4733
    6DOPE   O32  677   2.989   4.610  15.571  0.2899 -0.0045  0.1010
    6DOPE   C32  678   2.958   4.416  15.436 -0.5358  0.1160  0.2411
    6DOPE   H2X  679   2.962   4.330  15.507  1.1424  1.7668  2.2842
    6DOPE   H2Y  680   2.882   4.398  15.356  1.1091  0.7360 -1.5181
    6DOPE   C23  681   2.291   4.392  15.899 -0.4701 -0.5960 -0.0832
    6DOPE   H3R  682   2.278   4.480  15.965 -4.3586  0.5499 -2.0448
    6DOPE   H3S  683   2.231   4.315  15.950  1.8920 -0.7457  2.7536
    6DOPE   C24  684   2.225   4.417  15.763 -0.5240 -0.0950 -0.7174
    6DOPE   H4R  685   2.115   4.401  15.767 -0.3174 -2.9253 -2.8534
    6DOPE   H4S  686   2.264   4.331  15.705  0.2859  1.0026 -1.8409
    6DOPE   C25  687   2.255   4.550  15.695 -0.3292 -0.3209  0.4520
    6DOPE   H5R  688   2.200   4.553  15.599 -0.0658 -0.8275  0.2809
    6DOPE   H5S  689   2.362   4.549  15.663  0.0092  0.3634  1.5402
    6DOPE   C26  690   2.216   4.665  15.787  0.2850  0.5021 -0.9995
    6DOPE   H6R  691   2.286   4.671  15.873 -2.6450 -0.4828  1.6626
    6DOPE   H6S  692   2.121   4.633  15.835  1.3688 -1.0678  0.2166
    6DOPE   C27  693   2.204   4.804  15.725 -0.3975  0.0329 -0.5125
    6DOPE   H7R  694   2.111   4.819  15.667  0.2955  2.5715 -1.0509
    6DOPE   H7S  695   2.285   4.814  15.651  0.1455 -0.0465  0.0626
    6DOPE   C28  696   2.228   4.923  15.824  0.1316 -0.1492 -0.8583
    6DOPE   H8R  697   2.333   4.911  15.858  0.4524 -0.7662 -2.0044
    6DOPE   H8S  698   2.153   4.901  15.903 -0.8474 -1.1297 -2.0023
    6DOPE   C29  699   2.211   5.060  15.758 -0.1044  0.0203  0.8950
    6DOPE   H9R  700   2.303   5.119  15.769  0.4592 -1.0770  2.2960
    6DOPE  C210  701   2.100   5.120  15.715 -0.1282 -0.5539  0.0829
    6DOPE  H10R  702   2.107   5.227  15.687 -1.0471  0.1680  2.3429
    6DOPE  C211  703   1.961   5.059  15.720 -0.1243 -0.6075 -0.0419
    6DOPE  H11R  704   1.954   5.023  15.825  2.4728  1.9955  1.1667
    6DOPE  H11S  705   1.952   4.976  15.647 -1.2426 -0.1893 -0.3936
    6DOPE  C212  706   1.838   5.158  15.691 -0.3445  0.0984  0.1943
    6DOPE  H12R  707   1.846   5.206  15.591 -0.9044 -0.3091 -0.0498
    6DOPE  H12S  708   1.853   5.240  15.765  1.0256 -0.4696  0.5931
    6DOPE  C213  709   1.698   5.093  15.714  0.5862 -0.3563  0.0793
    6DOPE  H13R  710   1.690   5.049  15.815 -0.0322  1.1979  0.7366
    6DOPE  H13S  711   1.684   5.003  15.651  1.5184 -0.9095  0.6505
    6DOPE  C214  712   1.579   5.194  15.707 -0.0648  0.0888  0.0736
    6DOPE  H14R  713   1.615   5.296  15.682 -3.1658  1.9402  2.4439
    6DOPE  H14S  714   1.536   5.201  15.810  0.0522  2.2667  0.0292
    6DOPE  C215  715   1.466   5.145  15.609  0.5754  0.2118 -0.1390
    6DOPE  H15R  716   1.414   5.063  15.664  1.4057  1.0445  2.0284
    6DOPE  H15S  717   1.534   5.110  15.528  1.6120  0.5867  0.5446
    6DOPE  C216  718   1.378   5.260  15.561 -0.5089 -0.4782 -0.5739
    6DOPE  H16R  719   1.344   5.209  15.468  1.0827 -4.2274  0.7256
    6DOPE  H16S  720   1.428   5.351  15.521 -0.7600 -1.8811 -4.5557
    6DOPE  C217  721   1.266   5.291  15.661 -0.1303 -0.2399 -0.2916
    6DOPE  H17R  722   1.318   5.336  15.748 -0.0661 -1.3609  0.2649
    6DOPE  H17S  723   1.219   5.203  15.709 -1.4729  1.0670  0.8954
    6DOPE  C218  724   1.155   5.382  15.604  0.1399  0.6761 -0.4843
    6DOPE  H18R  725   1.194   5.482  15.576  2.1839 -0.1916 -0.9227
    6DOPE  H18S  726   1.068   5.399  15.672  0.8604  3.8704 -0.2133
    6DOPE  H18T  727   1.117   5.334  15.511  1.8998  1.4287 -1.6297
    6DOPE   C33  728   3.096   4.426  15.367  0.5567 -0.0506  0.3953
    6DOPE   H3X  729   3.181   4.440  15.436  1.1575  0.6513 -0.4560
    6DOPE   H3Y  730   3.089   4.517  15.303 -1.7646  0.1414  0.8206
    6DOPE   C34  731   3.130   4.308  15.273 -0.3659  0.3310 -0.4541
    6DOPE   H4X  732   3.150   4.229  15.348 -1.2322  1.0475  0.5607
    6DOPE   H4Y  733   3.037   4.284  15.218 -2.1659 -2.0190  3.2578
    6DOPE   C35  734   3.248   4.337  15.186  0.9123  0.3379 -0.1483
    6DOPE   H5X  735   3.338   4.360  15.246  0.8886  1.9812 -0.7034
    6DOPE   H5Y  736   3.231   4.428  15.125  2.7734  0.0901 -1.1338
    6DOPE   C36  737   3.283   4.209  15.102  0.3486 -0.2014  0.5432
    6DOPE   H6X  738   3.184   4.179  15.061 -0.2003  0.2605  1.5013
    6DOPE   H6Y  739   3.331   4.125  15.157  0.5868 -0.2887  0.2035
    6DOPE   C37  740   3.385   4.237  14.988 -0.1275  0.4502  0.0894
    6DOPE   H7X  741   3.355   4.340  14.959 -1.5008 -0.3720 -1.5934
    6DOPE   H7Y  742   3.480   4.238  15.045 -0.1901  0.3414  0.1946
    6DOPE   C38  743   3.394   4.138  14.877 -0.5404 -0.1151  0.6724
    6DOPE   H8X  744   3.298   4.135  14.820  1.0946 -1.5604 -2.2437
    6DOPE   H8Y  745   3.384   4.036  14.919 -1.1455 -1.4786 -2.4530
    6DOPE   C39  746   3.508   4.156  14.777  0.4780  0.5021 -0.7643
    6DOPE   H9X  747   3.606   4.169  14.827  0.6632 -1.5717 -0.5245
    6DOPE  C310  748   3.501   4.159  14.644 -0.1356  0.3189  1.0482
    6DOPE  H10X  749   3.601   4.161  14.598 -0.3399  0.1141  0.5853
    6DOPE  C311  750   3.377   4.158  14.553 -0.0617  0.5106 -0.7772
    6DOPE  H11X  751   3.305   4.084  14.594 -0.0240  0.5656 -0.6143
    6DOPE  H11Y  752   3.324   4.257  14.554 -0.5484  0.2581  0.8913
    6DOPE  C312  753   3.418   4.130  14.409  0.0285 -0.2106 -0.6741
    6DOPE  H12X  754   3.327   4.120  14.347  0.6823  2.3671 -2.1803
    6DOPE  H12Y  755   3.486   4.042  14.406  2.9552  1.7465  2.0181
    6DOPE  C313  756   3.513   4.236  14.348  0.1849  0.2123  0.1137
    6DOPE  H13X  757   3.483   4.338  14.380 -1.0501 -0.1770  0.2707
    6DOPE  H13Y  758   3.620   4.218  14.368  0.3442  0.9687 -0.0436
    6DOPE  C314  759   3.485   4.234  14.201 -0.3976 -0.3818 -0.1109
    6DOPE  H14X  760   3.377   4.254  14.187 -0.2537  1.4357  1.1005
    6DOPE  H14Y  761   3.496   4.137  14.147  1.6482 -0.0670 -0.3214
    6DOPE  C315  762   3.575   4.334  14.129  0.3623 -0.2772 -0.1993
    6DOPE  H15X  763   3.557   4.441  14.155  0.2953 -0.2634 -0.2996
    6DOPE  H15Y  764   3.548   4.311  14.024  1.3567 -0.6282 -0.3840
    6DOPE  C316  765   3.731   4.309  14.139  0.0603 -0.8451 -0.3725
    6DOPE  H16X  766   3.743   4.202  14.114  0.0091 -0.7321 -0.9000
    6DOPE  H16Y  767   3.764   4.335  14.241  0.1544 -0.2216 -0.5551
    6DOPE  C317  768   3.803   4.404  14.043 -0.3942  0.2057  0.1430
    6DOPE  H17X  769   3.771   4.375  13.941 -1.6325  2.5125 -0.1918
    6DOPE  H17Y  770   3.769   4.508  14.061 -1.8557 -0.3543  0.7796
    6DOPE  C318  771   3.954   4.399  14.056  0.6250 -0.3807 -0.8517
    6DOPE  H18X  772   3.985   4.410  14.162  1.9178 -2.7155 -0.9251
    6DOPE  H18Y  773   3.996   4.301  14.023 -0.3579 -0.5172 -1.7446
    6DOPE  H18Z  774   3.998   4.478  13.992  0.0589 -0.8160 -1.8216
    7DOPE     N  775   5.876   7.370  16.228 -0.1269 -0.3869  0.5493
    7DOPE   HN1  776   5.861   7.268  16.245 -2.5946 -0.3238 -0.8248
    7DOPE   HN2  777   5.899   7.411  16.321 -1.0227  2.1218 -0.2590
    7DOPE   HN3  778   5.781   7.401  16.199 -0.9238 -2.4316  0.7718
    7DOPE   C12  779   5.994   7.386  16.137 -0.6979  0.2811  0.4120
    7DOPE  H12A  780   5.992   7.318  16.049 -2.4198  1.9758 -0.9231
    7DOPE  H12B  781   6.086   7.369  16.198 -1.1257 -0.4887  0.8585
    7DOPE   C11  782   5.987   7.532  16.103  0.0763  0.3358  0.4233
    7DOPE  H11A  783   6.084   7.559  16.056 -0.5510  2.6382  0.3470
    7DOPE  H11B  784   5.975   7.581  16.202 -1.0809  1.3115 -0.1766
    7DOPE     P  785   5.788   7.685  16.023  0.2979 -0.4500  0.4512
    7DOPE   O13  786   5.782   7.724  16.170  0.0392 -0.4038  0.7337
    7DOPE   O14  787   5.670   7.661  15.945  0.1130  0.5045  0.5811
    7DOPE   O11  788   5.870   7.804  15.942 -0.1494  0.1535 -0.2950
    7DOPE   O12  789   5.877   7.554  16.021  0.1376 -0.1730  0.0302
    7DOPE    C1  790   5.942   7.765  15.830  0.1307 -0.3015 -0.5667
    7DOPE    HA  791   5.929   7.831  15.741 -2.8406 -0.4975 -0.3709
    7DOPE    HB  792   5.928   7.659  15.800 -0.2360 -0.8178  1.3055
    7DOPE    C2  793   6.093   7.782  15.859  0.7288  0.6525  0.1768
    7DOPE    HS  794   6.126   7.713  15.939 -0.9949  0.6659  0.9471
    7DOPE   O21  795   6.120   7.917  15.893  0.2074  0.0390 -0.2179
    7DOPE   C21  796   6.201   7.930  16.001  0.6058  0.4749 -0.2722
    7DOPE   O22  797   6.250   7.836  16.062  0.3171 -0.3006  0.3329
    7DOPE   C22  798   6.213   8.077  16.042 -0.7586 -0.2522 -0.2090
    7DOPE   H2R  799   6.310   8.088  16.096 -0.9038  0.9786 -0.1607
    7DOPE   H2S  800   6.133   8.093  16.118 -1.0898 -0.6957 -0.4627
    7DOPE    C3  801   6.182   7.744  15.734  0.8588 -0.0716 -0.1703
    7DOPE    HX  802   6.288   7.771  15.754  0.4666  1.1038  0.4373
    7DOPE    HY  803   6.157   7.823  15.660  3.6984  2.2066  1.0601
    7DOPE   O31  804   6.146   7.617  15.682 -0.3359 -0.7780  0.2068
    7DOPE   C31  805   6.253   7.560  15.625 -0.1936 -0.1539 -0.1654
    7DOPE   O32  806   6.362   7.611  15.612 -0.3711 -0.0044 -0.5623
    7DOPE   C32  807   6.214   7.437  15.556  0.5085 -0.0057 -1.1358
    7DOPE   H2X  808   6.213   7.356  15.632 -1.1604 -1.4796 -2.6282
    7DOPE   H2Y  809   6.105   7.445  15.537  0.4791 -1.0297 -1.4704
    7DOPE   C23  810   6.197   8.173  15.921  0.0190  0.1668  0.4355
    7DOPE   H3R  811   6.092   8.194  15.892 -0.4792 -0.2403  1.8482
    7DOPE   H3S  812   6.238   8.131  15.827 -1.9402  4.0569 -2.4612
    7DOPE   C24  813   6.267   8.314  15.936 -0.2623  0.0836  0.0367
    7DOPE   H4R  814   6.376   8.294  15.947 -0.0736  0.8333 -0.4139
    7DOPE   H4S  815   6.228   8.366  16.026 -0.5022  0.2263 -0.1477
    7DOPE   C25  816   6.253   8.417  15.820  0.3588  0.7419 -0.3542
    7DOPE   H5R  817   6.287   8.384  15.719  2.9744 -1.4555  1.0959
    7DOPE   H5S  818   6.333   8.490  15.845  2.3632 -1.3001 -0.5062
    7DOPE   C26  819   6.117   8.498  15.822 -0.3049  0.4579  0.4442
    7DOPE   H6R  820   6.093   8.544  15.921  1.4761  1.4268  0.4736
    7DOPE   H6S  821   6.036   8.424  15.804 -2.4543  2.3423  1.7505
    7DOPE   C27  822   6.117   8.614  15.722  0.3191  0.6760  0.0575
    7DOPE   H7R  823   6.140   8.576  15.620  2.4663  0.3267  0.6140
    7DOPE   H7S  824   6.206   8.678  15.745  0.5113  0.4142  0.0453
    7DOPE   C28  825   5.997   8.711  15.728  0.4895 -0.9428  0.9331
    7DOPE   H8R  826   5.992   8.728  15.838 -0.6971  0.2534  0.7156
    7DOPE   H8S  827   5.901   8.665  15.698 -0.8634  2.4600 -0.4795
    7DOPE   C29  828   6.016   8.847  15.667 -0.1191 -0.2036 -0.3899
    7DOPE   H9R  829   6.085   8.917  15.716  0.4325  0.6649 -2.2919
    7DOPE  C210  830   5.970   8.889  15.549 -1.1411  0.0588  0.0217
    7DOPE  H10R  831   6.008   8.982  15.504 -3.0652  1.1920  0.5793
    7DOPE  C211  832   5.867   8.821  15.469  0.3717 -0.0330 -0.1314
    7DOPE  H11R  833   5.868   8.713  15.494  1.2002  0.3012  1.4466
    7DOPE  H11S  834   5.884   8.835  15.360  0.3928 -0.7747 -0.2279
    7DOPE  C212  835   5.731   8.871  15.514 -0.9817  0.5352 -0.2770
    7DOPE  H12R  836   5.719   8.876  15.625 -2.5296 -0.7743 -0.3432
    7DOPE  H12S  837   5.658   8.795  15.480 -0.2238 -0.2209 -0.2295
    7DOPE  C213  838   5.697   9.004  15.451 -0.1374  0.4030  0.1162
    7DOPE  H13R  839   5.663   8.981  15.348  0.0228  0.3895  0.0669
    7DOPE  H13S  840   5.787   9.067  15.438  1.8877 -2.1635  0.7674
    7DOPE  C214  841   5.581   9.076  15.521  0.1630 -0.1099  0.3770
    7DOPE  H14R  842   5.616   9.105  15.622  1.0637  1.8612 -0.4345
    7DOPE  H14S  843   5.488   9.017  15.526 -1.2967  1.9885 -0.5532
    7DOPE  C215  844   5.524   9.199  15.449  0.5876  0.2505  0.1617
    7DOPE  H15R  845   5.524   9.179  15.340  1.7843 -0.1058  0.2099
    7DOPE  H15S  846   5.599   9.280  15.462  1.1979 -0.5780  2.2512
    7DOPE  C216  847   5.385   9.238  15.498  0.2393  0.1381  0.5308
    7DOPE  H16R  848   5.385   9.283  15.599  0.0679  0.3141  0.4533
    7DOPE  H16S  849   5.312   9.155  15.488 -0.1396  0.4482  0.6873
    7DOPE  C217  850   5.316   9.347  15.405 -0.0037  0.8040 -0.0404
    7DOPE  H17R  851   5.379   9.439  15.400 -1.1969  1.7161  0.9808
    7DOPE  H17S  852   5.225   9.366  15.466 -0.8882 -1.3295 -0.6259
    7DOPE  C218  853   5.279   9.299  15.263  0.1461 -0.1530 -0.1715
    7DOPE  H18R  854   5.364   9.271  15.198  0.1426  1.6563 -0.9965
    7DOPE  H18S  855   5.225   9.373  15.200  0.1763 -0.5547 -0.6768
    7DOPE  H18T  856   5.206   9.216  15.274 -2.8237  2.1259 -1.3297
    7DOPE   C33  857   6.292   7.398  15.433  0.3494  0.0764  0.4923
    7DOPE   H3X  858   6.397   7.379  15.465 -0.5751 -3.8367  1.8552
    7DOPE   H3Y  859   6.298   7.478  15.357  0.6751 -0.4063  0.0041
    7DOPE   C34  860   6.236   7.261  15.390  0.0787  0.1307  0.0123
    7DOPE   H4X  861   6.315   7.202  15.338  0.9996  0.8417  0.5584
    7DOPE   H4Y  862   6.186   7.201  15.469 -0.0912  0.9436  0.5321
    7DOPE   C35  863   6.135   7.291  15.281 -0.1968  0.5240  0.6254
    7DOPE   H5X  864   6.186   7.354  15.206 -0.8894  0.5853  0.1947
    7DOPE   H5Y  865   6.040   7.329  15.325 -1.2627 -1.1202 -0.1734
    7DOPE   C36  866   6.091   7.165  15.199  0.1802  0.5482  0.3248
    7DOPE   H6X  867   6.008   7.113  15.250  0.3715 -2.5295 -2.2216
    7DOPE   H6Y  868   6.175   7.094  15.180  2.1972  2.7554  0.4844
    7DOPE   C37  869   6.028   7.203  15.069  0.7410 -0.2455  0.5845
    7DOPE   H7X  870   5.947   7.278  15.083  0.0281 -0.9668  0.4042
    7DOPE   H7Y  871   6.104   7.263  15.015 -1.6690  0.9934 -1.6539
    7DOPE   C38  872   5.988   7.080  14.986 -0.5796  0.5378  0.8957
    7DOPE   H8X  873   5.951   7.001  15.054 -2.3518  1.7846  1.4484
    7DOPE   H8Y  874   6.080   7.034  14.945 -1.0736  0.2797  0.0446
    7DOPE   C39  875   5.888   7.117  14.877 -0.5178  0.0459  0.3192
    7DOPE   H9X  876   5.806   7.185  14.906 -1.2324  0.4595 -2.3778
    7DOPE  C310  877   5.880   7.064  14.752 -0.8676 -0.1534  0.7115
    7DOPE  H10X  878   5.808   7.113  14.686  1.0770  1.2335 -0.4943
    7DOPE  C311  879   5.980   6.961  14.695  0.5362  0.0294 -0.1798
    7DOPE  H11X  880   6.052   6.932  14.774 -1.2721 -0.1498  1.4702
    7DOPE  H11Y  881   5.919   6.871  14.673  1.0782 -0.8343  1.6497
    7DOPE  C312  882   6.037   7.020  14.565 -0.2840 -0.1215  0.0626
    7DOPE  H12X  883   6.099   7.106  14.596  3.1992 -1.0883 -3.3705
    7DOPE  H12Y  884   5.945   7.055  14.515 -0.2458  0.5605  0.4578
    7DOPE  C313  885   6.117   6.929  14.473  0.4621  0.1096 -0.1517
    7DOPE  H13X  886   6.207   6.896  14.529  0.1304 -3.0033 -1.2734
    7DOPE  H13Y  887   6.065   6.834  14.450  1.0042  0.2512 -2.1911
    7DOPE  C314  888   6.146   6.989  14.333 -0.3080 -0.7660  0.2444
    7DOPE  H14X  889   6.213   6.924  14.274  0.5081  2.0939 -2.2379
    7DOPE  H14Y  890   6.210   7.074  14.366  0.7627 -1.5025  0.1213
    7DOPE  C315  891   6.014   7.015  14.259  0.0054  0.0485 -0.0098
    7DOPE  H15X  892   5.958   7.094  14.313  0.6140  0.5177 -0.0573
    7DOPE  H15Y  893   5.948   6.926  14.265 -0.9783  0.8368  1.4496
    7DOPE  C316  894   6.043   7.069  14.116  0.3967 -0.1033 -0.5416
    7DOPE  H16X  895   6.136   7.128  14.099 -0.5104  1.6713  0.4319
    7DOPE  H16Y  896   5.954   7.132  14.096  0.8767  0.4428 -1.0111
    7DOPE  C317  897   6.045   6.947  14.030 -0.4616  0.0121  0.3261
    7DOPE  H17X  898   6.145   6.898  14.032 -0.9169 -1.0021 -0.8546
    7DOPE  H17Y  899   5.974   6.875  14.075 -0.6012  0.9064  1.5820
    7DOPE  C318  900   6.016   6.967  13.889 -0.3080  0.4794 -0.7403
    7DOPE  H18X  901   6.080   7.042  13.836 -1.4997  1.4968 -0.7740
    7DOPE  H18Y  902   6.034   6.873  13.832 -3.6416  0.7399 -2.4448
    7DOPE  H18Z  903   5.913   7.008  13.880 -0.4629 -0.1588 -2.1877
    8DOPE     N  904   5.459   7.447  16.012 -0.1825  0.1544  0.5416
    8DOPE   HN1  905   5.478   7.545  15.983 -1.8522  0.9495  1.9608
    8DOPE   HN2  906   5.357   7.431  16.015  0.1436 -2.1594  1.7010
    8DOPE   HN3  907   5.494   7.432  16.109 -1.1759 -1.4917  0.6702
    8DOPE   C12  908   5.520   7.350  15.910  0.3543  0.1563 -0.6032
    8DOPE  H12A  909   5.489   7.249  15.943 -0.7616  0.7234  0.1625
    8DOPE  H12B  910   5.630   7.360  15.921  0.1266  1.6295  0.6762
    8DOPE   C11  911   5.459   7.372  15.770 -0.8768 -0.7072  0.2810
    8DOPE  H11A  912   5.495   7.286  15.708 -0.6729 -0.0824 -0.4796
    8DOPE  H11B  913   5.497   7.466  15.726 -2.3972  1.0887  2.6199
    8DOPE     P  914   5.214   7.283  15.785 -0.1915  0.1968 -0.0909
    8DOPE   O13  915   5.084   7.343  15.818  0.2370 -0.5272 -0.0323
    8DOPE   O14  916   5.268   7.182  15.878 -0.6710 -0.1022 -0.4294
    8DOPE   O11  917   5.233   7.224  15.642 -0.0430  0.1788 -0.0425
    8DOPE   O12  918   5.314   7.400  15.772  0.1944  0.2824 -0.0332
    8DOPE    C1  919   5.156   7.252  15.529  0.1057 -0.0235 -0.5409
    8DOPE    HA  920   5.197   7.339  15.474  2.9251 -0.8261  0.1253
    8DOPE    HB  921   5.048   7.263  15.552 -0.9289 -3.4536 -2.8806
    8DOPE    C2  922   5.150   7.147  15.406  0.3626  0.2833  0.4657
    8DOPE    HS  923   5.106   7.052  15.444 -2.2818  1.5904  0.8783
    8DOPE   O21  924   5.279   7.129  15.350  0.2467 -0.1018 -0.5592
    8DOPE   C21  925   5.361   7.046  15.415 -0.1578  0.0140 -0.0653
    8DOPE   O22  926   5.335   6.975  15.509  0.5507  0.1616 -0.8721
    8DOPE   C22  927   5.500   7.049  15.349  0.5251 -0.0645  0.1192
    8DOPE   H2R  928   5.556   7.140  15.380 -0.8396  1.2597 -1.1125
    8DOPE   H2S  929   5.498   7.059  15.238  0.1208 -0.7814  0.0563
    8DOPE    C3  930   5.057   7.205  15.293  0.3430 -0.3078  0.1075
    8DOPE    HX  931   5.113   7.282  15.236  0.2506 -0.6802 -0.4942
    8DOPE    HY  932   4.975   7.261  15.342  0.7527  0.4451 -0.0573
    8DOPE   O31  933   5.010   7.100  15.211 -0.0396  0.6589  0.5009
    8DOPE   C31  934   4.913   7.020  15.253  0.2087 -0.7345  0.5123
    8DOPE   O32  935   4.840   7.041  15.349 -0.1579 -0.3880  0.3226
    8DOPE   C32  936   4.893   6.908  15.155  0.2022 -0.2484 -0.1164
    8DOPE   H2X  937   4.987   6.850  15.145 -0.0404 -1.0814  2.0384
    8DOPE   H2Y  938   4.814   6.836  15.185  0.2484 -0.8946 -1.4830
    8DOPE   C23  939   5.585   6.931  15.400  0.4093 -0.2260 -0.0031
    8DOPE   H3R  940   5.527   6.838  15.417  0.0545  0.0278  0.1743
    8DOPE   H3S  941   5.621   6.961  15.501  0.0729  0.3238 -0.0445
    8DOPE   C24  942   5.711   6.899  15.326 -0.4611  0.2364 -0.3932
    8DOPE   H4R  943   5.793   6.972  15.314 -0.1036 -0.0083  0.4530
    8DOPE   H4S  944   5.689   6.865  15.222 -1.5843  1.6669 -0.6594
    8DOPE   C25  945   5.781   6.790  15.414  0.6504  0.5726 -0.7008
    8DOPE   H5R  946   5.734   6.690  15.400 -2.9041  2.0106  0.0572
    8DOPE   H5S  947   5.779   6.806  15.523  1.4069  0.0099 -0.5972
    8DOPE   C26  948   5.933   6.779  15.380 -0.4876  0.1930  0.2127
    8DOPE   H6R  949   5.956   6.780  15.272  0.5969  1.7558  0.4230
    8DOPE   H6S  950   5.972   6.678  15.405 -1.2282 -0.1696 -0.0755
    8DOPE   C27  951   6.021   6.895  15.441 -0.0673  0.6929 -0.2874
    8DOPE   H7R  952   5.996   6.901  15.549 -0.3910 -1.7583 -0.1785
    8DOPE   H7S  953   5.982   6.989  15.396 -1.0985  1.1282  1.4389
    8DOPE   C28  954   6.174   6.889  15.403 -0.6924  0.1127  0.1123
    8DOPE   H8R  955   6.209   6.985  15.447  0.5364 -1.2792  2.3324
    8DOPE   H8S  956   6.163   6.884  15.293 -0.5121  0.0419  0.0988
    8DOPE   C29  957   6.262   6.777  15.455  0.4375  0.2481  0.2011
    8DOPE   H9R  958   6.249   6.763  15.564  0.6158  4.8629  1.0295
    8DOPE  C210  959   6.340   6.693  15.380  0.0591 -0.0344 -0.2996
    8DOPE  H10R  960   6.389   6.610  15.433  1.0359  0.7171 -0.0123
    8DOPE  C211  961   6.361   6.686  15.229  0.7378 -0.5165 -0.0039
    8DOPE  H11R  962   6.467   6.703  15.201 -0.0511  2.6349 -1.5297
    8DOPE  H11S  963   6.294   6.749  15.167  2.1431 -0.8346 -1.9166
    8DOPE  C212  964   6.310   6.546  15.176 -0.5587 -0.7065  0.0146
    8DOPE  H12R  965   6.311   6.563  15.066 -0.2792 -0.1044  0.1029
    8DOPE  H12S  966   6.205   6.534  15.210 -0.0723 -0.2950  1.8007
    8DOPE  C213  967   6.398   6.433  15.217  0.6621  0.1442  0.1972
    8DOPE  H13R  968   6.363   6.362  15.139 -0.2011  1.1004 -0.3090
    8DOPE  H13S  969   6.381   6.401  15.322 -1.9098  0.2012 -0.1568
    8DOPE  C214  970   6.547   6.447  15.201 -0.3689  0.2727 -0.2226
    8DOPE  H14R  971   6.595   6.520  15.270  1.6599 -0.7191 -0.5367
    8DOPE  H14S  972   6.568   6.487  15.099  1.9272 -1.2736 -0.4121
    8DOPE  C215  973   6.624   6.315  15.224 -0.0912  0.3990 -0.8206
    8DOPE  H15R  974   6.730   6.337  15.201  0.1174  0.5454  0.2389
    8DOPE  H15S  975   6.598   6.232  15.155 -0.0988 -2.1672  2.0770
    8DOPE  C216  976   6.620   6.260  15.364 -0.0434  0.0995  0.0892
    8DOPE  H16R  977   6.523   6.217  15.395  1.0395 -3.2543 -0.7328
    8DOPE  H16S  978   6.632   6.340  15.440  1.1085  1.0725 -1.0727
    8DOPE  C217  979   6.715   6.146  15.385  0.5590 -1.0132 -0.0062
    8DOPE  H17R  980   6.814   6.185  15.353  0.9559 -1.0562  1.1268
    8DOPE  H17S  981   6.685   6.059  15.323 -0.3201  0.0870 -1.1800
    8DOPE  C218  982   6.717   6.108  15.534  0.5280  0.1326  0.6670
    8DOPE  H18R  983   6.626   6.051  15.562  0.7017 -0.1730  0.6128
    8DOPE  H18S  984   6.719   6.200  15.597 -1.6876  1.5895 -1.2145
    8DOPE  H18T  985   6.802   6.038  15.549  0.2344 -0.1061  1.2637
    8DOPE   C33  986   4.853   6.977  15.017  0.0345 -0.0022 -0.4616
    8DOPE   H3X  987   4.943   7.028  14.975  0.2869 -0.5110 -0.5390
    8DOPE   H3Y  988   4.774   7.055  15.027  2.1717  2.0195  2.6828
    8DOPE   C34  989   4.797   6.871  14.929 -0.7391 -0.1302 -0.4354
    8DOPE   H4X  990   4.840   6.775  14.965 -3.5602 -1.0982  0.5579
    8DOPE   H4Y  991   4.688   6.864  14.914 -0.5035 -2.9247 -1.3570
    8DOPE   C35  992   4.850   6.892  14.784  0.6624 -0.0956 -0.0736
    8DOPE   H5X  993   4.960   6.899  14.773  0.7235  1.1134  1.0367
    8DOPE   H5Y  994   4.820   6.992  14.747 -0.2920 -0.5447 -0.5676
    8DOPE   C36  995   4.783   6.794  14.689 -0.0853 -0.4267 -0.6536
    8DOPE   H6X  996   4.674   6.808  14.671 -0.1089 -1.4231 -1.3375
    8DOPE   H6Y  997   4.793   6.688  14.718 -0.6417  0.1965  2.0626
    8DOPE   C37  998   4.852   6.821  14.549  0.1218  0.5490  0.1001
    8DOPE   H7X  999   4.866   6.928  14.523 -2.9152  1.9124  3.2556
    8DOPE   H7Y 1000   4.957   6.785  14.553  0.2915  1.1365  1.3219
    8DOPE   C38 1001   4.778   6.745  14.432  0.2427 -0.1255 -0.0335
    8DOPE   H8X 1002   4.682   6.799  14.416 -0.2652 -0.9102  0.2987
    8DOPE   H8Y 1003   4.761   6.641  14.467 -0.9689 -0.5442 -1.7178
    8DOPE   C39 1004   4.848   6.739  14.297  0.6978 -0.1516 -0.0313
    8DOPE   H9X 1005   4.860   6.838  14.250 -3.4059  0.4111 -0.3015
    8DOPE  C310 1006   4.897   6.629  14.230 -0.6821 -0.5784 -0.0986
    8DOPE  H10X 1007   4.945   6.647  14.133  0.8533 -1.4585  0.4710
    8DOPE  C311 1008   4.897   6.487  14.269  0.2541 -0.3004 -0.0719
    8DOPE  H11X 1009   4.860   6.479  14.373 -1.5831 -2.2077 -0.7957
    8DOPE  H11Y 1010   4.828   6.445  14.193  0.4334  2.8698 -2.2193
    8DOPE  C312 1011   5.030   6.421  14.255 -0.7287  0.4700 -0.5512
    8DOPE  H12X 1012   5.027   6.310  14.266 -0.1875  0.5421  0.4983
    8DOPE  H12Y 1013   5.090   6.466  14.338 -0.7012 -2.2934  1.0593
    8DOPE  C313 1014   5.104   6.433  14.120 -0.2371 -0.6460  0.3986
    8DOPE  H13X 1015   5.034   6.387  14.047 -1.7422  0.3557  1.1500
    8DOPE  H13Y 1016   5.122   6.540  14.098 -1.9901 -0.4860 -0.4935
    8DOPE  C314 1017   5.247   6.369  14.124 -0.1963  0.1311  0.1598
    8DOPE  H14X 1018   5.238   6.267  14.167 -0.9981 -0.0302 -0.3715
    8DOPE  H14Y 1019   5.322   6.420  14.189  1.5100 -1.8377 -0.1622
    8DOPE  C315 1020   5.312   6.361  13.986  0.8447 -0.5143  0.1436
    8DOPE  H15X 1021   5.298   6.460  13.937 -1.8430 -0.9260 -0.1223
    8DOPE  H15Y 1022   5.262   6.292  13.915  1.2911  1.7885 -2.5777
    8DOPE  C316 1023   5.458   6.317  13.995 -0.0489 -0.4163  0.1608
    8DOPE  H16X 1024   5.468   6.215  14.038 -0.6746 -0.4052  0.3441
    8DOPE  H16Y 1025   5.517   6.385  14.061  0.1669  1.1795 -1.6023
    8DOPE  C317 1026   5.524   6.341  13.853 -0.3169  0.7824 -0.2970
    8DOPE  H17X 1027   5.480   6.277  13.774  1.3371 -2.5484  1.2418
    8DOPE  H17Y 1028   5.497   6.444  13.823 -1.5180  0.5193 -0.1947
    8DOPE  C318 1029   5.673   6.310  13.851  0.2039 -0.8613 -1.0090
    8DOPE  H18X 1030   5.689   6.236  13.769 -0.8815 -1.5744 -0.5857
    8DOPE  H18Y 1031   5.712   6.282  13.951  0.3856  0.8330 -0.5774
    8DOPE  H18Z 1032   5.727   6.404  13.826 -0.4457 -0.2495 -0.1290
    9DOPE     N 1033   1.157   2.132  16.186 -0.0367 -0.5502  0.9363
    9DOPE   HN1 1034   1.102   2.128  16.274 -1.3504 -1.6036  0.0990
    9DOPE   HN2 1035   1.117   2.061  16.122 -1.8325 -0.0780  1.4809
    9DOPE   HN3 1036   1.260   2.119  16.196  0.4412 -0.0568 -2.2142
    9DOPE   C12 1037   1.129   2.267  16.122  0.2915 -0.2999 -0.0148
    9DOPE  H12A 1038   1.198   2.277  16.036 -0.9894  0.2799 -1.0143
    9DOPE  H12B 1039   1.138   2.342  16.203 -0.1550 -1.2342  0.9173
    9DOPE   C11 1040   0.989   2.277  16.059  0.4712 -0.1936  0.3153
    9DOPE  H11A 1041   0.977   2.215  15.968  0.2346  0.8034 -0.3569
    9DOPE  H11B 1042   0.989   2.377  16.011  0.1297 -1.1926 -1.8923
    9DOPE     P 1043   0.762   2.349  16.162  0.2141 -0.3045 -0.5812
    9DOPE   O13 1044   0.814   2.490  16.155  0.4167  0.3192  0.5278
    9DOPE   O14 1045   0.682   2.311  16.279 -0.0171  0.0273  0.2256
    9DOPE   O11 1046   0.684   2.295  16.033  0.5749  0.2935 -0.7485
    9DOPE   O12 1047   0.885   2.253  16.160  0.4329 -0.7171 -0.7996
    9DOPE    C1 1048   0.729   2.307  15.901 -0.1995  0.1906 -0.2335
    9DOPE    HA 1049   0.728   2.204  15.857 -1.0779  0.4834 -0.9349
    9DOPE    HB 1050   0.822   2.365  15.882 -0.1853  0.3395  0.2839
    9DOPE    C2 1051   0.618   2.386  15.825  0.1326 -0.3056 -0.7169
    9DOPE    HS 1052   0.644   2.405  15.719 -1.7312 -0.3208 -1.2196
    9DOPE   O21 1053   0.597   2.513  15.887  0.5090 -0.0553 -0.2281
    9DOPE   C21 1054   0.699   2.595  15.882  0.9231  0.1224  1.2627
    9DOPE   O22 1055   0.803   2.579  15.821 -0.1703 -0.1564 -0.4049
    9DOPE   C22 1056   0.657   2.732  15.945 -0.7514 -0.2245 -1.1762
    9DOPE   H2R 1057   0.673   2.721  16.055  0.3649 -0.2420 -1.3204
    9DOPE   H2S 1058   0.547   2.745  15.936 -0.7550 -1.2119 -2.8435
    9DOPE    C3 1059   0.489   2.306  15.826 -0.2560 -0.3324  0.7877
    9DOPE    HX 1060   0.461   2.294  15.933 -0.4438 -2.2803  0.5523
    9DOPE    HY 1061   0.516   2.206  15.786  0.1863 -0.0966  0.4880
    9DOPE   O31 1062   0.388   2.373  15.733 -0.2931  0.5496 -0.8434
    9DOPE   C31 1063   0.322   2.481  15.780  0.9515  0.8117 -0.5702
    9DOPE   O32 1064   0.328   2.517  15.897  0.3956  0.0010 -0.1129
    9DOPE   C32 1065   0.242   2.548  15.667  0.8728 -0.4944  0.8631
    9DOPE   H2X 1066   0.232   2.491  15.572 -0.0024 -0.0585  0.6916
    9DOPE   H2Y 1067   0.138   2.564  15.702 -0.2836 -0.3730 -2.3211
    9DOPE   C23 1068   0.744   2.844  15.882 -0.0241 -0.4084 -0.2743
    9DOPE   H3R 1069   0.847   2.803  15.867 -0.5328 -0.8521 -3.0063
    9DOPE   H3S 1070   0.736   2.934  15.947 -0.6473 -1.1306  0.6797
    9DOPE   C24 1071   0.689   2.912  15.757  0.7491  0.7025 -0.6960
    9DOPE   H4R 1072   0.595   2.966  15.779  0.0776  0.4431 -2.7336
    9DOPE   H4S 1073   0.656   2.828  15.692 -0.0095 -0.8059  1.5187
    9DOPE   C25 1074   0.783   3.004  15.685  0.3137 -0.0554  0.2041
    9DOPE   H5R 1075   0.872   2.945  15.656 -0.6965 -1.4628 -0.1097
    9DOPE   H5S 1076   0.807   3.079  15.763  0.3255  0.5732 -0.3911
    9DOPE   C26 1077   0.728   3.086  15.565 -1.1359 -0.2880 -0.6817
    9DOPE   H6R 1078   0.810   3.158  15.545 -0.4922 -1.0283 -0.7555
    9DOPE   H6S 1079   0.645   3.145  15.611 -0.7233  0.3129 -0.6966
    9DOPE   C27 1080   0.684   2.999  15.453  0.6208  0.2497  0.2122
    9DOPE   H7R 1081   0.620   2.921  15.498 -0.2346  1.9705  2.1287
    9DOPE   H7S 1082   0.771   2.945  15.408 -0.2302 -2.0277  1.1603
    9DOPE   C28 1083   0.614   3.084  15.344  0.7893 -0.9581 -0.6352
    9DOPE   H8R 1084   0.681   3.167  15.314  0.8271 -0.3065  1.1310
    9DOPE   H8S 1085   0.535   3.149  15.387 -0.2694 -1.5868 -1.5811
    9DOPE   C29 1086   0.547   3.004  15.226 -0.3659 -0.8149 -0.3662
    9DOPE   H9R 1087   0.458   2.955  15.269  0.1110  0.6073  2.5376
    9DOPE  C210 1088   0.592   2.973  15.103  0.1421  0.2074 -0.2925
    9DOPE  H10R 1089   0.532   2.904  15.042 -0.5080 -0.6135  1.2149
    9DOPE  C211 1090   0.729   3.019  15.050 -0.2240 -0.7350 -0.6983
    9DOPE  H11R 1091   0.799   2.947  15.097  0.6054  0.5210  0.0411
    9DOPE  H11S 1092   0.754   3.124  15.078  1.1951 -1.6287  1.6566
    9DOPE  C212 1093   0.763   3.008  14.904  0.4042  0.3160  0.3636
    9DOPE  H12R 1094   0.675   3.037  14.844  1.6010 -0.6404 -1.9815
    9DOPE  H12S 1095   0.790   2.901  14.888 -0.4086  0.3775 -1.8036
    9DOPE  C213 1096   0.878   3.093  14.855 -0.2651 -0.2009  0.4934
    9DOPE  H13R 1097   0.969   3.083  14.918  1.6488  1.2895 -1.8265
    9DOPE  H13S 1098   0.851   3.201  14.861  1.7010  0.5293 -1.8199
    9DOPE  C214 1099   0.921   3.073  14.709  0.2533  0.1692  0.2870
    9DOPE  H14R 1100   0.825   3.075  14.652  0.4246 -1.5382 -0.1284
    9DOPE  H14S 1101   0.973   2.975  14.710  1.9432  0.9981 -0.9203
    9DOPE  C215 1102   1.006   3.196  14.657  0.8887  1.0381 -0.4600
    9DOPE  H15R 1103   1.093   3.219  14.723  1.3250 -0.4173 -0.4871
    9DOPE  H15S 1104   0.954   3.294  14.648  0.0795  0.7289  0.5970
    9DOPE  C216 1105   1.078   3.152  14.529 -0.0731  1.4724 -0.1098
    9DOPE  H16R 1106   1.003   3.103  14.464  1.2342 -2.6228  1.1267
    9DOPE  H16S 1107   1.151   3.070  14.549 -1.0753 -0.2015 -2.7093
    9DOPE  C217 1108   1.171   3.263  14.463  0.2446  0.1280  0.0348
    9DOPE  H17R 1109   1.235   3.306  14.543  0.9234 -1.0117  0.1312
    9DOPE  H17S 1110   1.106   3.345  14.428  2.8529  1.9225 -0.9386
    9DOPE  C218 1111   1.253   3.210  14.352 -0.1563  0.0981 -0.6333
    9DOPE  H18R 1112   1.178   3.191  14.272 -2.5651  0.1742  1.4644
    9DOPE  H18S 1113   1.287   3.110  14.386 -1.7297  0.4326  2.2367
    9DOPE  H18T 1114   1.334   3.276  14.314 -0.3760  0.7005 -0.0854
    9DOPE   C33 1115   0.276   2.698  15.634 -0.4870 -0.8285 -0.6125
    9DOPE   H3X 1116   0.332   2.749  15.716 -1.9861 -1.2739  0.7550
    9DOPE   H3Y 1117   0.187   2.757  15.605 -1.1844 -0.4295  2.0431
    9DOPE   C34 1118   0.383   2.700  15.518 -0.3592  0.4420 -0.5265
    9DOPE   H4X 1119   0.338   2.673  15.420  0.1164  2.0457 -1.2151
    9DOPE   H4Y 1120   0.420   2.804  15.510  1.5387 -0.1570 -0.1642
    9DOPE   C35 1121   0.508   2.613  15.551  0.1288 -0.0556 -0.3328
    9DOPE   H5X 1122   0.494   2.504  15.571  0.8766 -0.2048 -0.6025
    9DOPE   H5Y 1123   0.547   2.649  15.649  0.7842  1.8648 -1.2676
    9DOPE   C36 1124   0.609   2.617  15.445 -0.4594 -0.1173 -0.8439
    9DOPE   H6X 1125   0.606   2.715  15.394 -2.8411 -0.5757 -1.6764
    9DOPE   H6Y 1126   0.597   2.540  15.366 -1.8043 -1.1661  0.3366
    9DOPE   C37 1127   0.761   2.592  15.496  0.7297 -0.0871 -0.7776
    9DOPE   H7X 1128   0.784   2.672  15.570 -2.2725  0.6260 -0.4917
    9DOPE   H7Y 1129   0.766   2.492  15.544  2.8085  1.3712  2.3795
    9DOPE   C38 1130   0.861   2.595  15.380 -0.4698 -0.0085  0.1110
    9DOPE   H8X 1131   0.819   2.673  15.313  0.8864  0.2931 -0.4258
    9DOPE   H8Y 1132   0.843   2.501  15.322 -1.8242 -0.8138  1.7511
    9DOPE   C39 1133   1.006   2.611  15.413 -0.0350 -0.6953 -0.2998
    9DOPE   H9X 1134   1.062   2.529  15.460 -0.2606 -0.9808 -0.5285
    9DOPE  C310 1135   1.078   2.723  15.382  0.0819 -0.9153 -0.8383
    9DOPE  H10X 1136   1.187   2.726  15.392 -0.1096 -0.8294  2.4021
    9DOPE  C311 1137   1.026   2.828  15.284 -0.5081 -0.1972 -0.0340
    9DOPE  H11X 1138   0.916   2.843  15.282 -0.4033  0.4741 -1.0983
    9DOPE  H11Y 1139   1.068   2.928  15.307  0.0172 -0.1941 -0.9783
    9DOPE  C312 1140   1.081   2.792  15.147  0.1607 -0.8299  0.5381
    9DOPE  H12X 1141   1.189   2.763  15.143  0.3852  0.0327 -2.3707
    9DOPE  H12Y 1142   1.081   2.888  15.091 -1.5008 -1.4130 -0.5299
    9DOPE  C313 1143   1.003   2.695  15.061  0.0678 -0.3877  0.0554
    9DOPE  H13X 1144   1.002   2.601  15.120 -0.4345 -0.8500 -0.6729
    9DOPE  H13Y 1145   0.899   2.732  15.047  0.8908  2.3775  0.6536
    9DOPE  C314 1146   1.069   2.673  14.922 -1.0096 -0.0443  0.2667
    9DOPE  H14X 1147   1.175   2.642  14.932 -1.3329 -1.4330 -0.3847
    9DOPE  H14Y 1148   1.064   2.772  14.873  1.6398  1.3348  2.4566
    9DOPE  C315 1149   0.998   2.570  14.835  0.1453 -0.5257 -0.3062
    9DOPE  H15X 1150   1.031   2.470  14.871 -1.6280 -1.0244 -0.0019
    9DOPE  H15Y 1151   1.039   2.589  14.734  1.3531 -0.5424  0.1574
    9DOPE  C316 1152   0.842   2.580  14.838  0.1831  0.4117 -0.4254
    9DOPE  H16X 1153   0.795   2.542  14.744  0.3677 -0.0537 -0.3285
    9DOPE  H16Y 1154   0.802   2.684  14.845 -0.2183  0.2744 -0.6366
    9DOPE  C317 1155   0.778   2.501  14.954 -0.2083 -0.2496  0.3966
    9DOPE  H17X 1156   0.838   2.515  15.046 -0.7478 -0.3433  0.7686
    9DOPE  H17Y 1157   0.678   2.542  14.982  0.0713 -0.5370  1.8626
    9DOPE  C318 1158   0.766   2.350  14.908 -0.5707 -0.6434 -0.0450
    9DOPE  H18X 1159   0.864   2.298  14.898 -0.9081 -1.0150 -1.5903
    9DOPE  H18Y 1160   0.704   2.283  14.973 -0.7793 -0.9099 -0.5138
    9DOPE  H18Z 1161   0.723   2.353  14.806  1.4338  0.3945 -0.9193
   10DOPE     N 1162   2.053   6.094  16.123  0.3329  0.2901 -0.7355
   10DOPE   HN1 1163   2.140   6.103  16.178 -0.2125  1.4825 -0.0058
   10DOPE   HN2 1164   1.977   6.144  16.174 -0.5490  2.2085 -3.6653
   10DOPE   HN3 1165   2.030   5.996  16.097 -2.2889  1.5373 -4.0098
   10DOPE   C12 1166   2.059   6.175  15.993  1.0679  0.4886 -0.9882
   10DOPE  H12A 1167   1.964   6.154  15.940  1.7218 -2.1261 -1.2273
   10DOPE  H12B 1168   2.146   6.129  15.941  1.7367  0.5959  0.0001
   10DOPE   C11 1169   2.081   6.327  15.999 -0.1619  0.3117  0.5686
   10DOPE  H11A 1170   1.988   6.364  16.048  0.4592  0.7474  1.4528
   10DOPE  H11B 1171   2.092   6.371  15.898 -0.6967 -0.0885  0.3341
   10DOPE     P 1172   2.272   6.491  16.100  0.2512  0.0894  0.1428
   10DOPE   O13 1173   2.388   6.465  16.188 -0.3955  0.1336 -0.4615
   10DOPE   O14 1174   2.186   6.610  16.141  0.1633  0.8361 -0.0002
   10DOPE   O11 1175   2.321   6.514  15.955  0.1757  0.6536 -0.1181
   10DOPE   O12 1176   2.185   6.358  16.093 -0.1753  0.0234  0.3468
   10DOPE    C1 1177   2.381   6.405  15.876 -0.0867  0.0492  0.5410
   10DOPE    HA 1178   2.326   6.396  15.780  1.0345 -0.6781 -0.0400
   10DOPE    HB 1179   2.375   6.302  15.916  0.2127 -0.8046 -1.5113
   10DOPE    C2 1180   2.533   6.430  15.859  0.3360  0.0723 -0.1142
   10DOPE    HS 1181   2.568   6.445  15.963  0.2621  0.4545 -0.1452
   10DOPE   O21 1182   2.568   6.552  15.787  0.0501  0.1578  0.1035
   10DOPE   C21 1183   2.701   6.569  15.760 -0.1861  0.1376  0.1733
   10DOPE   O22 1184   2.791   6.518  15.825  0.0143  0.0570 -0.5498
   10DOPE   C22 1185   2.716   6.664  15.645  0.0857 -0.5325 -0.2654
   10DOPE   H2R 1186   2.613   6.705  15.632 -0.1263 -1.4161 -1.6835
   10DOPE   H2S 1187   2.735   6.609  15.550 -2.0815 -0.1690 -0.9879
   10DOPE    C3 1188   2.601   6.302  15.809 -0.4991 -0.4795  0.1756
   10DOPE    HX 1189   2.575   6.215  15.873 -1.7132 -0.2969 -0.0380
   10DOPE    HY 1190   2.711   6.294  15.819 -0.2356  1.0964 -1.1594
   10DOPE   O31 1191   2.554   6.261  15.678 -0.1492  0.3613 -0.2760
   10DOPE   C31 1192   2.636   6.259  15.576 -0.0752  1.3182  0.1633
   10DOPE   O32 1193   2.755   6.289  15.582  0.4249 -0.1388  0.1531
   10DOPE   C32 1194   2.562   6.212  15.452 -0.1748 -0.6377 -0.5367
   10DOPE   H2X 1195   2.462   6.173  15.479 -0.3567  0.3071  0.2319
   10DOPE   H2Y 1196   2.541   6.305  15.395 -0.8214 -1.1586 -1.1629
   10DOPE   C23 1197   2.809   6.779  15.683 -0.1849  0.2042 -0.7362
   10DOPE   H3R 1198   2.916   6.756  15.665  0.1941  2.5909 -1.8516
   10DOPE   H3S 1199   2.782   6.829  15.778  0.1106  1.0454 -1.0877
   10DOPE   C24 1200   2.806   6.887  15.576 -0.4317 -0.3089 -0.3294
   10DOPE   H4R 1201   2.709   6.940  15.586 -1.1898 -0.8744 -3.6317
   10DOPE   H4S 1202   2.805   6.836  15.477 -2.2598 -2.0487  0.4963
   10DOPE   C25 1203   2.929   6.984  15.592  0.1791  0.5748 -0.7273
   10DOPE   H5R 1204   3.023   6.930  15.569 -0.1450 -0.3199 -0.0249
   10DOPE   H5S 1205   2.940   7.019  15.697  0.4803  1.2048 -0.9624
   10DOPE   C26 1206   2.927   7.115  15.522  0.0785  1.0691  0.0106
   10DOPE   H6R 1207   2.833   7.169  15.548 -0.7566 -0.4892  0.3972
   10DOPE   H6S 1208   2.908   7.091  15.415  1.0339 -0.3230  0.1349
   10DOPE   C27 1209   3.046   7.210  15.536 -0.2880  0.1686  0.5565
   10DOPE   H7R 1210   3.069   7.221  15.644  2.3744  2.8044 -0.1356
   10DOPE   H7S 1211   3.023   7.312  15.498  0.7714  0.7202  1.3434
   10DOPE   C28 1212   3.176   7.166  15.467  0.0680  0.1745 -0.8666
   10DOPE   H8R 1213   3.155   7.145  15.360  0.5481  2.0443 -1.3558
   10DOPE   H8S 1214   3.194   7.067  15.514  0.0200 -0.1468 -1.5223
   10DOPE   C29 1215   3.289   7.261  15.485  0.0356 -0.3951 -0.0519
   10DOPE   H9R 1216   3.330   7.253  15.587 -3.3961 -1.3288  1.4028
   10DOPE  C210 1217   3.310   7.370  15.410  0.1989 -0.3411 -0.4753
   10DOPE  H10R 1218   3.409   7.417  15.419 -0.4670  1.1549 -0.6976
   10DOPE  C211 1219   3.226   7.416  15.293 -0.1262  0.1755  0.1062
   10DOPE  H11R 1220   3.252   7.523  15.276 -2.0086  0.8600  1.1902
   10DOPE  H11S 1221   3.118   7.426  15.316 -0.4919 -0.9587 -1.0328
   10DOPE  C212 1222   3.261   7.355  15.154 -0.4415  0.5115  0.0689
   10DOPE  H12R 1223   3.227   7.249  15.142 -1.7568  1.0776 -1.6039
   10DOPE  H12S 1224   3.369   7.357  15.128 -0.5615 -1.0653 -0.6933
   10DOPE  C213 1225   3.199   7.433  15.035 -0.0133 -0.1100  0.0124
   10DOPE  H13R 1226   3.217   7.541  15.052  1.3187 -0.0830 -1.3667
   10DOPE  H13S 1227   3.088   7.419  15.037 -0.3119  1.8059 -0.6854
   10DOPE  C214 1228   3.248   7.386  14.898  0.3458  0.3161 -0.2304
   10DOPE  H14R 1229   3.263   7.278  14.882 -1.8389 -0.0609 -0.1313
   10DOPE  H14S 1230   3.354   7.417  14.901 -0.0895  1.8557  1.7743
   10DOPE  C215 1231   3.169   7.451  14.780 -0.3461  1.0841 -0.4989
   10DOPE  H15R 1232   3.183   7.561  14.787 -0.3848  1.1856 -1.8611
   10DOPE  H15S 1233   3.060   7.434  14.788 -0.0664 -0.4873  0.6359
   10DOPE  C216 1234   3.217   7.406  14.645 -0.0118  0.0917  0.3588
   10DOPE  H16R 1235   3.171   7.312  14.607  0.2828  1.2091 -3.0848
   10DOPE  H16S 1236   3.327   7.389  14.648 -0.1410 -0.9634 -0.3493
   10DOPE  C217 1237   3.182   7.517  14.548  0.6578  0.5607 -0.2980
   10DOPE  H17R 1238   3.224   7.495  14.448 -1.8029  0.1738 -1.3081
   10DOPE  H17S 1239   3.221   7.615  14.581 -0.9998  2.6965 -4.1260
   10DOPE  C218 1240   3.033   7.545  14.533 -0.1727  0.2856 -0.0372
   10DOPE  H18R 1241   2.984   7.456  14.488 -1.3736  0.3841  1.0227
   10DOPE  H18S 1242   3.014   7.637  14.473 -1.2049  1.1623  1.5874
   10DOPE  H18T 1243   2.990   7.561  14.634  0.6864  0.9425  0.2371
   10DOPE   C33 1244   2.659   6.117  15.372 -0.4586 -0.4567  0.0586
   10DOPE   H3X 1245   2.606   6.061  15.294  1.9380 -2.6312 -0.1475
   10DOPE   H3Y 1246   2.708   6.045  15.442  0.4661  1.8225  1.9122
   10DOPE   C34 1247   2.764   6.193  15.288 -0.0000 -0.6077  1.1245
   10DOPE   H4X 1248   2.728   6.262  15.209 -0.1338 -1.5336  0.3720
   10DOPE   H4Y 1249   2.823   6.261  15.354 -1.7005  0.5928  1.4731
   10DOPE   C35 1250   2.855   6.099  15.213  0.0006 -0.3959 -0.0545
   10DOPE   H5X 1251   2.893   6.147  15.121 -0.3122 -1.5378 -0.8026
   10DOPE   H5Y 1252   2.810   6.003  15.180 -1.8343 -0.2614  1.8219
   10DOPE   C36 1253   2.965   6.049  15.300  0.1480  1.1950 -0.6762
   10DOPE   H6X 1254   2.926   6.009  15.396 -0.4707 -2.1942 -2.1871
   10DOPE   H6Y 1255   3.032   6.137  15.312 -0.4010  1.3912  1.3448
   10DOPE   C37 1256   3.035   5.928  15.229  0.2494 -0.2648 -0.7691
   10DOPE   H7X 1257   2.969   5.861  15.171  0.6658  0.1224 -1.7038
   10DOPE   H7Y 1258   3.106   5.970  15.155  0.5746 -1.9513 -1.4649
   10DOPE   C38 1259   3.113   5.839  15.332  0.2441 -0.0661  0.1213
   10DOPE   H8X 1260   3.163   5.904  15.406  3.0622 -2.7823  0.8009
   10DOPE   H8Y 1261   3.188   5.790  15.267 -2.2404 -0.9650 -2.2567
   10DOPE   C39 1262   3.021   5.745  15.402  0.0860  0.5488 -0.2750
   10DOPE   H9X 1263   2.951   5.791  15.473 -1.6132 -0.6447 -1.0973
   10DOPE  C310 1264   3.022   5.610  15.375 -0.4860  0.2212  0.3168
   10DOPE  H10X 1265   2.945   5.555  15.431 -0.0233  0.5820  1.3337
   10DOPE  C311 1266   3.104   5.526  15.280  0.0909 -0.2058  0.6332
   10DOPE  H11X 1267   3.036   5.470  15.212 -0.8596  1.8786 -0.2223
   10DOPE  H11Y 1268   3.159   5.585  15.205 -0.0823  0.7373  1.2316
   10DOPE  C312 1269   3.216   5.448  15.339  0.7819 -0.0726 -0.3319
   10DOPE  H12X 1270   3.187   5.385  15.425  2.0248  0.5726  0.6021
   10DOPE  H12Y 1271   3.286   5.519  15.389 -1.3900  0.4926  2.1312
   10DOPE  C313 1272   3.289   5.371  15.233 -0.3971  0.8153 -0.1090
   10DOPE  H13X 1273   3.303   5.438  15.145 -0.8021 -1.4134 -1.9666
   10DOPE  H13Y 1274   3.390   5.335  15.260 -0.1520  0.7680 -1.0324
   10DOPE  C314 1275   3.209   5.244  15.187 -0.1209  0.2411 -0.0098
   10DOPE  H14X 1276   3.103   5.268  15.161 -0.2952 -0.6277 -0.1247
   10DOPE  H14Y 1277   3.206   5.168  15.268  0.6659  1.0786  0.8330
   10DOPE  C315 1278   3.272   5.186  15.062  0.6473  0.9224  0.1485
   10DOPE  H15X 1279   3.379   5.156  15.075  0.6148 -2.0237 -4.3657
   10DOPE  H15Y 1280   3.277   5.259  14.979  2.3475 -0.2161 -0.8256
   10DOPE  C316 1281   3.203   5.058  15.009 -0.3767 -0.6265 -0.5003
   10DOPE  H16X 1282   3.261   5.011  14.926 -0.4272  0.7266 -1.3325
   10DOPE  H16Y 1283   3.102   5.082  14.971 -0.6870 -0.9504  0.1158
   10DOPE  C317 1284   3.185   4.944  15.108 -0.0835 -0.1031  0.3567
   10DOPE  H17X 1285   3.279   4.932  15.166 -1.0862 -1.4929  1.7650
   10DOPE  H17Y 1286   3.113   4.977  15.186  1.2155 -0.5512  1.8053
   10DOPE  C318 1287   3.131   4.812  15.046 -0.0691  0.0369  0.3514
   10DOPE  H18X 1288   3.091   4.747  15.127  0.6235 -1.1429 -0.2293
   10DOPE  H18Y 1289   3.054   4.824  14.967 -1.5250 -1.1846  1.5242
   10DOPE  H18Z 1290   3.208   4.752  14.994  0.5988  1.6506 -0.5990
   11DOPE     N 1291   8.138   2.136  16.767 -0.7209  0.3904 -0.3674
   11DOPE   HN1 1292   8.076   2.064  16.809  1.8799 -0.5161  2.2865
   11DOPE   HN2 1293   8.227   2.084  16.750 -1.1812 -2.3067  3.9693
   11DOPE   HN3 1294   8.165   2.212  16.833  3.1673 -1.4550  0.5016
   11DOPE   C12 1295   8.093   2.209  16.643  0.1817  0.1649 -0.4189
   11DOPE  H12A 1296   7.989   2.245  16.654  0.3062  0.4045  0.0271
   11DOPE  H12B 1297   8.105   2.152  16.548  1.0608 -2.2062  1.0286
   11DOPE   C11 1298   8.179   2.335  16.635 -1.0373  0.1894 -0.7039
   11DOPE  H11A 1299   8.157   2.399  16.723  0.6464 -1.0128  0.6632
   11DOPE  H11B 1300   8.157   2.377  16.535 -0.0329 -2.5991 -2.1983
   11DOPE     P 1301   8.418   2.389  16.545  0.4559 -0.0562 -0.3252
   11DOPE   O13 1302   8.548   2.325  16.542 -0.4221 -0.3040 -0.4159
   11DOPE   O14 1303   8.413   2.535  16.577  0.1338 -0.5170  0.5644
   11DOPE   O11 1304   8.358   2.375  16.401 -0.2740 -0.4501  0.1140
   11DOPE   O12 1305   8.322   2.306  16.644  0.4579  0.4557  0.3029
   11DOPE    C1 1306   8.313   2.249  16.348  0.2437  0.2187  0.2628
   11DOPE    HA 1307   8.211   2.257  16.306  0.8615  1.3755 -1.0775
   11DOPE    HB 1308   8.323   2.161  16.416  0.9842 -0.7372 -1.0338
   11DOPE    C2 1309   8.400   2.208  16.222 -0.1916 -0.3006 -0.2203
   11DOPE    HS 1310   8.494   2.161  16.258 -0.1848 -0.6020 -0.6254
   11DOPE   O21 1311   8.428   2.323  16.140 -0.7682 -0.7284 -0.2715
   11DOPE   C21 1312   8.552   2.340  16.092  0.1771  0.9888 -0.1340
   11DOPE   O22 1313   8.645   2.262  16.124  0.1607 -1.0433 -0.0623
   11DOPE   C22 1314   8.567   2.473  16.017 -0.0776 -0.1779 -0.2351
   11DOPE   H2R 1315   8.618   2.546  16.083 -1.2829 -0.1134  0.6788
   11DOPE   H2S 1316   8.462   2.506  16.002 -0.4415 -0.9982  0.4078
   11DOPE    C3 1317   8.320   2.114  16.127  0.7882 -0.1199  0.6901
   11DOPE    HX 1318   8.217   2.149  16.108  0.2223 -1.1129  1.8323
   11DOPE    HY 1319   8.319   2.026  16.194 -0.4371 -1.0829 -0.5361
   11DOPE   O31 1320   8.379   2.087  15.997  0.1013  0.0186 -0.0571
   11DOPE   C31 1321   8.342   1.969  15.950  1.1118  0.3316 -0.0709
   11DOPE   O32 1322   8.261   1.899  16.008  0.1092 -0.1030  0.2717
   11DOPE   C32 1323   8.409   1.945  15.812  0.2709 -0.0830  0.0422
   11DOPE   H2X 1324   8.394   2.042  15.761  0.8383  1.0301  1.8809
   11DOPE   H2Y 1325   8.518   1.925  15.815  0.9478  2.9635 -0.5849
   11DOPE   C23 1326   8.656   2.447  15.886  0.1788 -0.3528  0.2368
   11DOPE   H3R 1327   8.744   2.386  15.914 -0.3439 -1.3756 -0.3085
   11DOPE   H3S 1328   8.689   2.545  15.845  1.1769 -1.5786 -2.0600
   11DOPE   C24 1329   8.570   2.369  15.781  0.0255 -0.4565 -0.1859
   11DOPE   H4R 1330   8.480   2.422  15.743  0.1254  1.2361  1.8106
   11DOPE   H4S 1331   8.528   2.283  15.837 -1.3322  0.7361  0.6946
   11DOPE   C25 1332   8.648   2.309  15.658 -0.1640  0.2281 -0.1322
   11DOPE   H5R 1333   8.721   2.241  15.707 -0.2724 -0.1483 -0.4808
   11DOPE   H5S 1334   8.695   2.392  15.601 -1.5987  0.2180 -1.3917
   11DOPE   C26 1335   8.554   2.244  15.557  0.4506 -0.0172 -0.1827
   11DOPE   H6R 1336   8.513   2.320  15.488 -1.4351 -2.6377 -2.1697
   11DOPE   H6S 1337   8.476   2.181  15.606  0.4653  0.2474  0.1791
   11DOPE   C27 1338   8.632   2.144  15.467  0.4837 -0.3031 -0.1586
   11DOPE   H7R 1339   8.710   2.201  15.412 -1.8098  2.4768 -0.7596
   11DOPE   H7S 1340   8.564   2.107  15.387 -1.6428 -1.0745  1.9078
   11DOPE   C28 1341   8.681   2.017  15.540  0.1882  0.0104 -0.0411
   11DOPE   H8R 1342   8.587   1.978  15.585 -0.9533  2.8096  0.2146
   11DOPE   H8S 1343   8.753   2.038  15.621  2.0254  1.3260 -1.9102
   11DOPE   C29 1344   8.748   1.913  15.450 -0.9149 -0.0637  0.4592
   11DOPE   H9R 1345   8.680   1.881  15.370 -0.3430 -0.3945  0.1025
   11DOPE  C210 1346   8.874   1.869  15.457 -0.5876  0.5830 -0.5670
   11DOPE  H10R 1347   8.901   1.798  15.377 -1.5796  1.3721 -1.6202
   11DOPE  C211 1348   8.986   1.911  15.555 -0.2156  0.7353 -0.1832
   11DOPE  H11R 1349   9.049   1.820  15.570  0.4374  1.1794 -0.1620
   11DOPE  H11S 1350   8.943   1.951  15.649  0.4089  1.4322 -0.1872
   11DOPE  C212 1351   9.073   2.026  15.516  0.5267  0.5389  0.4365
   11DOPE  H12R 1352   9.119   2.002  15.418 -0.0594 -0.0701  0.3030
   11DOPE  H12S 1353   9.150   2.019  15.597  0.0491 -0.5110  0.8087
   11DOPE  C213 1354   9.006   2.164  15.526 -0.0296 -0.7499  0.2344
   11DOPE  H13R 1355   8.973   2.198  15.626  3.3261  0.7194  1.0007
   11DOPE  H13S 1356   8.917   2.160  15.459  0.4190 -0.0644 -0.4174
   11DOPE  C214 1357   9.102   2.277  15.487  0.9214 -0.6552 -0.7876
   11DOPE  H14R 1358   9.124   2.273  15.379  0.3287  1.7565 -1.0449
   11DOPE  H14S 1359   9.195   2.260  15.545 -0.8026 -0.8142  2.1899
   11DOPE  C215 1360   9.064   2.429  15.516  0.0460  0.2684  0.2450
   11DOPE  H15R 1361   8.963   2.455  15.478  0.3748  1.2056 -0.0010
   11DOPE  H15S 1362   9.138   2.480  15.452  2.6114 -2.8639  0.4752
   11DOPE  C216 1363   9.064   2.459  15.663 -0.3790  0.2560 -0.0618
   11DOPE  H16R 1364   9.158   2.417  15.705 -0.0687  0.3476 -0.6574
   11DOPE  H16S 1365   8.990   2.392  15.712  2.4024 -0.4760  3.6352
   11DOPE  C217 1366   9.061   2.605  15.697 -0.4131 -0.0181  0.0407
   11DOPE  H17R 1367   9.143   2.658  15.644 -0.2981 -0.2889 -0.0499
   11DOPE  H17S 1368   9.073   2.621  15.806  0.1142 -0.1699  0.0048
   11DOPE  C218 1369   8.926   2.677  15.661  0.2166 -0.0299 -0.6942
   11DOPE  H18R 1370   8.840   2.640  15.720 -0.4553 -1.1374 -2.3156
   11DOPE  H18S 1371   8.897   2.653  15.557 -0.8447  0.7659 -0.5972
   11DOPE  H18T 1372   8.958   2.784  15.664  0.6903 -0.1813 -0.1638
   11DOPE   C33 1373   8.332   1.831  15.755  0.7991 -0.2410 -0.4381
   11DOPE   H3X 1374   8.225   1.862  15.746  0.5852 -1.0143 -0.6205
   11DOPE   H3Y 1375   8.339   1.737  15.814 -0.2856 -0.8576 -1.2505
   11DOPE   C34 1376   8.370   1.797  15.610 -0.3529 -0.2398 -0.1192
   11DOPE   H4X 1377   8.391   1.882  15.542 -0.5137  0.0798  0.2218
   11DOPE   H4Y 1378   8.467   1.745  15.629  0.1596  1.0060  0.8809
   11DOPE   C35 1379   8.286   1.693  15.540  0.3509  0.5451 -0.6828
   11DOPE   H5X 1380   8.181   1.729  15.527  0.3031  0.1378 -1.4875
   11DOPE   H5Y 1381   8.291   1.597  15.594  1.2096 -0.6588 -2.7699
   11DOPE   C36 1382   8.326   1.673  15.393 -0.6364  0.2125  0.1479
   11DOPE   H6X 1383   8.432   1.640  15.399 -0.1609  1.6502  0.0762
   11DOPE   H6Y 1384   8.324   1.771  15.340 -0.8800  0.4913  0.6616
   11DOPE   C37 1385   8.241   1.576  15.310 -0.1949  0.2024  0.8431
   11DOPE   H7X 1386   8.295   1.554  15.216  0.4780 -0.2088  1.3127
   11DOPE   H7Y 1387   8.222   1.475  15.352 -0.3095 -1.0105 -1.8909
   11DOPE   C38 1388   8.105   1.633  15.289  0.1805 -0.4360  0.2857
   11DOPE   H8X 1389   8.119   1.731  15.238 -2.2464 -0.4106 -0.4681
   11DOPE   H8Y 1390   8.060   1.653  15.388  0.1737 -0.0630  0.2124
   11DOPE   C39 1391   8.018   1.542  15.203 -0.6035  0.7951 -0.5143
   11DOPE   H9X 1392   7.946   1.480  15.258 -0.6879 -0.1116 -1.6243
   11DOPE  C310 1393   8.003   1.550  15.076  0.1389  0.9375 -0.1136
   11DOPE  H10X 1394   7.932   1.481  15.028 -0.2449  0.2632  1.3801
   11DOPE  C311 1395   8.071   1.648  14.980 -1.1923 -0.0010  0.5086
   11DOPE  H11X 1396   8.169   1.685  15.019 -0.0986 -0.1059 -1.9583
   11DOPE  H11Y 1397   8.107   1.586  14.895 -1.3662  0.4220  0.1275
   11DOPE  C312 1398   7.989   1.756  14.915 -0.4396 -0.3708 -0.3480
   11DOPE  H12X 1399   7.910   1.713  14.850 -1.3011  1.1689 -0.3690
   11DOPE  H12Y 1400   8.066   1.797  14.846 -1.2623  0.4743 -0.7930
   11DOPE  C313 1401   7.918   1.843  15.018 -0.7070 -1.0054 -0.0501
   11DOPE  H13X 1402   7.837   1.785  15.066 -1.3407  0.2969  0.5120
   11DOPE  H13Y 1403   7.989   1.883  15.094 -2.0785  1.7683 -0.1082
   11DOPE  C314 1404   7.839   1.961  14.962  0.1662 -0.6693 -0.4296
   11DOPE  H14X 1405   7.757   1.913  14.906 -1.1543  1.0212 -0.0229
   11DOPE  H14Y 1406   7.902   2.014  14.888 -2.4575  1.9704 -0.9338
   11DOPE  C315 1407   7.789   2.051  15.080  0.3910 -0.2087  0.3539
   11DOPE  H15X 1408   7.874   2.103  15.131  0.3861  0.4326 -0.2729
   11DOPE  H15Y 1409   7.755   1.990  15.166 -0.3531  0.3215  0.4453
   11DOPE  C316 1410   7.683   2.156  15.036 -0.9248 -0.1287 -0.3362
   11DOPE  H16X 1411   7.595   2.094  15.011 -2.0531  0.7962  1.1838
   11DOPE  H16Y 1412   7.735   2.203  14.950  2.8949  0.2332  1.9060
   11DOPE  C317 1413   7.640   2.248  15.147  0.6416 -0.1149  0.2895
   11DOPE  H17X 1414   7.550   2.303  15.113  1.5385  3.0479  2.5058
   11DOPE  H17Y 1415   7.618   2.190  15.239 -0.4069 -1.6254 -0.8610
   11DOPE  C318 1416   7.759   2.337  15.178 -0.9520 -0.3523  0.3425
   11DOPE  H18X 1417   7.724   2.415  15.249  0.8378 -1.4193  2.5349
   11DOPE  H18Y 1418   7.847   2.287  15.223 -0.2323  1.8648  1.5182
   11DOPE  H18Z 1419   7.795   2.392  15.089  0.9967 -1.0224  0.6659
   12DOPE     N 1420   2.642   8.136  16.276  0.5272  0.3792  0.3623
   12DOPE   HN1 1421   2.687   8.045  16.297  0.3985  0.6261  1.8173
   12DOPE   HN2 1422   2.545   8.143  16.314  0.1938  0.1302 -0.4356
   12DOPE   HN3 1423   2.622   8.145  16.174 -0.0069 -0.1401  0.4132
   12DOPE   C12 1424   2.722   8.256  16.308  0.0763  0.2740  0.6923
   12DOPE  H12A 1425   2.797   8.228  16.384  2.3800  1.5085 -0.9753
   12DOPE  H12B 1426   2.654   8.332  16.351  0.7675  1.3843 -0.1001
   12DOPE   C11 1427   2.796   8.320  16.183  0.0258 -0.2987  0.0297
   12DOPE  H11A 1428   2.831   8.422  16.208  1.1567 -0.8934  1.0605
   12DOPE  H11B 1429   2.735   8.332  16.092  1.4007 -1.2117 -1.0687
   12DOPE     P 1430   3.042   8.256  16.206 -0.0170  0.2774 -0.3026
   12DOPE   O13 1431   3.120   8.130  16.201 -0.1722  0.4306  0.1503
   12DOPE   O14 1432   3.031   8.312  16.342 -0.3648 -0.1270  0.4690
   12DOPE   O11 1433   3.106   8.367  16.114 -0.8157 -0.1025 -0.1219
   12DOPE   O12 1434   2.900   8.228  16.148 -0.6053 -0.1062  0.2114
   12DOPE    C1 1435   3.146   8.321  15.984 -0.6043 -0.3499  0.3565
   12DOPE    HA 1436   3.202   8.226  15.980  0.5530  0.3487 -1.9752
   12DOPE    HB 1437   3.215   8.400  15.946 -0.0444  0.3970  2.7800
   12DOPE    C2 1438   3.030   8.304  15.882  0.0690 -0.1917 -0.4369
   12DOPE    HS 1439   2.962   8.230  15.928 -3.0032  1.7221 -1.5581
   12DOPE   O21 1440   3.074   8.272  15.752  0.0511 -0.1642 -0.2837
   12DOPE   C21 1441   3.104   8.145  15.727  0.4610  0.2827  0.0699
   12DOPE   O22 1442   3.085   8.056  15.811  0.1719 -0.0064  0.4814
   12DOPE   C22 1443   3.158   8.126  15.589  0.1517 -0.0225  0.0439
   12DOPE   H2R 1444   3.210   8.222  15.569 -0.7976  0.3179 -0.8927
   12DOPE   H2S 1445   3.077   8.125  15.513  0.3221  0.6021 -0.1519
   12DOPE    C3 1446   2.949   8.437  15.881 -0.2370 -0.6719  0.0865
   12DOPE    HX 1447   3.024   8.518  15.880 -1.3402  0.4567 -2.9820
   12DOPE    HY 1448   2.884   8.453  15.970 -0.1192  0.5483 -0.0279
   12DOPE   O31 1449   2.882   8.462  15.759 -0.2802  0.1715  0.3419
   12DOPE   C31 1450   2.769   8.398  15.740  0.4334  0.7965  0.8773
   12DOPE   O32 1451   2.714   8.320  15.812 -0.0675  0.1673 -0.4182
   12DOPE   C32 1452   2.706   8.446  15.605  0.1733  0.2586  1.0044
   12DOPE   H2X 1453   2.607   8.398  15.587 -0.1143  1.4450 -0.7941
   12DOPE   H2Y 1454   2.683   8.554  15.616 -2.1689  0.0765 -1.0240
   12DOPE   C23 1455   3.243   7.992  15.569  0.2022  0.2384 -0.3412
   12DOPE   H3R 1456   3.195   7.899  15.606  1.5774 -0.3672 -0.0256
   12DOPE   H3S 1457   3.331   7.994  15.637 -1.0056  1.7319  1.3017
   12DOPE   C24 1458   3.298   7.961  15.426  0.4544 -0.9249  0.7642
   12DOPE   H4R 1459   3.387   8.021  15.397  0.6293 -1.1177  0.8968
   12DOPE   H4S 1460   3.220   7.974  15.348  0.1982  1.4094  1.3281
   12DOPE   C25 1461   3.343   7.814  15.410  0.0853 -0.7479 -0.2453
   12DOPE   H5R 1462   3.254   7.748  15.420 -0.0384 -0.3243  2.1249
   12DOPE   H5S 1463   3.412   7.802  15.497 -1.5122  2.8035  1.7026
   12DOPE   C26 1464   3.386   7.786  15.268 -0.4887 -0.2533 -0.9737
   12DOPE   H6R 1465   3.304   7.812  15.198 -2.1529 -0.2433  0.8879
   12DOPE   H6S 1466   3.399   7.678  15.246  1.8093  0.0618 -1.4835
   12DOPE   C27 1467   3.521   7.862  15.231 -0.0823  0.0219 -1.0793
   12DOPE   H7R 1468   3.520   7.973  15.242 -1.9493 -0.0707  0.0997
   12DOPE   H7S 1469   3.545   7.849  15.123 -0.8853 -1.5437 -1.0938
   12DOPE   C28 1470   3.646   7.830  15.312 -0.4513 -0.3424 -0.5094
   12DOPE   H8R 1471   3.621   7.844  15.420 -0.6619 -4.2512  0.1008
   12DOPE   H8S 1472   3.709   7.916  15.281  2.4696 -2.2341 -0.2158
   12DOPE   C29 1473   3.723   7.703  15.283 -0.4441 -0.2966  0.1918
   12DOPE   H9R 1474   3.672   7.612  15.318 -1.0234  0.9729  2.9281
   12DOPE  C210 1475   3.840   7.705  15.214  0.7223 -0.3643  0.3826
   12DOPE  H10R 1476   3.879   7.604  15.193  3.2224  0.3512  1.2382
   12DOPE  C211 1477   3.926   7.816  15.148  0.2105 -0.1796 -0.4499
   12DOPE  H11R 1478   4.033   7.785  15.153  0.3970  0.5952  1.7217
   12DOPE  H11S 1479   3.909   7.915  15.196 -0.4933 -0.2296 -0.5991
   12DOPE  C212 1480   3.900   7.821  14.995  0.1502  0.2852  0.1749
   12DOPE  H12R 1481   3.793   7.829  14.967  0.2752  0.6877 -0.2044
   12DOPE  H12S 1482   3.929   7.723  14.954 -1.5734 -0.3060  0.3003
   12DOPE  C213 1483   3.969   7.936  14.927  0.5501  0.0975 -0.2469
   12DOPE  H13R 1484   4.079   7.925  14.935  0.3990 -1.3136  0.0728
   12DOPE  H13S 1485   3.935   8.028  14.980 -0.8689 -1.3428  1.4802
   12DOPE  C214 1486   3.941   7.936  14.778  0.6386 -0.1419 -0.2287
   12DOPE  H14R 1487   3.835   7.964  14.761  0.5669  1.5470  2.3607
   12DOPE  H14S 1488   3.962   7.846  14.717  1.2822  0.5944 -1.1281
   12DOPE  C215 1489   4.012   8.044  14.703 -0.1947  0.2896 -0.9314
   12DOPE  H15R 1490   4.121   8.027  14.709  0.0314  0.6282 -3.2343
   12DOPE  H15S 1491   3.980   8.146  14.736 -0.5273 -0.2980  0.6239
   12DOPE  C216 1492   3.985   8.038  14.547  0.1834 -0.3712  0.6603
   12DOPE  H16R 1493   3.877   8.024  14.526  0.4144  1.0039 -1.7240
   12DOPE  H16S 1494   4.027   7.941  14.512  2.9058  1.0099 -0.1589
   12DOPE  C217 1495   4.052   8.158  14.467  0.1973 -0.2653  0.1637
   12DOPE  H17R 1496   4.160   8.161  14.496 -0.0936 -1.8715  1.6183
   12DOPE  H17S 1497   3.999   8.251  14.494 -0.7551 -0.4205 -1.0804
   12DOPE  C218 1498   4.048   8.139  14.311 -0.2357  0.3679  0.3548
   12DOPE  H18R 1499   3.944   8.162  14.279 -0.9089 -1.7572  0.8941
   12DOPE  H18S 1500   4.071   8.036  14.276 -0.2479  1.4258 -3.1641
   12DOPE  H18T 1501   4.121   8.205  14.259 -0.6301 -1.2999 -2.5074
   12DOPE   C33 1502   2.804   8.414  15.485 -0.4583  0.2697  0.5565
   12DOPE   H3X 1503   2.908   8.440  15.514  0.8621 -3.4925 -0.3451
   12DOPE   H3Y 1504   2.764   8.475  15.401  2.1500 -1.0951 -1.8350
   12DOPE   C34 1505   2.809   8.271  15.434 -0.1056  0.0312 -0.3478
   12DOPE   H4X 1506   2.895   8.271  15.365  0.2033  3.0974 -0.0993
   12DOPE   H4Y 1507   2.828   8.209  15.524 -0.7445  2.4492  1.5583
   12DOPE   C35 1508   2.681   8.217  15.379  0.7116  0.1686  0.1841
   12DOPE   H5X 1509   2.619   8.296  15.332  1.2653  0.4497 -0.0800
   12DOPE   H5Y 1510   2.618   8.183  15.464 -0.8072 -1.4515 -1.4880
   12DOPE   C36 1511   2.689   8.096  15.286  0.2115  0.6802 -0.7387
   12DOPE   H6X 1512   2.584   8.083  15.252 -0.1733  1.0147  0.2979
   12DOPE   H6Y 1513   2.725   8.005  15.338  1.0644  1.5249  0.1926
   12DOPE   C37 1514   2.776   8.108  15.157  0.0032 -0.4841 -0.0728
   12DOPE   H7X 1515   2.875   8.146  15.191 -0.6462  0.1140  1.2370
   12DOPE   H7Y 1516   2.783   8.018  15.093  2.0598 -0.4663  0.0329
   12DOPE   C38 1517   2.729   8.227  15.062 -0.0300 -0.8909 -0.3481
   12DOPE   H8X 1518   2.724   8.317  15.126 -1.0963 -1.2207  0.0477
   12DOPE   H8Y 1519   2.626   8.206  15.027 -0.1171 -0.2803 -0.4741
   12DOPE   C39 1520   2.814   8.253  14.945 -0.8840 -0.7118 -0.0113
   12DOPE   H9X 1521   2.815   8.173  14.870  0.3017 -0.3242 -0.4371
   12DOPE  C310 1522   2.896   8.362  14.925  0.4003 -0.0023 -0.3507
   12DOPE  H10X 1523   2.942   8.384  14.828 -1.5064  1.3978 -0.9959
   12DOPE  C311 1524   2.916   8.473  15.022 -0.0083 -0.3191  0.5038
   12DOPE  H11X 1525   2.934   8.567  14.966 -2.3257 -0.2489 -0.2106
   12DOPE  H11Y 1526   2.828   8.497  15.086 -1.8058 -1.2464 -1.5073
   12DOPE  C312 1527   3.024   8.456  15.133 -0.4957  0.1986 -0.5695
   12DOPE  H12X 1528   3.001   8.368  15.196  3.2206  0.4619  1.4396
   12DOPE  H12Y 1529   3.019   8.544  15.199  1.7155 -0.2353  0.2855
   12DOPE  C313 1530   3.166   8.444  15.068  0.0568 -0.7513  1.0814
   12DOPE  H13X 1531   3.167   8.355  15.002  2.0826 -0.1343  0.2374
   12DOPE  H13Y 1532   3.208   8.529  15.011  0.7010 -0.2288  2.2892
   12DOPE  C314 1533   3.269   8.396  15.180 -0.0788 -0.8380  0.0686
   12DOPE  H14X 1534   3.362   8.352  15.137  0.6717 -1.1618  1.9510
   12DOPE  H14Y 1535   3.220   8.307  15.226  0.0366 -1.4414 -0.9233
   12DOPE  C315 1536   3.309   8.508  15.279  0.0281  0.2237  0.4549
   12DOPE  H15X 1537   3.232   8.568  15.332  0.0711 -1.6043  2.7029
   12DOPE  H15Y 1538   3.377   8.582  15.231 -0.2340  0.5557  0.5895
   12DOPE  C316 1539   3.385   8.444  15.396  0.0058  0.0700  0.7599
   12DOPE  H16X 1540   3.469   8.385  15.351 -1.5964 -0.6185 -1.4907
   12DOPE  H16Y 1541   3.321   8.366  15.442 -1.3233  0.1745 -0.8298
   12DOPE  C317 1542   3.457   8.539  15.498 -0.7927 -0.0440  0.5596
   12DOPE  H17X 1543   3.544   8.479  15.532 -0.9190 -1.2050 -1.0871
   12DOPE  H17Y 1544   3.499   8.619  15.433  0.5298 -2.3195 -1.5325
   12DOPE  C318 1545   3.374   8.566  15.624  0.3313  0.0697  0.4922
   12DOPE  H18X 1546   3.349   8.474  15.682 -0.7525 -0.1354 -0.2647
   12DOPE  H18Y 1547   3.429   8.640  15.687  0.2127  2.7786 -2.3651
   12DOPE  H18Z 1548   3.272   8.605  15.604  1.1028  1.0095 -1.9254
   13DOPE     N 1549   3.238   1.690  15.928  0.1216 -0.4545 -0.2183
   13DOPE   HN1 1550   3.240   1.647  15.833  0.0195 -1.4600  0.2193
   13DOPE   HN2 1551   3.213   1.790  15.912 -0.7442 -1.1307 -4.2602
   13DOPE   HN3 1552   3.328   1.675  15.978  0.4112 -0.6916 -0.8034
   13DOPE   C12 1553   3.122   1.623  15.995  0.7574 -0.2455 -0.1801
   13DOPE  H12A 1554   3.161   1.521  16.018  2.8348  0.7517  1.0611
   13DOPE  H12B 1555   3.040   1.617  15.920  1.5103  2.8553 -1.4155
   13DOPE   C11 1556   3.072   1.705  16.112  0.5142 -0.3800 -0.5604
   13DOPE  H11A 1557   3.152   1.741  16.180 -0.3331  1.4624 -0.4786
   13DOPE  H11B 1558   3.001   1.648  16.177  0.7021  0.5503  0.4866
   13DOPE     P 1559   2.925   1.916  16.164  0.2357  0.2779  0.1882
   13DOPE   O13 1560   2.964   2.060  16.151 -0.5490  0.0719  0.0899
   13DOPE   O14 1561   2.923   1.869  16.304 -0.1622 -0.3325 -0.5691
   13DOPE   O11 1562   2.783   1.906  16.104  0.1262  0.2467  0.5178
   13DOPE   O12 1563   3.008   1.820  16.069 -0.1201 -0.3107  0.0088
   13DOPE    C1 1564   2.735   1.793  16.024  0.4112 -0.1580  0.4037
   13DOPE    HA 1565   2.626   1.794  16.044  0.5840  1.3841  1.4282
   13DOPE    HB 1566   2.780   1.700  16.065 -0.5233 -0.7143  0.2027
   13DOPE    C2 1567   2.753   1.812  15.870  0.3387  0.4327  0.5985
   13DOPE    HS 1568   2.858   1.789  15.839 -0.0860 -0.7070 -0.0428
   13DOPE   O21 1569   2.712   1.948  15.844 -0.3795  0.0368 -0.7571
   13DOPE   C21 1570   2.803   2.024  15.805  0.1355 -0.0206  0.3127
   13DOPE   O22 1571   2.916   1.991  15.769 -0.4154 -0.1819 -0.1750
   13DOPE   C22 1572   2.754   2.173  15.803  0.9371 -0.0474  0.5193
   13DOPE   H2R 1573   2.775   2.227  15.898  0.0031  0.3605  0.5130
   13DOPE   H2S 1574   2.645   2.160  15.781  0.8247  1.6803 -0.1433
   13DOPE    C3 1575   2.655   1.726  15.787 -0.1361  0.5832  0.3417
   13DOPE    HX 1576   2.666   1.762  15.682 -0.8545  3.0823  1.0502
   13DOPE    HY 1577   2.547   1.748  15.803 -0.3807 -0.2389 -0.1262
   13DOPE   O31 1578   2.666   1.581  15.802  0.6036  0.2864 -0.2676
   13DOPE   C31 1579   2.783   1.524  15.753  0.0242  0.1227 -0.0594
   13DOPE   O32 1580   2.864   1.591  15.695  0.0946  0.5164 -0.5014
   13DOPE   C32 1581   2.797   1.381  15.785 -0.4887 -0.1457 -0.3432
   13DOPE   H2X 1582   2.889   1.374  15.847 -0.4399  0.8226 -0.2864
   13DOPE   H2Y 1583   2.710   1.344  15.844 -0.3022 -1.7181 -1.0092
   13DOPE   C23 1584   2.825   2.263  15.687  0.3280  0.6198  0.1442
   13DOPE   H3R 1585   2.809   2.206  15.593  0.9409  0.0085  0.4024
   13DOPE   H3S 1586   2.929   2.290  15.717 -0.7095  3.2422  1.6955
   13DOPE   C24 1587   2.749   2.399  15.657 -1.0089 -0.2513  0.0453
   13DOPE   H4R 1588   2.757   2.474  15.739 -1.2032 -1.0658  0.8208
   13DOPE   H4S 1589   2.641   2.377  15.644 -0.8827 -2.3777  1.9853
   13DOPE   C25 1590   2.802   2.464  15.534  0.0807  0.1100  0.9784
   13DOPE   H5R 1591   2.723   2.468  15.456  0.9633  1.3043  0.1098
   13DOPE   H5S 1592   2.882   2.398  15.494  0.1292  0.1231  1.0540
   13DOPE   C26 1593   2.869   2.605  15.547 -0.1419 -0.4636  0.3620
   13DOPE   H6R 1594   2.787   2.680  15.561 -0.1449 -0.0978 -1.3627
   13DOPE   H6S 1595   2.916   2.630  15.449 -0.1393 -3.6287 -0.5432
   13DOPE   C27 1596   2.970   2.620  15.660 -0.2238  0.1868 -0.2073
   13DOPE   H7R 1597   3.033   2.530  15.647 -0.2647  0.3802 -2.0478
   13DOPE   H7S 1598   2.922   2.604  15.759 -1.7450 -2.3333 -1.2596
   13DOPE   C28 1599   3.041   2.755  15.665 -0.2916  0.4097  0.1935
   13DOPE   H8R 1600   3.078   2.767  15.561 -2.4043  0.9237 -0.5535
   13DOPE   H8S 1601   3.122   2.752  15.741 -0.7387 -1.8690  0.6511
   13DOPE   C29 1602   2.949   2.871  15.695  0.3751 -0.4966 -0.0297
   13DOPE   H9R 1603   2.909   2.867  15.798 -1.2397  3.4358 -0.3335
   13DOPE  C210 1604   2.902   2.968  15.610  0.0686  0.1694 -0.8232
   13DOPE  H10R 1605   2.849   3.057  15.645  2.0987  1.6363 -1.3099
   13DOPE  C211 1606   2.936   3.000  15.462 -0.1810 -0.6782 -1.0666
   13DOPE  H11R 1607   3.029   2.946  15.435  0.1526 -0.5472 -0.2124
   13DOPE  H11S 1608   2.963   3.108  15.465  0.5847 -0.8793 -0.3921
   13DOPE  C212 1609   2.827   2.976  15.355  0.5899  0.3660  0.3648
   13DOPE  H12R 1610   2.727   3.014  15.386  0.1819  0.5144 -1.0496
   13DOPE  H12S 1611   2.811   2.871  15.325  1.8382  0.9432 -2.7243
   13DOPE  C213 1612   2.862   3.045  15.221 -0.6442  0.5488 -0.5439
   13DOPE  H13R 1613   2.959   2.999  15.193 -0.3889  1.2093 -0.7567
   13DOPE  H13S 1614   2.858   3.155  15.234 -1.2286  0.5404 -0.6184
   13DOPE  C214 1615   2.770   3.013  15.106 -0.5184  0.2858 -0.1525
   13DOPE  H14R 1616   2.769   2.902  15.104  0.4962  0.1664  2.1625
   13DOPE  H14S 1617   2.820   3.055  15.016 -1.3457  1.1353 -0.2244
   13DOPE  C215 1618   2.625   3.068  15.116  0.3734 -0.3618  0.0191
   13DOPE  H15R 1619   2.628   3.172  15.153  2.7252 -0.9211  1.5615
   13DOPE  H15S 1620   2.573   3.006  15.192 -0.2666 -0.4810 -0.4995
   13DOPE  C216 1621   2.560   3.064  14.979 -0.3871  0.4549 -0.5154
   13DOPE  H16R 1622   2.567   2.960  14.942  0.4295 -0.1316  1.1827
   13DOPE  H16S 1623   2.616   3.135  14.914 -0.7343  2.1560  0.9587
   13DOPE  C217 1624   2.419   3.121  14.983 -0.3125  0.8722 -0.1206
   13DOPE  H17R 1625   2.428   3.208  15.052  2.3982  1.3259 -0.9286
   13DOPE  H17S 1626   2.360   3.041  15.034 -0.9687  0.4513 -1.4853
   13DOPE  C218 1627   2.350   3.141  14.847 -0.6671  0.1232  0.0324
   13DOPE  H18R 1628   2.247   3.182  14.858  0.1685  2.7135 -1.0577
   13DOPE  H18S 1629   2.352   3.040  14.801 -1.0458 -1.0809  2.4772
   13DOPE  H18T 1630   2.417   3.200  14.781 -0.7833 -0.5566 -0.7062
   13DOPE   C33 1631   2.813   1.297  15.655 -0.5165  0.3538 -0.7816
   13DOPE   H3X 1632   2.839   1.195  15.689  0.1273 -0.0213 -2.2839
   13DOPE   H3Y 1633   2.906   1.326  15.601 -0.2480  0.9521 -0.0020
   13DOPE   C34 1634   2.693   1.301  15.563  0.8429  0.8170 -0.3843
   13DOPE   H4X 1635   2.608   1.272  15.629  1.9505  0.3758  0.8867
   13DOPE   H4Y 1636   2.679   1.407  15.534  2.0049  1.2789  0.6402
   13DOPE   C35 1637   2.679   1.198  15.446 -0.1032  0.3682  0.5728
   13DOPE   H5X 1638   2.573   1.201  15.414  0.2353  1.5111 -0.5073
   13DOPE   H5Y 1639   2.701   1.098  15.489 -1.5640 -1.3370 -2.3184
   13DOPE   C36 1640   2.763   1.229  15.326 -0.1835 -0.0003  0.5038
   13DOPE   H6X 1641   2.870   1.217  15.353  0.0359  0.9106  0.0810
   13DOPE   H6Y 1642   2.737   1.331  15.289 -1.1805 -0.2633  0.4534
   13DOPE   C37 1643   2.732   1.142  15.201  0.3031 -0.1208 -0.0643
   13DOPE   H7X 1644   2.764   1.037  15.220 -1.2056 -0.2169  2.2735
   13DOPE   H7Y 1645   2.621   1.140  15.195  0.1669  1.0356  1.5373
   13DOPE   C38 1646   2.799   1.197  15.076  0.0078 -0.2068 -0.1184
   13DOPE   H8X 1647   2.791   1.307  15.060  1.3195 -0.1944 -0.9185
   13DOPE   H8Y 1648   2.750   1.160  14.983  1.4110 -1.0167 -0.5694
   13DOPE   C39 1649   2.944   1.162  15.050  0.3461 -0.3199 -0.2785
   13DOPE   H9X 1650   3.023   1.204  15.114  1.5743 -0.3801 -1.6942
   13DOPE  C310 1651   3.000   1.066  14.966 -0.4543  0.1946  0.6292
   13DOPE  H10X 1652   3.106   1.037  14.970 -0.3049  0.6642  0.1569
   13DOPE  C311 1653   2.932   0.988  14.858  1.3338 -0.1643 -0.0529
   13DOPE  H11X 1654   3.000   0.907  14.823 -1.1102 -2.6453  0.5353
   13DOPE  H11Y 1655   2.845   0.944  14.913  0.5392  1.4601  0.0584
   13DOPE  C312 1656   2.892   1.070  14.732 -0.4903 -0.5536 -0.2452
   13DOPE  H12X 1657   2.984   1.120  14.693 -0.1985  0.6585  1.8449
   13DOPE  H12Y 1658   2.817   1.148  14.755  0.5654  0.2130  0.7007
   13DOPE  C313 1659   2.840   0.974  14.632  0.7529  0.0415  0.5496
   13DOPE  H13X 1660   2.828   1.032  14.538 -1.5845  0.9574  1.3402
   13DOPE  H13Y 1661   2.892   0.878  14.609 -1.1555 -1.0578  0.6485
   13DOPE  C314 1662   2.698   0.927  14.666  0.7885  0.3459  1.0068
   13DOPE  H14X 1663   2.651   0.985  14.748  2.1641  0.0370  2.0656
   13DOPE  H14Y 1664   2.692   0.818  14.685 -3.0108  0.4299  0.9789
   13DOPE  C315 1665   2.587   0.945  14.552 -0.7609 -0.2027  0.0659
   13DOPE  H15X 1666   2.598   1.050  14.518 -0.5923 -0.3375 -0.3013
   13DOPE  H15Y 1667   2.488   0.932  14.600 -0.4833  1.6067  1.2319
   13DOPE  C316 1668   2.621   0.851  14.437 -0.2571 -0.0368  0.0460
   13DOPE  H16X 1669   2.608   0.746  14.471 -0.7824  0.5631  1.8111
   13DOPE  H16Y 1670   2.727   0.863  14.406 -0.1513  2.0195  0.9813
   13DOPE  C317 1671   2.543   0.886  14.315 -0.4012 -0.7013  0.8246
   13DOPE  H17X 1672   2.567   0.982  14.264 -0.5530 -1.3898 -0.5912
   13DOPE  H17Y 1673   2.556   0.801  14.244 -1.0349  1.0753 -1.5620
   13DOPE  C318 1674   2.387   0.885  14.326  0.8394  0.0452  0.3213
   13DOPE  H18X 1675   2.350   0.874  14.221  0.7804  0.5496  0.2864
   13DOPE  H18Y 1676   2.334   0.799  14.372 -2.5371  0.8208 -1.6954
   13DOPE  H18Z 1677   2.347   0.982  14.363  2.2230  1.0280 -0.6713
   14DOPE     N 1678   0.523   4.831  16.903  0.4726 -0.2572 -0.2437
   14DOPE   HN1 1679   0.622   4.862  16.898  0.2658  0.5758  0.5215
   14DOPE   HN2 1680   0.478   4.920  16.930 -1.5323 -1.6982  1.4406
   14DOPE   HN3 1681   0.508   4.771  16.986 -0.9626 -1.0928 -1.0593
   14DOPE   C12 1682   0.469   4.766  16.776 -0.0629  0.2742  0.4564
   14DOPE  H12A 1683   0.359   4.757  16.786 -0.0759  1.3292  1.4746
   14DOPE  H12B 1684   0.512   4.666  16.755 -0.8414 -0.2850  1.4840
   14DOPE   C11 1685   0.495   4.854  16.652 -0.5616  0.8033  0.2081
   14DOPE  H11A 1686   0.445   4.953  16.661  0.8210  1.4576  1.1417
   14DOPE  H11B 1687   0.434   4.800  16.577  0.4407 -1.0581  0.6885
   14DOPE     P 1688   0.712   4.777  16.531 -0.3101  0.2814  0.1251
   14DOPE   O13 1689   0.644   4.645  16.519 -0.0850  0.2853  0.1877
   14DOPE   O14 1690   0.849   4.773  16.588  0.2914  0.7490 -0.2360
   14DOPE   O11 1691   0.716   4.840  16.384  0.1523 -0.3314 -0.5158
   14DOPE   O12 1692   0.634   4.880  16.614  0.2016  0.2007  0.1633
   14DOPE    C1 1693   0.724   4.980  16.355  0.4100  0.4875  0.4629
   14DOPE    HA 1694   0.811   5.029  16.403  0.3238  1.7446 -0.6058
   14DOPE    HB 1695   0.634   5.020  16.406 -0.0079 -0.0595  0.1603
   14DOPE    C2 1696   0.708   5.007  16.201 -0.8312 -0.3976 -0.1725
   14DOPE    HS 1697   0.679   5.112  16.177 -1.8966 -1.2668 -3.0213
   14DOPE   O21 1698   0.614   4.918  16.134 -0.1496 -0.0479 -0.0191
   14DOPE   C21 1699   0.487   4.928  16.160 -0.6619  0.0703  0.4912
   14DOPE   O22 1700   0.444   4.994  16.253 -0.3192  0.3136 -0.4927
   14DOPE   C22 1701   0.409   4.855  16.051 -0.2977 -0.0824 -0.3789
   14DOPE   H2R 1702   0.432   4.747  16.059 -1.2688 -0.5853 -3.2261
   14DOPE   H2S 1703   0.456   4.891  15.957  0.2288  1.3882  0.4058
   14DOPE    C3 1704   0.846   4.991  16.124  0.1309  0.3256  0.2535
   14DOPE    HX 1705   0.874   4.884  16.117 -0.4777  0.2437 -1.1744
   14DOPE    HY 1706   0.914   5.053  16.186 -0.7291  0.5621  0.9919
   14DOPE   O31 1707   0.826   5.053  15.993 -0.4012 -0.1269 -0.1041
   14DOPE   C31 1708   0.926   5.029  15.908  0.8124  0.6503  0.1881
   14DOPE   O32 1709   1.015   4.944  15.921 -0.0416 -0.6378  0.2325
   14DOPE   C32 1710   0.915   5.118  15.786  0.3173 -0.5315  0.2164
   14DOPE   H2X 1711   0.807   5.125  15.764  0.0788 -0.2382  1.4040
   14DOPE   H2Y 1712   0.961   5.212  15.823 -0.5189  0.1033 -0.3168
   14DOPE   C23 1713   0.254   4.880  16.046  0.3996  0.0789  0.3651
   14DOPE   H3R 1714   0.234   4.989  16.048 -1.7520 -0.2221 -1.2957
   14DOPE   H3S 1715   0.213   4.827  16.134  1.4606  0.2662  0.9824
   14DOPE   C24 1716   0.172   4.823  15.923 -0.8403 -0.4773  0.1997
   14DOPE   H4R 1717   0.174   4.713  15.935  1.5488 -0.6191 -0.9446
   14DOPE   H4S 1718   0.212   4.858  15.825 -3.2705  0.3728 -0.5645
   14DOPE   C25 1719   0.029   4.863  15.946  0.3860  0.4565  0.5112
   14DOPE   H5R 1720   0.023   4.972  15.967  0.1862  0.4061  0.7296
   14DOPE   H5S 1721   0.001   4.816  16.042  0.0887 -0.2717  0.0747
   14DOPE   C26 1722  -0.069   4.833  15.833 -1.0574  0.8094 -0.3017
   14DOPE   H6R 1723  -0.015   4.850  15.738 -1.8673  0.1012 -0.9118
   14DOPE   H6S 1724  -0.155   4.903  15.820 -2.3074 -0.4049  1.0078
   14DOPE   C27 1725  -0.105   4.686  15.830  0.2186 -0.3006 -0.2385
   14DOPE   H7R 1726  -0.132   4.648  15.931 -1.9054  1.0023 -0.2668
   14DOPE   H7S 1727  -0.013   4.635  15.792  0.8272  0.9649 -0.5260
   14DOPE   C28 1728  -0.221   4.665  15.727 -0.4986 -0.2084 -0.4686
   14DOPE   H8R 1729  -0.202   4.695  15.622 -2.5348 -0.3350 -0.9162
   14DOPE   H8S 1730  -0.301   4.735  15.760 -0.7628 -1.0854  0.8310
   14DOPE   C29 1731  -0.277   4.530  15.739  0.1438 -0.3856 -0.5605
   14DOPE   H9R 1732  -0.270   4.479  15.837  0.6931  0.2163 -0.2818
   14DOPE  C210 1733  -0.330   4.465  15.638 -0.4423  0.1014 -0.1829
   14DOPE  H10R 1734  -0.376   4.367  15.657  0.4767 -0.7223 -1.9151
   14DOPE  C211 1735  -0.355   4.523  15.504  0.3985 -0.2992  0.6714
   14DOPE  H11R 1736  -0.304   4.620  15.484  0.7016 -0.5146  0.4025
   14DOPE  H11S 1737  -0.463   4.547  15.492  0.3257 -0.5958  0.7252
   14DOPE  C212 1738  -0.301   4.426  15.390  0.4045 -0.4416 -0.0355
   14DOPE  H12R 1739  -0.351   4.328  15.404 -0.7038  0.2747  1.2865
   14DOPE  H12S 1740  -0.193   4.402  15.403 -0.1531 -3.4272 -0.2526
   14DOPE  C213 1741  -0.340   4.470  15.246  0.1027  0.0371 -0.0583
   14DOPE  H13R 1742  -0.278   4.560  15.224  0.0080 -0.3592 -2.1725
   14DOPE  H13S 1743  -0.447   4.499  15.252  0.5018  1.3000  1.5029
   14DOPE  C214 1744  -0.314   4.359  15.140 -0.2332  0.4888  0.2228
   14DOPE  H14R 1745  -0.375   4.267  15.151  0.5672 -0.3381 -1.7852
   14DOPE  H14S 1746  -0.206   4.334  15.146 -0.0360  1.0428 -0.7055
   14DOPE  C215 1747  -0.347   4.404  14.998  0.4756 -0.0859 -0.7164
   14DOPE  H15R 1748  -0.312   4.509  14.999  2.0199 -0.4755  3.0376
   14DOPE  H15S 1749  -0.458   4.399  14.994  0.3260  1.6215  0.5073
   14DOPE  C216 1750  -0.274   4.310  14.905  0.1869 -0.3145 -0.4035
   14DOPE  H16R 1751  -0.311   4.210  14.936  0.6695 -0.4931 -0.3870
   14DOPE  H16S 1752  -0.163   4.308  14.913  0.1451  0.2384  0.3847
   14DOPE  C217 1753  -0.302   4.330  14.760  0.0312 -0.5514  1.0471
   14DOPE  H17R 1754  -0.263   4.432  14.737  0.1642  0.0053  3.4936
   14DOPE  H17S 1755  -0.413   4.330  14.748 -0.2512 -4.9168  2.1314
   14DOPE  C218 1756  -0.240   4.225  14.673  0.6565 -0.5656  0.0226
   14DOPE  H18R 1757  -0.266   4.244  14.567  0.9167 -3.7652 -0.7184
   14DOPE  H18S 1758  -0.278   4.127  14.712  0.4188 -0.2724  0.5441
   14DOPE  H18T 1759  -0.130   4.220  14.687  0.3915 -0.3409  2.7499
   14DOPE   C33 1760   0.983   5.060  15.663  0.4845 -0.5458  0.4924
   14DOPE   H3X 1761   1.082   5.021  15.696  0.5673 -0.1234  0.7494
   14DOPE   H3Y 1762   1.005   5.130  15.579  0.5566 -0.3037  0.7117
   14DOPE   C34 1763   0.915   4.927  15.615 -0.2189 -0.2171 -0.4899
   14DOPE   H4X 1764   0.932   4.846  15.689 -0.7666 -0.3465 -0.5013
   14DOPE   H4Y 1765   0.808   4.955  15.601  0.1981  1.1543 -1.0818
   14DOPE   C35 1766   0.943   4.864  15.477  0.3097 -1.1944  0.2526
   14DOPE   H5X 1767   0.920   4.755  15.475  0.3855 -1.2744  2.1688
   14DOPE   H5Y 1768   1.053   4.872  15.461  0.2380 -0.0836  0.2439
   14DOPE   C36 1769   0.883   4.941  15.355  0.0590 -0.4182 -0.2004
   14DOPE   H6X 1770   0.901   5.051  15.350  2.1281 -0.6789  0.2533
   14DOPE   H6Y 1771   0.776   4.915  15.368  0.0265  0.5025  1.8217
   14DOPE   C37 1772   0.924   4.880  15.222  0.3352  0.4007 -0.9551
   14DOPE   H7X 1773   1.033   4.893  15.203  0.7756 -1.9425 -0.3861
   14DOPE   H7Y 1774   0.908   4.770  15.226  0.8061  0.1990 -3.2557
   14DOPE   C38 1775   0.835   4.939  15.116  0.4208 -0.4375  0.2883
   14DOPE   H8X 1776   0.824   5.048  15.138  0.0704  0.4118 -3.4137
   14DOPE   H8Y 1777   0.734   4.895  15.131 -0.3021  1.0345 -0.0942
   14DOPE   C39 1778   0.888   4.911  14.978  0.9200 -0.0567 -0.3271
   14DOPE   H9X 1779   0.918   4.808  14.953  0.4727 -0.0340 -0.9843
   14DOPE  C310 1780   0.897   5.000  14.879  0.2832  0.3505 -0.1395
   14DOPE  H10X 1781   0.925   4.962  14.780 -1.2433  1.7514 -1.1725
   14DOPE  C311 1782   0.862   5.148  14.893  0.5015 -0.1645 -0.0678
   14DOPE  H11X 1783   0.753   5.169  14.885  0.5977  0.4438  0.1498
   14DOPE  H11Y 1784   0.884   5.202  14.988  1.1175  2.5204 -1.6271
   14DOPE  C312 1785   0.923   5.234  14.777 -0.6393  0.0125  0.2242
   14DOPE  H12X 1786   1.033   5.220  14.779 -0.4563  1.2270 -0.3003
   14DOPE  H12Y 1787   0.912   5.341  14.808  0.8199  0.4557 -0.6612
   14DOPE  C313 1788   0.858   5.211  14.640  0.2408  0.1993  0.1972
   14DOPE  H13X 1789   0.879   5.106  14.612 -0.1604 -0.8337  3.3847
   14DOPE  H13Y 1790   0.747   5.212  14.647  0.2404 -0.3795  0.3236
   14DOPE  C314 1791   0.910   5.300  14.528 -0.5724  0.1377  0.1542
   14DOPE  H14X 1792   1.020   5.295  14.520 -0.5289 -1.0306  1.0383
   14DOPE  H14Y 1793   0.885   5.405  14.555  3.9002  0.8718  2.2665
   14DOPE  C315 1794   0.860   5.261  14.387 -0.3888 -0.1958  0.3137
   14DOPE  H15X 1795   0.896   5.341  14.320  0.8658 -1.2029 -0.2674
   14DOPE  H15Y 1796   0.749   5.272  14.382 -0.1299  2.5689 -0.9612
   14DOPE  C316 1797   0.917   5.129  14.325 -0.2502 -0.6921 -0.3187
   14DOPE  H16X 1798   0.890   5.045  14.392  1.5201 -0.0683  1.2444
   14DOPE  H16Y 1799   1.025   5.146  14.310 -0.3151  1.5156  1.1946
   14DOPE  C317 1800   0.854   5.102  14.193  0.2182  0.0673 -0.1886
   14DOPE  H17X 1801   0.745   5.090  14.210 -0.0644  1.2322 -1.0415
   14DOPE  H17Y 1802   0.869   5.189  14.126 -1.8471  0.6926  0.1128
   14DOPE  C318 1803   0.910   4.973  14.130 -0.3178 -1.1264 -0.4397
   14DOPE  H18X 1804   0.881   4.893  14.202  1.9241 -1.1298  0.5487
   14DOPE  H18Y 1805   0.857   4.957  14.034  0.1281  1.3212 -1.1605
   14DOPE  H18Z 1806   1.018   4.993  14.113 -0.3717  1.2652  1.5171
   15DOPE     N 1807   0.546   0.431  16.508  0.8961  0.4177 -0.7954
   15DOPE   HN1 1808   0.599   0.342  16.497 -0.3771 -0.5965  0.8576
   15DOPE   HN2 1809   0.532   0.458  16.608 -3.3863  0.6142 -1.2906
   15DOPE   HN3 1810   0.452   0.402  16.476 -0.0889 -0.6236  2.6140
   15DOPE   C12 1811   0.594   0.545  16.428  0.8157 -0.2961 -0.0800
   15DOPE  H12A 1812   0.698   0.565  16.463  0.7751 -3.3746  2.2407
   15DOPE  H12B 1813   0.528   0.631  16.448  1.6336  0.5171 -0.8197
   15DOPE   C11 1814   0.598   0.505  16.283 -0.7684 -0.1405 -0.0247
   15DOPE  H11A 1815   0.661   0.417  16.260 -0.1795  0.0351  0.8408
   15DOPE  H11B 1816   0.632   0.599  16.235 -0.1685  0.8518  2.2106
   15DOPE     P 1817   0.417   0.461  16.094 -0.4114 -0.3195  0.3560
   15DOPE   O13 1818   0.270   0.457  16.085  0.1068 -0.0262 -0.5517
   15DOPE   O14 1819   0.471   0.338  16.041  0.2607 -0.3621 -0.2234
   15DOPE   O11 1820   0.484   0.583  16.013 -0.2353  0.3455  0.2054
   15DOPE   O12 1821   0.463   0.482  16.246 -0.0870  0.3003  0.1107
   15DOPE    C1 1822   0.621   0.558  15.959 -0.5637  0.6637 -0.1142
   15DOPE    HA 1823   0.608   0.492  15.870 -1.3671 -0.7782  1.0167
   15DOPE    HB 1824   0.690   0.504  16.027 -0.8695  0.9190  0.4055
   15DOPE    C2 1825   0.689   0.687  15.912  0.1339  0.2556  0.1541
   15DOPE    HS 1826   0.729   0.744  15.999  0.1457  1.6822 -0.7537
   15DOPE   O21 1827   0.590   0.761  15.841 -0.3848 -0.6434  0.3823
   15DOPE   C21 1828   0.617   0.887  15.829  0.0629 -0.4173 -0.4057
   15DOPE   O22 1829   0.707   0.948  15.892 -0.0370  0.1535  0.1195
   15DOPE   C22 1830   0.516   0.940  15.722 -0.6759  0.6145 -0.2510
   15DOPE   H2R 1831   0.418   0.894  15.746  0.6098 -2.1200  0.0761
   15DOPE   H2S 1832   0.552   0.902  15.625  2.6091  3.9676 -0.5734
   15DOPE    C3 1833   0.811   0.656  15.819 -0.4605 -0.0068 -0.3662
   15DOPE    HX 1834   0.783   0.586  15.738  0.6458  0.2514 -0.9873
   15DOPE    HY 1835   0.887   0.599  15.876 -0.5266  0.8463  0.6051
   15DOPE   O31 1836   0.867   0.773  15.753  0.3425 -0.2080 -0.2415
   15DOPE   C31 1837   0.981   0.821  15.801  0.3506  0.2182  0.4437
   15DOPE   O32 1838   1.033   0.798  15.907 -0.0845  0.1957 -0.4124
   15DOPE   C32 1839   1.047   0.910  15.694  0.4660  1.0969  0.1277
   15DOPE   H2X 1840   1.082   0.843  15.612  0.1799 -0.3853  1.1640
   15DOPE   H2Y 1841   0.968   0.977  15.654 -1.6340 -0.6673  1.0829
   15DOPE   C23 1842   0.513   1.095  15.710 -0.7301  0.0081 -0.2986
   15DOPE   H3R 1843   0.617   1.135  15.705 -0.4222 -0.8843 -1.9916
   15DOPE   H3S 1844   0.468   1.128  15.806 -1.1211 -0.3017 -0.3726
   15DOPE   C24 1845   0.430   1.139  15.588  0.0439 -0.0990 -0.1505
   15DOPE   H4R 1846   0.326   1.111  15.617 -0.0433 -1.1596 -1.4017
   15DOPE   H4S 1847   0.450   1.077  15.497 -2.3898 -1.9594  0.4786
   15DOPE   C25 1848   0.443   1.283  15.546 -0.0065  0.3323  0.8002
   15DOPE   H5R 1849   0.550   1.303  15.525 -0.7640  3.3151 -0.7988
   15DOPE   H5S 1850   0.406   1.352  15.625 -1.7023  0.8941 -0.4340
   15DOPE   C26 1851   0.353   1.323  15.428  0.2583  0.0416  0.8343
   15DOPE   H6R 1852   0.249   1.285  15.437  0.0269  0.7779  1.3260
   15DOPE   H6S 1853   0.393   1.265  15.342  2.0106  1.6627  0.4817
   15DOPE   C27 1854   0.364   1.471  15.398  0.5047  0.0498 -0.4040
   15DOPE   H7R 1855   0.330   1.482  15.293  1.2191  0.2197 -0.6245
   15DOPE   H7S 1856   0.471   1.492  15.420  0.7342 -1.9426  0.5802
   15DOPE   C28 1857   0.310   1.576  15.503  0.4743  0.3577 -0.7403
   15DOPE   H8R 1858   0.368   1.571  15.598  1.0230 -0.2052 -1.0997
   15DOPE   H8S 1859   0.202   1.564  15.529  0.5930  1.2234  0.2215
   15DOPE   C29 1860   0.320   1.716  15.444  0.3015 -0.6771 -0.1024
   15DOPE   H9R 1861   0.415   1.758  15.478  0.3705 -1.8215  1.2251
   15DOPE  C210 1862   0.226   1.781  15.374  0.9666 -0.2506  0.4727
   15DOPE  H10R 1863   0.242   1.880  15.328 -2.0046  0.8283  1.5140
   15DOPE  C211 1864   0.087   1.727  15.331 -0.2431 -0.0123  0.5610
   15DOPE  H11R 1865   0.013   1.780  15.394 -0.2057  2.0956 -1.0355
   15DOPE  H11S 1866   0.074   1.618  15.349  0.0245 -0.4271 -1.5143
   15DOPE  C212 1867   0.037   1.765  15.193 -0.2724  0.5245 -0.4678
   15DOPE  H12R 1868   0.045   1.876  15.188 -1.9809  0.6772 -0.4894
   15DOPE  H12S 1869  -0.069   1.736  15.172 -0.2757  0.6455 -0.6231
   15DOPE  C213 1870   0.126   1.686  15.088 -0.2963 -0.9699 -0.1287
   15DOPE  H13R 1871   0.127   1.576  15.105  2.8395 -1.1138 -0.6443
   15DOPE  H13S 1872   0.230   1.720  15.106 -0.1576 -1.3644 -0.1709
   15DOPE  C214 1873   0.083   1.720  14.945  0.2522 -0.0368  0.1716
   15DOPE  H14R 1874   0.081   1.829  14.925 -0.5928  0.1743  1.3059
   15DOPE  H14S 1875  -0.024   1.691  14.939  0.3803 -0.9338  1.6990
   15DOPE  C215 1876   0.149   1.639  14.831  0.3563 -0.1343  0.3933
   15DOPE  H15R 1877   0.132   1.530  14.839  0.3239 -0.0906  1.0334
   15DOPE  H15S 1878   0.258   1.654  14.847 -0.0639  1.8909  1.8712
   15DOPE  C216 1879   0.107   1.682  14.690  0.1544  0.3163 -0.3648
   15DOPE  H16R 1880   0.131   1.790  14.674 -1.4975  0.7019 -0.3946
   15DOPE  H16S 1881  -0.004   1.680  14.685  0.1976 -1.1155 -1.0876
   15DOPE  C217 1882   0.154   1.591  14.577  0.3263  0.0416 -0.3961
   15DOPE  H17R 1883   0.118   1.635  14.481  1.2927  1.0547 -0.3163
   15DOPE  H17S 1884   0.103   1.494  14.596  0.9823 -0.2220  0.0259
   15DOPE  C218 1885   0.305   1.570  14.561 -0.4050  0.1181 -0.0526
   15DOPE  H18R 1886   0.313   1.494  14.480 -0.3454  0.7367 -0.6384
   15DOPE  H18S 1887   0.344   1.539  14.660 -2.7500 -2.2137  0.2481
   15DOPE  H18T 1888   0.357   1.660  14.523 -0.3476  0.0648 -0.1001
   15DOPE   C33 1889   1.176   0.989  15.748  0.6238  0.7133  0.3804
   15DOPE   H3X 1890   1.224   1.032  15.658  0.9795  0.1124  0.2759
   15DOPE   H3Y 1891   1.261   0.933  15.793  1.2154  1.1564 -0.1556
   15DOPE   C34 1892   1.143   1.093  15.857  0.4173  0.5490  0.2307
   15DOPE   H4X 1893   1.116   1.045  15.953 -0.9259  1.6470  0.4451
   15DOPE   H4Y 1894   1.237   1.151  15.869  0.7281  0.0635  0.1702
   15DOPE   C35 1895   1.027   1.182  15.828  0.1327  0.8897  0.3697
   15DOPE   H5X 1896   0.931   1.131  15.852  1.1502 -1.1163  0.3951
   15DOPE   H5Y 1897   1.017   1.203  15.720  0.0406 -1.2415 -0.0636
   15DOPE   C36 1898   1.045   1.318  15.896 -0.5533  0.6625 -0.3265
   15DOPE   H6X 1899   1.139   1.363  15.857  0.7795  0.2149  2.1630
   15DOPE   H6Y 1900   1.063   1.302  16.004 -2.1613 -1.5959 -0.3298
   15DOPE   C37 1901   0.926   1.411  15.882  0.0881 -0.0822 -0.6744
   15DOPE   H7X 1902   0.834   1.352  15.905 -0.1998  0.3792 -0.6293
   15DOPE   H7Y 1903   0.945   1.492  15.956  0.5618 -0.5961 -0.2268
   15DOPE   C38 1904   0.912   1.485  15.755 -0.3328 -0.3742 -0.5392
   15DOPE   H8X 1905   1.011   1.529  15.733  0.3595 -1.4693  0.2388
   15DOPE   H8Y 1906   0.841   1.568  15.778  1.1206  0.2800  2.0532
   15DOPE   C39 1907   0.870   1.409  15.632 -0.7806 -0.1207  0.1732
   15DOPE   H9X 1908   0.869   1.299  15.635 -2.1868 -0.2586 -2.2999
   15DOPE  C310 1909   0.823   1.465  15.521  0.0047 -0.3283  0.1383
   15DOPE  H10X 1910   0.804   1.399  15.436  0.7712 -2.5891  1.6270
   15DOPE  C311 1911   0.796   1.620  15.505  0.5218 -0.2857  0.6177
   15DOPE  H11X 1912   0.694   1.644  15.470  1.1074  0.9714 -0.2917
   15DOPE  H11Y 1913   0.799   1.674  15.602  0.6214  0.7306  0.0657
   15DOPE  C312 1914   0.892   1.685  15.401  0.4494  0.5720  0.3353
   15DOPE  H12X 1915   0.992   1.637  15.405 -0.5120 -1.5892  5.0716
   15DOPE  H12Y 1916   0.919   1.790  15.426 -0.6439  1.6738 -2.5628
   15DOPE  C313 1917   0.835   1.680  15.256 -0.3788 -0.4838  0.4930
   15DOPE  H13X 1918   0.821   1.579  15.211  0.8196 -0.0485 -0.9541
   15DOPE  H13Y 1919   0.733   1.723  15.256 -0.5586 -0.8334  2.6016
   15DOPE  C314 1920   0.932   1.743  15.149 -0.1049  0.4966  0.2906
   15DOPE  H14X 1921   1.002   1.818  15.193 -0.6833  0.4461  1.3168
   15DOPE  H14Y 1922   0.871   1.801  15.076 -0.4058 -0.3184 -0.1097
   15DOPE  C315 1923   1.005   1.634  15.061  0.6572 -0.8836 -0.5110
   15DOPE  H15X 1924   0.929   1.562  15.023  0.3679 -0.2320 -1.1962
   15DOPE  H15Y 1925   1.084   1.589  15.123 -0.0293  0.0859  1.1268
   15DOPE  C316 1926   1.087   1.702  14.948 -0.0526 -0.3214  0.6210
   15DOPE  H16X 1927   1.150   1.788  14.979 -0.1376 -0.1296  0.2579
   15DOPE  H16Y 1928   1.019   1.741  14.871 -1.2068  1.7225  2.5664
   15DOPE  C317 1929   1.182   1.597  14.887 -0.2619 -0.2592 -0.0387
   15DOPE  H17X 1930   1.262   1.648  14.830  2.9337 -1.3390  3.1258
   15DOPE  H17Y 1931   1.240   1.534  14.958  0.3124 -0.4918 -0.7088
   15DOPE  C318 1932   1.109   1.499  14.790  0.6428 -0.0220 -0.0015
   15DOPE  H18X 1933   1.026   1.450  14.846  0.3746  0.2526 -0.1585
   15DOPE  H18Y 1934   1.062   1.546  14.701  1.1160 -2.0534 -1.4068
   15DOPE  H18Z 1935   1.180   1.418  14.762 -0.5998 -0.9019 -0.6951
   16DOPE     N 1936   8.571   3.117  16.433  0.2268  0.0614 -0.2314
   16DOPE   HN1 1937   8.633   3.044  16.393  2.2752  2.4578 -1.7375
   16DOPE   HN2 1938   8.613   3.154  16.521 -2.9392 -0.4102  1.6489
   16DOPE   HN3 1939   8.475   3.082  16.452  0.1850  0.5951  0.6049
   16DOPE   C12 1940   8.559   3.236  16.347 -0.7170  0.2649 -0.1607
   16DOPE  H12A 1941   8.606   3.215  16.249  2.9779  0.3852  1.3899
   16DOPE  H12B 1942   8.614   3.321  16.393  0.3873 -0.6713  0.2907
   16DOPE   C11 1943   8.413   3.266  16.327 -0.3249 -0.0286  0.9920
   16DOPE  H11A 1944   8.357   3.179  16.287 -0.4597  1.2206 -1.7727
   16DOPE  H11B 1945   8.400   3.341  16.245  2.2235  0.7125  1.1960
   16DOPE     P 1946   8.348   3.475  16.481 -0.4224 -0.4573 -0.1764
   16DOPE   O13 1947   8.480   3.534  16.446 -0.2569  0.4503  0.6780
   16DOPE   O14 1948   8.313   3.479  16.625 -0.0307 -0.6259  0.0981
   16DOPE   O11 1949   8.231   3.532  16.394 -0.2654 -0.0678  0.0310
   16DOPE   O12 1950   8.352   3.316  16.449  0.1966 -0.0785 -0.1174
   16DOPE    C1 1951   8.254   3.643  16.308 -0.1655 -0.9519 -0.0289
   16DOPE    HA 1952   8.358   3.659  16.271 -0.2691 -1.7681 -0.7095
   16DOPE    HB 1953   8.239   3.738  16.363  2.3122 -0.0426 -0.7568
   16DOPE    C2 1954   8.166   3.640  16.179  0.8775  0.5233  0.3701
   16DOPE    HS 1955   8.170   3.735  16.122 -1.2178  1.4874  1.6921
   16DOPE   O21 1956   8.032   3.613  16.213  0.2057 -0.2694 -0.1397
   16DOPE   C21 1957   7.968   3.699  16.289  0.4262 -0.2154  0.4324
   16DOPE   O22 1958   8.009   3.793  16.353  0.4280  0.0552  0.5398
   16DOPE   C22 1959   7.821   3.654  16.299 -0.0025 -0.1652 -0.7043
   16DOPE   H2R 1960   7.759   3.746  16.313 -0.1202 -0.4890  1.3151
   16DOPE   H2S 1961   7.810   3.604  16.398 -1.9528  1.3692 -0.0574
   16DOPE    C3 1962   8.202   3.518  16.087  0.1666  0.5615  0.4201
   16DOPE    HX 1963   8.115   3.519  16.019 -1.3328 -0.1129  2.2330
   16DOPE    HY 1964   8.199   3.428  16.153 -2.6033 -0.4173 -0.8682
   16DOPE   O31 1965   8.332   3.539  16.026  0.4563 -0.4550  0.7735
   16DOPE   C31 1966   8.324   3.632  15.931  0.3608 -0.0875  0.5437
   16DOPE   O32 1967   8.223   3.690  15.897 -0.4073  0.0734  1.0533
   16DOPE   C32 1968   8.468   3.659  15.874  0.4413 -0.3356  0.2104
   16DOPE   H2X 1969   8.496   3.754  15.924 -1.2795  1.3042 -1.7590
   16DOPE   H2Y 1970   8.541   3.585  15.913  0.9593 -0.7539 -1.4415
   16DOPE   C23 1971   7.775   3.561  16.186 -0.6859 -0.3156 -0.3207
   16DOPE   H3R 1972   7.841   3.472  16.180 -0.1433 -0.0683  1.4396
   16DOPE   H3S 1973   7.783   3.618  16.091  0.9758  1.8355  1.0312
   16DOPE   C24 1974   7.632   3.512  16.203  0.1753  0.4998  0.1396
   16DOPE   H4R 1975   7.562   3.598  16.207 -0.5418 -0.0808  0.3435
   16DOPE   H4S 1976   7.621   3.469  16.305 -3.7407  1.3473  0.2389
   16DOPE   C25 1977   7.579   3.413  16.100 -0.2505  0.4516  0.3847
   16DOPE   H5R 1978   7.580   3.455  15.997 -1.9546 -3.3315 -1.3558
   16DOPE   H5S 1979   7.471   3.398  16.124 -0.6202  2.8825  0.4573
   16DOPE   C26 1980   7.661   3.284  16.104 -0.4440 -0.5101  1.1946
   16DOPE   H6R 1981   7.670   3.255  16.211 -2.5512 -2.6160  0.8760
   16DOPE   H6S 1982   7.764   3.299  16.065 -0.7894 -1.5828 -0.1886
   16DOPE   C27 1983   7.618   3.161  16.017 -1.0078  0.6716 -0.7071
   16DOPE   H7R 1984   7.545   3.104  16.079  4.1284 -1.1188  4.6906
   16DOPE   H7S 1985   7.707   3.095  16.015  0.7775  2.5567  3.3723
   16DOPE   C28 1986   7.574   3.193  15.877  0.1392  0.0974 -0.4424
   16DOPE   H8R 1987   7.495   3.271  15.874 -1.1786 -1.1294  0.8973
   16DOPE   H8S 1988   7.535   3.097  15.837 -1.6870  0.7259 -0.2641
   16DOPE   C29 1989   7.696   3.233  15.796 -0.2971 -0.5167  0.7639
   16DOPE   H9R 1990   7.746   3.327  15.824  2.0091 -0.6325 -2.4565
   16DOPE  C210 1991   7.743   3.174  15.684 -0.3340  0.1531 -0.3273
   16DOPE  H10R 1992   7.828   3.218  15.628  0.4168  0.2795  0.8751
   16DOPE  C211 1993   7.668   3.060  15.619 -0.2622 -0.2635  0.0947
   16DOPE  H11R 1994   7.578   3.106  15.574  0.2287  1.0310  0.3707
   16DOPE  H11S 1995   7.647   2.980  15.693 -0.9736  0.7799  1.0507
   16DOPE  C212 1996   7.740   2.990  15.505  0.0341  0.0788  0.3760
   16DOPE  H12R 1997   7.792   3.072  15.451 -0.3615  0.9446  1.2925
   16DOPE  H12S 1998   7.655   2.948  15.447 -0.0861  0.7076  0.0911
   16DOPE  C213 1999   7.833   2.875  15.551  0.0458  0.0321 -0.0202
   16DOPE  H13R 2000   7.775   2.796  15.604 -1.3251 -0.4231 -2.0796
   16DOPE  H13S 2001   7.913   2.915  15.617 -0.4450  1.0734 -0.0277
   16DOPE  C214 2002   7.890   2.802  15.427  0.0915  0.5111 -0.7228
   16DOPE  H14R 2003   7.937   2.880  15.362  2.7489  1.4631  2.0831
   16DOPE  H14S 2004   7.805   2.762  15.368 -0.9919  1.4458  0.1665
   16DOPE  C215 2005   8.005   2.702  15.453 -0.2647  0.5311  0.1915
   16DOPE  H15R 2006   7.952   2.617  15.504 -0.8705  0.4783 -0.5032
   16DOPE  H15S 2007   8.074   2.738  15.531  1.6653 -0.7467 -0.8528
   16DOPE  C216 2008   8.085   2.657  15.326 -0.2579  0.1803  0.4099
   16DOPE  H16R 2009   8.173   2.593  15.350  0.5176  0.9605 -0.2740
   16DOPE  H16S 2010   8.116   2.751  15.276 -1.6961 -0.2463 -1.4350
   16DOPE  C217 2011   8.004   2.578  15.217 -0.7052  0.4852  0.4772
   16DOPE  H17R 2012   7.917   2.638  15.182 -1.0645 -0.9960 -1.3555
   16DOPE  H17S 2013   7.978   2.489  15.279  2.1010 -0.8044 -0.0272
   16DOPE  C218 2014   8.086   2.543  15.091 -0.3790  0.4856  0.5801
   16DOPE  H18R 2015   8.190   2.529  15.128 -0.9033 -1.1778  1.5335
   16DOPE  H18S 2016   8.071   2.616  15.008  0.2061 -2.3845 -2.2720
   16DOPE  H18T 2017   8.063   2.446  15.042 -0.1571  1.5097 -1.7149
   16DOPE   C33 2018   8.472   3.675  15.717  0.0462 -0.3667 -0.5714
   16DOPE   H3X 2019   8.576   3.706  15.694 -0.9948  3.2076 -1.0790
   16DOPE   H3Y 2020   8.405   3.757  15.681  0.0441 -0.4540 -0.7659
   16DOPE   C34 2021   8.436   3.555  15.636  0.3631 -0.2954  0.0799
   16DOPE   H4X 2022   8.489   3.467  15.679  0.4247 -0.3248 -0.0568
   16DOPE   H4Y 2023   8.327   3.541  15.652  0.3059  0.6686  0.6597
   16DOPE   C35 2024   8.493   3.565  15.487  0.0023 -0.3428 -0.7285
   16DOPE   H5X 2025   8.508   3.459  15.457  0.0900 -0.9567  1.3527
   16DOPE   H5Y 2026   8.587   3.622  15.474 -1.6316  2.7918  0.1645
   16DOPE   C36 2027   8.384   3.616  15.392  0.0841 -0.8857  0.1108
   16DOPE   H6X 2028   8.354   3.718  15.425 -1.4455 -1.6202  1.1169
   16DOPE   H6Y 2029   8.291   3.556  15.383 -1.3781  1.4003 -1.2929
   16DOPE   C37 2030   8.443   3.645  15.250  0.2918 -0.5910 -0.2213
   16DOPE   H7X 2031   8.379   3.712  15.190 -0.5447 -0.5508  0.6820
   16DOPE   H7Y 2032   8.541   3.694  15.265 -1.0169  2.1661 -0.0687
   16DOPE   C38 2033   8.450   3.518  15.162  0.4706 -0.3967 -0.0828
   16DOPE   H8X 2034   8.350   3.471  15.172  0.9893 -1.4433  0.3155
   16DOPE   H8Y 2035   8.517   3.456  15.226  0.7600 -1.1806 -1.1231
   16DOPE   C39 2036   8.506   3.547  15.029  0.2509 -0.6635 -0.0444
   16DOPE   H9X 2037   8.606   3.594  15.030  0.5559 -1.2465 -1.1205
   16DOPE  C310 2038   8.458   3.535  14.908 -0.9535  0.1580  0.1142
   16DOPE  H10X 2039   8.526   3.547  14.823 -2.2568  0.7919 -0.8704
   16DOPE  C311 2040   8.314   3.479  14.882  0.2912  0.5731  0.6490
   16DOPE  H11X 2041   8.260   3.457  14.977  0.9445 -1.0516  0.6760
   16DOPE  H11Y 2042   8.245   3.545  14.825  3.1190  0.6414 -3.0884
   16DOPE  C312 2043   8.324   3.361  14.786  0.0837  0.7681 -0.1502
   16DOPE  H12X 2044   8.234   3.295  14.781  0.0562  0.8962 -1.9078
   16DOPE  H12Y 2045   8.398   3.296  14.838 -0.7695 -1.3799 -1.4759
   16DOPE  C313 2046   8.376   3.399  14.646  0.4272  0.0536  0.4690
   16DOPE  H13X 2047   8.307   3.464  14.589 -0.1189 -1.1854 -0.3209
   16DOPE  H13Y 2048   8.468   3.461  14.652 -0.9422  2.3852 -1.3346
   16DOPE  C314 2049   8.410   3.280  14.557 -0.2154 -0.2540  0.7640
   16DOPE  H14X 2050   8.454   3.332  14.469  0.0716 -0.6684  0.6625
   16DOPE  H14Y 2051   8.314   3.232  14.528  0.2443 -0.5862 -0.2434
   16DOPE  C315 2052   8.515   3.190  14.613  0.1311 -0.3182 -0.0572
   16DOPE  H15X 2053   8.470   3.107  14.671  1.7112 -1.4106 -0.3603
   16DOPE  H15Y 2054   8.581   3.250  14.680 -0.2103  1.7384 -1.4549
   16DOPE  C316 2055   8.590   3.112  14.506  0.0337 -0.3228  0.3185
   16DOPE  H16X 2056   8.632   3.181  14.430 -1.6040 -0.7204 -1.0151
   16DOPE  H16Y 2057   8.519   3.049  14.448  1.3659 -1.5961  0.0210
   16DOPE  C317 2058   8.703   3.017  14.551 -0.0026 -0.4303 -0.2148
   16DOPE  H17X 2059   8.771   3.069  14.622  1.6824  0.3723 -2.3013
   16DOPE  H17Y 2060   8.655   2.925  14.590  1.7987 -1.3081  0.0289
   16DOPE  C318 2061   8.786   2.984  14.426  0.0081  0.0491 -0.1606
   16DOPE  H18X 2062   8.722   2.978  14.335  1.6535  1.0730 -1.4332
   16DOPE  H18Y 2063   8.861   3.062  14.401  0.6203 -0.3356  0.4493
   16DOPE  H18Z 2064   8.839   2.886  14.432  1.3138  0.7583  0.2104
   17DOPE     N 2065   0.749   8.019  16.141 -0.4050 -0.0741  0.3049
   17DOPE   HN1 2066   0.785   8.086  16.212 -2.0421  0.2221  0.9005
   17DOPE   HN2 2067   0.705   8.076  16.065 -0.0397 -0.6484 -0.3433
   17DOPE   HN3 2068   0.677   7.956  16.180 -0.3081 -1.0835 -1.0952
   17DOPE   C12 2069   0.854   7.923  16.085 -0.0555  0.2177  0.0845
   17DOPE  H12A 2070   0.813   7.897  15.984 -0.9799  2.6725 -0.2207
   17DOPE  H12B 2071   0.855   7.843  16.162  0.8697 -0.0852 -0.2240
   17DOPE   C11 2072   0.987   7.996  16.071 -0.2428  0.3633  0.3230
   17DOPE  H11A 2073   0.981   8.082  16.001 -2.1095  1.2108  1.4538
   17DOPE  H11B 2074   1.059   7.932  16.016  0.6400  2.2441 -0.8246
   17DOPE     P 2075   1.115   7.924  16.293 -0.2638 -0.3083  0.5998
   17DOPE   O13 2076   1.021   7.817  16.325 -0.0683 -0.2607 -0.3734
   17DOPE   O14 2077   1.170   8.003  16.407 -0.2958  0.3847  0.0075
   17DOPE   O11 2078   1.235   7.867  16.205  0.6833  0.2635 -0.5163
   17DOPE   O12 2079   1.043   8.032  16.196 -0.3151 -0.3651 -0.7209
   17DOPE    C1 2080   1.357   7.935  16.166  0.6496  0.0252 -0.4852
   17DOPE    HA 2081   1.438   7.900  16.234  0.9446 -0.8108 -1.2541
   17DOPE    HB 2082   1.345   8.046  16.170 -1.1074 -0.1656  0.0550
   17DOPE    C2 2083   1.401   7.889  16.019  0.8564 -0.6337  0.6842
   17DOPE    HS 2084   1.501   7.932  15.998 -0.1998  1.5684 -0.0247
   17DOPE   O21 2085   1.307   7.934  15.920 -0.3051  0.3291 -0.7286
   17DOPE   C21 2086   1.326   8.060  15.896  0.4086 -0.1486 -0.0985
   17DOPE   O22 2087   1.398   8.140  15.951  0.2140 -0.0697 -0.3387
   17DOPE   C22 2088   1.232   8.090  15.788 -0.4724  0.4168 -0.3027
   17DOPE   H2R 2089   1.150   8.015  15.797  0.9299 -1.1777 -0.3823
   17DOPE   H2S 2090   1.281   8.078  15.689 -2.8841 -0.4120 -1.4728
   17DOPE    C3 2091   1.417   7.733  16.013  0.0812  0.0632 -0.2756
   17DOPE    HX 2092   1.341   7.685  16.078 -0.9183  0.2655 -1.2542
   17DOPE    HY 2093   1.514   7.712  16.064 -0.4926 -1.0248  0.3959
   17DOPE   O31 2094   1.424   7.693  15.882 -0.2016 -0.1520  0.1642
   17DOPE   C31 2095   1.322   7.630  15.823  0.4414 -0.2163  0.4186
   17DOPE   O32 2096   1.212   7.608  15.877 -0.1431 -0.0829  0.7832
   17DOPE   C32 2097   1.350   7.598  15.671  0.4381 -0.3074 -0.9227
   17DOPE   H2X 2098   1.266   7.532  15.641  0.2768  0.0202 -1.2047
   17DOPE   H2Y 2099   1.334   7.694  15.617  1.6419  0.0131 -0.7368
   17DOPE   C23 2100   1.174   8.231  15.780 -0.4869 -0.3619 -0.1748
   17DOPE   H3R 2101   1.262   8.295  15.797  0.4513 -1.1111 -1.9417
   17DOPE   H3S 2102   1.098   8.247  15.859 -2.9114 -0.4482 -2.3588
   17DOPE   C24 2103   1.121   8.270  15.642 -0.0274 -0.0589  0.2546
   17DOPE   H4R 2104   1.013   8.250  15.623 -0.2283  0.1608  1.1406
   17DOPE   H4S 2105   1.176   8.227  15.555  0.2251 -1.0256  0.8840
   17DOPE   C25 2106   1.127   8.417  15.604 -0.2723 -0.0546  0.1579
   17DOPE   H5R 2107   1.091   8.464  15.698 -1.5833 -0.0173 -0.3427
   17DOPE   H5S 2108   1.052   8.445  15.527 -0.0860  3.1783  0.9774
   17DOPE   C26 2109   1.268   8.448  15.552  0.1947  0.1721 -0.4396
   17DOPE   H6R 2110   1.282   8.398  15.454  0.6291  2.4663 -1.6231
   17DOPE   H6S 2111   1.344   8.410  15.624  1.8806  0.3458 -2.0320
   17DOPE   C27 2112   1.298   8.597  15.530  0.4451 -0.4780 -0.2595
   17DOPE   H7R 2113   1.278   8.660  15.618 -2.6149 -0.6672 -0.7212
   17DOPE   H7S 2114   1.211   8.630  15.469 -0.5696 -0.2964  1.2392
   17DOPE   C28 2115   1.424   8.628  15.449 -0.4240  0.5033 -0.3367
   17DOPE   H8R 2116   1.414   8.721  15.389  3.0973  1.7757  0.7659
   17DOPE   H8S 2117   1.437   8.544  15.378 -0.2935 -1.3062  1.7112
   17DOPE   C29 2118   1.555   8.622  15.533  0.0864  0.0200  0.1605
   17DOPE   H9R 2119   1.557   8.551  15.617  0.1967  1.2475  1.2328
   17DOPE  C210 2120   1.671   8.689  15.518  0.5136  0.3776 -0.2692
   17DOPE  H10R 2121   1.752   8.656  15.585 -0.6575 -0.8911  0.5767
   17DOPE  C211 2122   1.701   8.789  15.402 -0.0956  0.4927  0.0104
   17DOPE  H11R 2123   1.759   8.868  15.454  0.1428 -0.1773  0.7670
   17DOPE  H11S 2124   1.610   8.843  15.367 -0.6271 -1.4540 -1.8304
   17DOPE  C212 2125   1.779   8.718  15.293  0.1770  0.3599 -0.0847
   17DOPE  H12R 2126   1.720   8.627  15.269 -0.1912  0.8013 -0.9000
   17DOPE  H12S 2127   1.885   8.698  15.318 -0.2560 -1.8867  0.1234
   17DOPE  C213 2128   1.778   8.800  15.156 -0.2226  0.7554 -0.1980
   17DOPE  H13R 2129   1.828   8.899  15.162  0.4802  0.4974 -1.3907
   17DOPE  H13S 2130   1.678   8.809  15.110  0.4416 -1.6313 -2.3969
   17DOPE  C214 2131   1.859   8.722  15.042  0.3864  0.2296 -0.9386
   17DOPE  H14R 2132   1.839   8.612  15.043  0.6446  0.1868 -0.5944
   17DOPE  H14S 2133   1.964   8.726  15.077 -0.3905  3.1550  1.4497
   17DOPE  C215 2134   1.843   8.780  14.899 -0.0276 -0.1446 -0.3266
   17DOPE  H15R 2135   1.853   8.891  14.893  2.1447 -0.3531 -1.1627
   17DOPE  H15S 2136   1.735   8.766  14.875  0.0958  0.6894 -1.4579
   17DOPE  C216 2137   1.932   8.714  14.793  0.2790  0.4442 -0.2995
   17DOPE  H16R 2138   2.032   8.712  14.841 -0.2317  0.3317  0.7791
   17DOPE  H16S 2139   1.937   8.789  14.711  0.3316  2.1093  1.1618
   17DOPE  C217 2140   1.882   8.577  14.756 -0.3086 -0.0043 -0.1007
   17DOPE  H17R 2141   1.797   8.576  14.684 -0.3693 -1.4867 -0.0441
   17DOPE  H17S 2142   1.851   8.522  14.848  2.8376 -0.9936  0.4813
   17DOPE  C218 2143   1.992   8.494  14.701  0.3794  0.0191 -0.6909
   17DOPE  H18R 2144   2.042   8.534  14.610  1.9544 -2.6159 -1.0897
   17DOPE  H18S 2145   1.957   8.390  14.689  0.4532 -0.1266  0.2734
   17DOPE  H18T 2146   2.078   8.489  14.772  0.0208  3.0385  0.1287
   17DOPE   C33 2147   1.484   7.532  15.640  0.3139 -0.3020  0.1930
   17DOPE   H3X 2148   1.570   7.593  15.676  0.4298  1.8197 -3.1257
   17DOPE   H3Y 2149   1.494   7.520  15.530  0.5442 -0.0839  0.1879
   17DOPE   C34 2150   1.496   7.401  15.711 -0.4144 -0.1512  0.8896
   17DOPE   H4X 2151   1.588   7.353  15.671 -1.1087 -1.9668  1.3409
   17DOPE   H4Y 2152   1.510   7.418  15.820  0.5128  1.0233  0.6047
   17DOPE   C35 2153   1.384   7.307  15.663  0.3884 -0.0258 -0.1461
   17DOPE   H5X 2154   1.376   7.319  15.553 -1.6417  0.4770  0.0154
   17DOPE   H5Y 2155   1.287   7.335  15.710  0.2060  2.4264 -1.8077
   17DOPE   C36 2156   1.397   7.156  15.678 -0.5676  0.3288 -0.1701
   17DOPE   H6X 2157   1.395   7.138  15.787  1.3188  0.1118 -0.1339
   17DOPE   H6Y 2158   1.495   7.127  15.634 -0.8201 -2.3112  0.8715
   17DOPE   C37 2159   1.279   7.078  15.624 -1.1355  0.1144 -0.7615
   17DOPE   H7X 2160   1.187   7.126  15.662 -2.9047 -2.4907 -1.5066
   17DOPE   H7Y 2161   1.283   7.084  15.514 -0.0316  0.4509 -0.7200
   17DOPE   C38 2162   1.284   6.927  15.666 -0.5255  0.1782 -0.3662
   17DOPE   H8X 2163   1.312   6.919  15.774  1.1598  1.5221 -0.6538
   17DOPE   H8Y 2164   1.377   6.883  15.625  0.7672  0.4411  2.0978
   17DOPE   C39 2165   1.145   6.871  15.631  0.0733 -0.2136 -0.5352
   17DOPE   H9X 2166   1.064   6.946  15.627  0.7003  0.5074 -0.1157
   17DOPE  C310 2167   1.118   6.744  15.598  0.5033  0.0326 -0.0298
   17DOPE  H10X 2168   1.018   6.717  15.561 -0.1312  1.2752  0.6937
   17DOPE  C311 2169   1.226   6.640  15.595 -0.4529  0.4061  0.5784
   17DOPE  H11X 2170   1.329   6.680  15.583 -0.1568  0.1131  2.0441
   17DOPE  H11Y 2171   1.215   6.579  15.687 -1.5542  0.4383  0.4836
   17DOPE  C312 2172   1.204   6.526  15.493  0.5510 -0.6419 -0.2398
   17DOPE  H12X 2173   1.201   6.570  15.391 -0.0839  3.1479  1.2734
   17DOPE  H12Y 2174   1.108   6.473  15.511  0.9336 -1.6153 -0.9615
   17DOPE  C313 2175   1.311   6.411  15.503 -1.0259 -0.7191  0.2490
   17DOPE  H13X 2176   1.401   6.470  15.476 -2.7378  2.2040  0.5727
   17DOPE  H13Y 2177   1.321   6.363  15.603  0.1389  0.6472  0.8296
   17DOPE  C314 2178   1.287   6.298  15.402 -0.3116  0.0752 -0.5159
   17DOPE  H14X 2179   1.282   6.337  15.298  1.5133 -0.7519 -0.9550
   17DOPE  H14Y 2180   1.188   6.255  15.430 -0.5976  0.3698 -1.0631
   17DOPE  C315 2181   1.400   6.196  15.411 -0.1555  1.0331  0.0197
   17DOPE  H15X 2182   1.379   6.110  15.343  0.7225  0.1299  0.8426
   17DOPE  H15Y 2183   1.417   6.159  15.515  0.7374  0.9864 -0.1400
   17DOPE  C316 2184   1.525   6.254  15.346 -0.0504  0.4371 -0.6343
   17DOPE  H16X 2185   1.560   6.340  15.408 -0.8064 -0.3792  0.9691
   17DOPE  H16Y 2186   1.493   6.302  15.251 -1.6115  1.1170  0.1919
   17DOPE  C317 2187   1.638   6.152  15.320 -0.1421 -0.1664  0.2063
   17DOPE  H17X 2188   1.675   6.101  15.412 -0.6344 -1.1309 -0.1173
   17DOPE  H17Y 2189   1.597   6.081  15.245  0.6540  1.4242 -1.8079
   17DOPE  C318 2190   1.769   6.210  15.273 -0.6440  0.2288  0.4783
   17DOPE  H18X 2191   1.825   6.121  15.237  1.2916  0.3129  2.9749
   17DOPE  H18Y 2192   1.745   6.277  15.188  0.8589  0.3884  0.1444
   17DOPE  H18Z 2193   1.812   6.283  15.345 -0.8676 -0.2374  1.0956
   18DOPE     N 2194   8.081   4.018  16.940  0.2915 -0.2115  0.0215
   18DOPE   HN1 2195   8.087   3.933  17.000 -1.0358 -0.9253 -0.8338
   18DOPE   HN2 2196   8.140   4.086  16.993  0.2473 -0.8849  0.9654
   18DOPE   HN3 2197   7.992   4.070  16.934  0.5647  0.2778  0.0997
   18DOPE   C12 2198   8.131   3.995  16.806  0.1184  0.3627 -0.1852
   18DOPE  H12A 2199   8.230   3.945  16.805 -0.9583 -1.9553  0.9773
   18DOPE  H12B 2200   8.142   4.095  16.759 -0.0472 -0.4508 -2.0454
   18DOPE   C11 2201   8.036   3.911  16.723  0.9751 -0.3653 -0.2666
   18DOPE  H11A 2202   8.024   3.817  16.780 -3.5007  0.0928 -0.0953
   18DOPE  H11B 2203   8.073   3.903  16.618  0.0272  0.0209 -0.6514
   18DOPE     P 2204   7.826   4.040  16.624  0.1300 -0.5010 -0.2596
   18DOPE   O13 2205   7.748   4.137  16.711 -0.1171  0.0025  0.5230
   18DOPE   O14 2206   7.755   3.942  16.537 -0.3630  0.5262  0.0329
   18DOPE   O11 2207   7.950   4.109  16.550 -0.0159 -0.2195 -0.0905
   18DOPE   O12 2208   7.903   3.953  16.731  0.3215 -0.0885 -0.5395
   18DOPE    C1 2209   7.965   4.246  16.568 -0.4363 -0.0881  0.4714
   18DOPE    HA 2210   8.064   4.277  16.530 -1.4748 -0.0940 -2.4901
   18DOPE    HB 2211   7.953   4.291  16.669 -0.0622  0.0993  0.4329
   18DOPE    C2 2212   7.865   4.317  16.468  0.2260 -0.1564 -0.5001
   18DOPE    HS 2213   7.762   4.297  16.504  0.7098 -1.4506  0.2534
   18DOPE   O21 2214   7.887   4.269  16.337  0.5190 -0.0204 -0.1194
   18DOPE   C21 2215   7.787   4.205  16.284  0.3232 -0.0036  0.6450
   18DOPE   O22 2216   7.669   4.194  16.319 -0.4102 -0.2866 -0.2003
   18DOPE   C22 2217   7.834   4.141  16.149 -0.3539  0.4204 -0.3234
   18DOPE   H2R 2218   7.875   4.040  16.169  2.9956  1.3742 -1.5754
   18DOPE   H2S 2219   7.910   4.212  16.108 -1.5658  1.9457 -0.0356
   18DOPE    C3 2220   7.876   4.470  16.461  0.1238  0.4524 -0.1379
   18DOPE    HX 2221   7.970   4.489  16.406 -0.2149  0.2593 -0.8006
   18DOPE    HY 2222   7.882   4.506  16.566 -0.9908  1.3238 -0.3505
   18DOPE   O31 2223   7.757   4.533  16.398  0.4479  0.8224 -0.5432
   18DOPE   C31 2224   7.760   4.555  16.267  0.3642  0.1491 -1.1991
   18DOPE   O32 2225   7.847   4.521  16.194 -0.5003 -0.2558 -0.1253
   18DOPE   C32 2226   7.639   4.648  16.223  0.0832  0.2005 -0.7713
   18DOPE   H2X 2227   7.605   4.710  16.308  3.1881  0.7145  0.2057
   18DOPE   H2Y 2228   7.681   4.706  16.139 -0.3319  2.0163  0.2321
   18DOPE   C23 2229   7.722   4.123  16.056 -0.2899 -0.1111 -0.7726
   18DOPE   H3R 2230   7.674   4.222  16.039  1.3942  0.8157 -0.3122
   18DOPE   H3S 2231   7.642   4.062  16.103  0.1806  1.1186  1.7706
   18DOPE   C24 2232   7.745   4.064  15.916 -0.5596 -0.3504  0.4016
   18DOPE   H4R 2233   7.835   4.113  15.873  0.4395 -2.0410  0.4673
   18DOPE   H4S 2234   7.665   4.084  15.841  2.1732  1.9129 -2.1490
   18DOPE   C25 2235   7.781   3.916  15.928 -0.0987 -0.5570  0.3172
   18DOPE   H5R 2236   7.696   3.858  15.970  0.0754 -0.2590  1.0906
   18DOPE   H5S 2237   7.872   3.901  15.990  0.2955  2.0239  0.4665
   18DOPE   C26 2238   7.809   3.858  15.788 -0.0952  0.3808 -0.1348
   18DOPE   H6R 2239   7.902   3.907  15.752 -0.2226  0.9056  0.2234
   18DOPE   H6S 2240   7.724   3.879  15.719  0.2568 -0.7800 -0.9256
   18DOPE   C27 2241   7.820   3.699  15.811  0.8915 -0.3226  0.2309
   18DOPE   H7R 2242   7.719   3.673  15.851  1.1155 -0.6289  0.6141
   18DOPE   H7S 2243   7.905   3.682  15.881  1.2832  0.2411 -0.1084
   18DOPE   C28 2244   7.849   3.613  15.683 -0.1206 -0.0682  0.0831
   18DOPE   H8R 2245   7.777   3.652  15.609 -0.8436 -0.6460  0.4665
   18DOPE   H8S 2246   7.827   3.505  15.700 -2.8187  0.5996  1.3517
   18DOPE   C29 2247   7.991   3.637  15.641 -0.0832  0.5737 -0.1136
   18DOPE   H9R 2248   8.063   3.612  15.721 -0.5445 -0.8851 -0.1273
   18DOPE  C210 2249   8.045   3.680  15.520 -0.1980 -0.5375 -0.2835
   18DOPE  H10R 2250   8.151   3.706  15.512 -0.7589  1.8684 -0.7771
   18DOPE  C211 2251   7.973   3.743  15.402 -0.6703 -0.4877  0.1450
   18DOPE  H11R 2252   7.938   3.847  15.418 -1.2707 -0.2457 -2.2727
   18DOPE  H11S 2253   7.887   3.683  15.367  0.1620 -1.3928 -0.4036
   18DOPE  C212 2254   8.066   3.751  15.283 -0.1284 -0.5552  0.0414
   18DOPE  H12R 2255   8.117   3.653  15.267  2.0313  0.2866  1.2536
   18DOPE  H12S 2256   8.138   3.835  15.294 -0.6439  0.1773 -1.8118
   18DOPE  C213 2257   8.001   3.787  15.152 -1.1418  1.0251  0.8316
   18DOPE  H13R 2258   7.940   3.878  15.167  0.0788  2.0078  0.0501
   18DOPE  H13S 2259   7.925   3.712  15.122 -0.6444  0.5992  0.6271
   18DOPE  C214 2260   8.102   3.811  15.042  0.5503  0.6439  0.5573
   18DOPE  H14R 2261   8.153   3.714  15.021 -1.1615 -0.0900 -0.3739
   18DOPE  H14S 2262   8.185   3.883  15.060  1.3173  0.8496 -2.9366
   18DOPE  C215 2263   8.049   3.853  14.907  0.6305 -1.0539 -0.5612
   18DOPE  H15R 2264   7.993   3.768  14.863  0.1905 -2.6540  2.7518
   18DOPE  H15S 2265   8.119   3.906  14.839 -1.2555  2.0547 -0.3114
   18DOPE  C216 2266   7.935   3.964  14.913 -0.1767 -0.3105  0.3480
   18DOPE  H16R 2267   7.847   3.934  14.973 -0.2678  1.2950  1.0656
   18DOPE  H16S 2268   7.899   4.000  14.815 -0.8116  0.7368  0.9533
   18DOPE  C217 2269   7.991   4.093  14.981 -0.5354 -0.0012  0.2943
   18DOPE  H17R 2270   8.089   4.120  14.936  0.1405 -1.8362  0.5718
   18DOPE  H17S 2271   8.021   4.066  15.084  0.5910  0.3877  0.0833
   18DOPE  C218 2272   7.895   4.209  14.983  0.3727  0.1384  0.3128
   18DOPE  H18R 2273   7.812   4.179  15.050  2.0972  0.2498  2.6113
   18DOPE  H18S 2274   7.867   4.250  14.883 -2.6826  0.1605  1.0925
   18DOPE  H18T 2275   7.945   4.287  15.044 -3.5328  1.8641  1.6444
   18DOPE   C33 2276   7.530   4.560  16.165 -0.2765 -0.1487  0.5654
   18DOPE   H3X 2277   7.483   4.504  16.248 -1.0832  2.4346  1.9597
   18DOPE   H3Y 2278   7.562   4.494  16.081  1.5771  0.3299  0.8395
   18DOPE   C34 2279   7.414   4.652  16.103 -0.2947 -0.5605 -0.0732
   18DOPE   H4X 2280   7.321   4.594  16.080 -0.5002  0.0455 -0.8297
   18DOPE   H4Y 2281   7.384   4.717  16.187 -2.7149  0.5050 -1.6305
   18DOPE   C35 2282   7.457   4.731  15.980 -0.4253  0.3187 -0.6409
   18DOPE   H5X 2283   7.544   4.792  16.012 -1.1602  1.0233  0.0565
   18DOPE   H5Y 2284   7.378   4.807  15.966 -1.6261 -0.6938  0.3801
   18DOPE   C36 2285   7.486   4.644  15.861  0.0752 -0.4262 -0.0003
   18DOPE   H6X 2286   7.400   4.579  15.833  0.0448 -0.4211  0.0826
   18DOPE   H6Y 2287   7.574   4.580  15.881 -1.0688 -1.5046  1.9106
   18DOPE   C37 2288   7.515   4.724  15.731  0.5414 -0.3042  0.3123
   18DOPE   H7X 2289   7.561   4.824  15.749  0.0777  0.4089 -2.1414
   18DOPE   H7Y 2290   7.593   4.667  15.677  0.0676 -0.6957  0.0287
   18DOPE   C38 2291   7.395   4.725  15.636 -0.6756 -0.2398  0.7832
   18DOPE   H8X 2292   7.350   4.623  15.632 -0.2866 -0.4658  1.7335
   18DOPE   H8Y 2293   7.427   4.747  15.532  0.0675  0.8438  1.2234
   18DOPE   C39 2294   7.303   4.834  15.673 -0.2804 -0.0013  0.2266
   18DOPE   H9X 2295   7.344   4.931  15.641  0.5785 -0.9984 -1.8513
   18DOPE  C310 2296   7.175   4.821  15.709 -0.4476  0.2809  0.4780
   18DOPE  H10X 2297   7.120   4.915  15.722 -0.8592 -0.1360  1.9669
   18DOPE  C311 2298   7.100   4.690  15.739  0.1375  0.2637  0.2390
   18DOPE  H11X 2299   7.172   4.608  15.761  0.6587  0.1588 -1.6200
   18DOPE  H11Y 2300   7.037   4.710  15.828 -2.3290 -0.3797 -1.2612
   18DOPE  C312 2301   6.993   4.631  15.635 -0.3832  0.9657 -1.0713
   18DOPE  H12X 2302   6.926   4.701  15.581 -0.6718  1.3342 -0.2594
   18DOPE  H12Y 2303   6.927   4.559  15.688  0.7544  1.5278  1.2248
   18DOPE  C313 2304   7.064   4.557  15.521 -0.1064  0.7192  0.0855
   18DOPE  H13X 2305   7.049   4.620  15.431  1.6133 -0.6520 -1.2251
   18DOPE  H13Y 2306   7.168   4.530  15.547 -0.0682  0.5944 -0.1923
   18DOPE  C314 2307   6.990   4.426  15.495  0.9635  0.8892  0.4896
   18DOPE  H14X 2308   6.880   4.438  15.492  0.5321 -2.3169 -1.0142
   18DOPE  H14Y 2309   7.003   4.353  15.577 -0.0352  1.0122  0.7670
   18DOPE  C315 2310   7.037   4.355  15.364  0.4269  0.3728 -0.2619
   18DOPE  H15X 2311   7.034   4.430  15.281  1.2008  1.6949  0.8582
   18DOPE  H15Y 2312   6.969   4.274  15.329  0.4034  0.7406 -1.0996
   18DOPE  C316 2313   7.168   4.282  15.375 -0.4072 -0.3777 -0.3068
   18DOPE  H16X 2314   7.147   4.205  15.452  1.2123 -1.3806 -0.8134
   18DOPE  H16Y 2315   7.251   4.345  15.416 -0.5850  0.4350 -1.1725
   18DOPE  C317 2316   7.215   4.219  15.244 -0.0548 -0.4135  0.5500
   18DOPE  H17X 2317   7.323   4.194  15.252  0.3045  0.5567 -0.9139
   18DOPE  H17Y 2318   7.166   4.120  15.230 -0.8420  0.2394 -1.8115
   18DOPE  C318 2319   7.203   4.299  15.110  0.1787 -0.6042 -0.3695
   18DOPE  H18X 2320   7.256   4.397  15.115  0.8795 -0.9711 -0.5260
   18DOPE  H18Y 2321   7.245   4.233  15.031 -0.1644 -1.0416 -0.1906
   18DOPE  H18Z 2322   7.094   4.307  15.090 -0.2001 -1.5278  1.1756
   19DOPE     N 2323   9.009   4.627  16.380  0.7496  0.4614 -0.1304
   19DOPE   HN1 2324   9.053   4.534  16.394  0.3764  0.1864 -0.7471
   19DOPE   HN2 2325   9.024   4.695  16.458  0.1109 -2.1960  2.4939
   19DOPE   HN3 2326   8.907   4.609  16.387  1.0525 -1.0187  0.8667
   19DOPE   C12 2327   9.039   4.676  16.236 -0.4406 -0.3666 -0.3045
   19DOPE  H12A 2328   8.998   4.599  16.167 -0.4890 -1.4769  0.9415
   19DOPE  H12B 2329   9.147   4.663  16.213 -0.3156  0.4559 -0.2175
   19DOPE   C11 2330   8.986   4.818  16.203 -0.2194 -0.3257 -0.3809
   19DOPE  H11A 2331   8.991   4.844  16.095  1.5209  1.4310  0.0589
   19DOPE  H11B 2332   9.049   4.893  16.256 -0.7240 -0.7350  0.8372
   19DOPE     P 2333   8.789   4.923  16.364 -0.4062 -0.0577  0.0145
   19DOPE   O13 2334   8.887   4.963  16.467 -0.0675  0.1878 -0.5278
   19DOPE   O14 2335   8.671   4.840  16.401  0.4920 -0.0296 -0.5904
   19DOPE   O11 2336   8.743   5.049  16.280  0.3155  0.4316  0.2146
   19DOPE   O12 2337   8.857   4.835  16.256  0.3492  0.2206  0.0674
   19DOPE    C1 2338   8.820   5.111  16.176  0.3783 -0.1162  0.7252
   19DOPE    HA 2339   8.926   5.087  16.201  0.3093 -1.1887  0.0482
   19DOPE    HB 2340   8.802   5.218  16.196 -1.2187 -0.4315  1.1520
   19DOPE    C2 2341   8.778   5.077  16.028  0.0349 -0.1068  0.2161
   19DOPE    HS 2342   8.681   5.129  16.014 -1.3085 -1.8195  2.4830
   19DOPE   O21 2343   8.776   4.933  16.000 -0.0968  0.6978  0.0705
   19DOPE   C21 2344   8.664   4.871  16.020  0.3432 -0.2858  0.2280
   19DOPE   O22 2345   8.555   4.925  16.037  0.1979 -0.0968 -0.3468
   19DOPE   C22 2346   8.673   4.723  16.009 -0.6317 -0.4977  0.3406
   19DOPE   H2R 2347   8.650   4.673  16.105  0.9192 -0.0597  0.9601
   19DOPE   H2S 2348   8.769   4.677  15.976 -0.9923 -1.2813  0.3475
   19DOPE    C3 2349   8.889   5.143  15.937 -0.0783 -0.1059 -0.1868
   19DOPE    HX 2350   8.981   5.104  15.985 -1.6594 -2.1861  1.3366
   19DOPE    HY 2351   8.892   5.253  15.951  1.3683 -0.2958  1.2442
   19DOPE   O31 2352   8.883   5.096  15.802  0.5807  0.0589  0.3274
   19DOPE   C31 2353   8.777   5.146  15.745 -0.4012  0.2233  1.0046
   19DOPE   O32 2354   8.709   5.238  15.791 -0.2327 -0.2606 -0.1298
   19DOPE   C32 2355   8.752   5.097  15.602  0.2530  0.6320 -0.4983
   19DOPE   H2X 2356   8.704   5.178  15.542  1.3830  1.0075 -0.9168
   19DOPE   H2Y 2357   8.839   5.078  15.536 -0.6151  0.3718 -1.5935
   19DOPE   C23 2358   8.554   4.675  15.914 -0.0035 -0.5416 -0.3973
   19DOPE   H3R 2359   8.563   4.722  15.814  2.5443  2.0505  0.8662
   19DOPE   H3S 2360   8.457   4.710  15.955  0.4787  2.0879 -1.2597
   19DOPE   C24 2361   8.543   4.524  15.908  0.2916 -0.0548 -0.3852
   19DOPE   H4R 2362   8.500   4.491  16.005  0.2339 -1.5295 -0.8843
   19DOPE   H4S 2363   8.648   4.489  15.897  0.2205 -0.0786 -1.0009
   19DOPE   C25 2364   8.468   4.476  15.779 -0.2738 -0.2843 -0.1350
   19DOPE   H5R 2365   8.530   4.477  15.687  0.1910  0.7248  0.1769
   19DOPE   H5S 2366   8.384   4.546  15.754  0.2985 -0.3553 -2.5788
   19DOPE   C26 2367   8.418   4.335  15.787 -0.1804 -0.3787  0.4695
   19DOPE   H6R 2368   8.392   4.296  15.686 -0.3046 -3.9363  1.7448
   19DOPE   H6S 2369   8.324   4.351  15.844 -0.2674  0.2697  0.1581
   19DOPE   C27 2370   8.510   4.233  15.861 -0.9165  0.5631  0.9041
   19DOPE   H7R 2371   8.519   4.243  15.971  1.8770 -0.0086  0.7967
   19DOPE   H7S 2372   8.612   4.251  15.820 -1.0067 -0.8495  0.0066
   19DOPE   C28 2373   8.468   4.089  15.833 -0.3929 -0.3996  0.2435
   19DOPE   H8R 2374   8.537   4.024  15.891  1.0707 -1.2269 -2.3066
   19DOPE   H8S 2375   8.481   4.061  15.727 -0.4662  2.6600 -0.6563
   19DOPE   C29 2376   8.323   4.057  15.872 -0.0559 -0.5248 -0.2401
   19DOPE   H9R 2377   8.301   4.049  15.979 -1.5008 -0.8473 -0.5424
   19DOPE  C210 2378   8.223   4.048  15.784 -0.6195  0.8165 -0.1740
   19DOPE  H10R 2379   8.127   4.019  15.829  0.5193 -1.5466  0.9311
   19DOPE  C211 2380   8.223   4.056  15.630  0.1837  0.3146  0.1548
   19DOPE  H11R 2381   8.247   3.959  15.581  0.0920  0.8375 -0.9489
   19DOPE  H11S 2382   8.298   4.134  15.606 -0.2433  0.2749 -1.3752
   19DOPE  C212 2383   8.096   4.124  15.581 -0.4001 -0.4561 -0.5536
   19DOPE  H12R 2384   8.086   4.213  15.647  1.4986 -1.3633  1.0877
   19DOPE  H12S 2385   8.009   4.055  15.592 -1.8944  1.3104 -0.9113
   19DOPE  C213 2386   8.084   4.160  15.434 -0.6614  0.1439  0.3524
   19DOPE  H13R 2387   7.979   4.187  15.408 -0.8310 -0.7887  0.0423
   19DOPE  H13S 2388   8.100   4.062  15.385 -0.5774  0.3428 -0.0154
   19DOPE  C214 2389   8.171   4.280  15.399  0.2564 -0.3132  0.1997
   19DOPE  H14R 2390   8.268   4.279  15.452  0.1244  1.0798  0.5177
   19DOPE  H14S 2391   8.130   4.380  15.427 -0.6288 -0.9067  1.1136
   19DOPE  C215 2392   8.217   4.296  15.247 -0.6263 -0.0379 -0.1371
   19DOPE  H15R 2393   8.131   4.253  15.191  0.1973 -1.6659 -0.2104
   19DOPE  H15S 2394   8.316   4.246  15.241 -0.5630  0.0532  0.1230
   19DOPE  C216 2395   8.227   4.440  15.195 -0.0185 -0.4127  0.0433
   19DOPE  H16R 2396   8.145   4.508  15.228  1.2163  0.7884  0.7417
   19DOPE  H16S 2397   8.228   4.442  15.084  0.6019  2.0561  0.0390
   19DOPE  C217 2398   8.356   4.515  15.236 -0.0990 -0.4812  0.4111
   19DOPE  H17R 2399   8.353   4.609  15.176 -2.0198 -0.0130  1.1542
   19DOPE  H17S 2400   8.447   4.455  15.212 -0.8150 -2.6116  2.6172
   19DOPE  C218 2401   8.365   4.555  15.374  0.1560  0.0262  0.1773
   19DOPE  H18R 2402   8.455   4.615  15.400  0.4647  0.7493 -2.2217
   19DOPE  H18S 2403   8.353   4.476  15.451  1.1474  0.5790  0.9370
   19DOPE  H18T 2404   8.273   4.611  15.400 -0.1656 -0.1541 -0.5480
   19DOPE   C33 2405   8.658   4.971  15.611  0.2425  0.0023 -0.3229
   19DOPE   H3X 2406   8.553   5.003  15.632 -0.1617 -2.0431  1.1022
   19DOPE   H3Y 2407   8.695   4.900  15.688  3.5228 -0.3694 -2.0971
   19DOPE   C34 2408   8.647   4.893  15.480 -0.3927  0.2369 -0.5091
   19DOPE   H4X 2409   8.751   4.879  15.445 -0.0070 -0.7875  0.9448
   19DOPE   H4Y 2410   8.600   4.792  15.481 -0.5270  0.3002 -0.3648
   19DOPE   C35 2411   8.572   4.972  15.374  0.2669  0.2276  0.1606
   19DOPE   H5X 2412   8.644   5.054  15.350  2.3685 -1.6584 -0.3291
   19DOPE   H5Y 2413   8.474   5.006  15.413 -0.9360  0.2614 -2.6251
   19DOPE   C36 2414   8.543   4.897  15.245 -0.2055  0.4569  0.2900
   19DOPE   H6X 2415   8.514   4.976  15.172  1.2298  0.9247  0.1842
   19DOPE   H6Y 2416   8.461   4.825  15.261  1.5024 -1.8897 -0.9318
   19DOPE   C37 2417   8.667   4.821  15.208  0.2733  0.3506  0.1972
   19DOPE   H7X 2418   8.744   4.901  15.209  1.4917 -0.6894 -2.3720
   19DOPE   H7Y 2419   8.704   4.752  15.286  0.6440  0.8076  0.4291
   19DOPE   C38 2420   8.687   4.762  15.069  0.9800  0.3340 -0.3163
   19DOPE   H8X 2421   8.649   4.658  15.059 -1.4104  1.0558  0.6814
   19DOPE   H8Y 2422   8.797   4.755  15.054  0.9313  1.2653 -1.2457
   19DOPE   C39 2423   8.628   4.842  14.957 -0.3917  0.5794  0.6160
   19DOPE   H9X 2424   8.627   4.949  14.980  2.4095  0.7597  0.1993
   19DOPE  C310 2425   8.566   4.797  14.843 -0.1641 -0.1426 -0.2223
   19DOPE  H10X 2426   8.536   4.876  14.772  1.5211  0.2092 -0.5991
   19DOPE  C311 2427   8.542   4.648  14.817 -0.3562 -0.4480  0.0197
   19DOPE  H11X 2428   8.613   4.585  14.873  1.9372  1.4029 -0.6293
   19DOPE  H11Y 2429   8.438   4.619  14.843  0.0524  0.4095  2.9741
   19DOPE  C312 2430   8.562   4.620  14.669  0.3533 -0.2526 -0.2856
   19DOPE  H12X 2431   8.488   4.676  14.609 -1.3461 -0.6242  1.3478
   19DOPE  H12Y 2432   8.531   4.513  14.670  0.6082 -0.3406 -1.1190
   19DOPE  C313 2433   8.701   4.632  14.622  0.3236 -0.0654  0.0602
   19DOPE  H13X 2434   8.725   4.740  14.617  0.4822 -0.1190 -0.4012
   19DOPE  H13Y 2435   8.781   4.586  14.684  0.2334  1.0761  1.0372
   19DOPE  C314 2436   8.719   4.574  14.480 -0.9191 -0.4362 -0.0774
   19DOPE  H14X 2437   8.641   4.616  14.412  0.7697  0.7033 -1.3895
   19DOPE  H14Y 2438   8.687   4.468  14.472 -1.8882 -0.0620 -2.0313
   19DOPE  C315 2439   8.856   4.585  14.420 -0.3610  0.4502 -0.1051
   19DOPE  H15X 2440   8.930   4.584  14.502  0.4137  0.3575 -0.7878
   19DOPE  H15Y 2441   8.870   4.690  14.384 -0.5591  0.3789 -0.3893
   19DOPE  C316 2442   8.890   4.492  14.299  0.2463  0.5182  0.5023
   19DOPE  H16X 2443   8.801   4.472  14.234 -0.5601  0.4905  1.5875
   19DOPE  H16Y 2444   8.920   4.391  14.334 -1.0742 -0.0091  0.1719
   19DOPE  C317 2445   9.002   4.549  14.213  0.0825  1.0052  0.3975
   19DOPE  H17X 2446   9.096   4.551  14.272 -0.0847 -1.2511  0.8020
   19DOPE  H17Y 2447   9.033   4.472  14.140  2.1288  1.3464  0.8376
   19DOPE  C318 2448   8.959   4.670  14.131 -0.1206  0.0018 -0.0943
   19DOPE  H18X 2449   8.949   4.752  14.206 -1.3828  1.0499 -1.3388
   19DOPE  H18Y 2450   9.033   4.702  14.054 -0.6553  1.6625  0.0283
   19DOPE  H18Z 2451   8.861   4.655  14.080 -0.2518  3.3014 -1.0475
   20DOPE     N 2452   6.960   7.634  16.310  0.5002  0.2149 -0.1887
   20DOPE   HN1 2453   7.062   7.614  16.308  0.7782  1.5411 -0.4318
   20DOPE   HN2 2454   6.951   7.700  16.391  1.2013  1.1992 -0.8810
   20DOPE   HN3 2455   6.910   7.544  16.319  1.0930 -0.2114 -1.0735
   20DOPE   C12 2456   6.915   7.715  16.196  0.3582  0.3758  0.6332
   20DOPE  H12A 2457   6.825   7.770  16.230 -0.2682 -0.4652  0.3735
   20DOPE  H12B 2458   6.894   7.643  16.114 -1.6499 -0.8506  2.1490
   20DOPE   C11 2459   7.031   7.809  16.163  0.5293  0.1553  0.3127
   20DOPE  H11A 2460   7.054   7.880  16.245  1.1289 -1.6043  1.7422
   20DOPE  H11B 2461   7.009   7.878  16.079  1.9124 -1.1055 -1.1736
   20DOPE     P 2462   7.285   7.794  16.110 -0.2374 -0.2823  0.2209
   20DOPE   O13 2463   7.389   7.701  16.063 -0.2538  0.5646  0.2705
   20DOPE   O14 2464   7.322   7.879  16.222 -0.2110  0.2717 -0.2524
   20DOPE   O11 2465   7.252   7.898  15.991  0.1484  0.7146 -0.3757
   20DOPE   O12 2466   7.143   7.727  16.135 -0.3632  0.2485 -0.9723
   20DOPE    C1 2467   7.203   7.863  15.865  0.5077  0.4017  0.5901
   20DOPE    HA 2468   7.097   7.896  15.862  0.3358 -0.1671  0.1093
   20DOPE    HB 2469   7.180   7.757  15.842 -1.1303  1.1634 -1.6196
   20DOPE    C2 2470   7.288   7.923  15.749 -0.0242 -0.0697  0.4940
   20DOPE    HS 2471   7.327   8.025  15.771  2.5346 -0.8866  0.1409
   20DOPE   O21 2472   7.206   7.934  15.635 -0.0791 -0.0646  0.0460
   20DOPE   C21 2473   7.103   8.019  15.634 -0.2105 -0.1521  0.1264
   20DOPE   O22 2474   7.077   8.103  15.722  0.1029  0.4679 -0.2226
   20DOPE   C22 2475   7.022   7.991  15.512  0.4997  0.1427  0.5987
   20DOPE   H2R 2476   6.945   7.915  15.539 -0.1187  0.6493  0.2955
   20DOPE   H2S 2477   7.088   7.944  15.435 -0.5923  1.2766 -1.0914
   20DOPE    C3 2478   7.419   7.840  15.716  0.1565 -0.0379 -0.3535
   20DOPE    HX 2479   7.376   7.740  15.693  0.6343 -0.4397  0.4471
   20DOPE    HY 2480   7.481   7.828  15.807 -1.5570 -0.9831  0.7322
   20DOPE   O31 2481   7.493   7.895  15.599 -0.6522 -0.2277 -0.4039
   20DOPE   C31 2482   7.607   7.833  15.569  0.0795  0.3141  0.1261
   20DOPE   O32 2483   7.626   7.710  15.584  0.1988  0.5257 -0.4307
   20DOPE   C32 2484   7.710   7.928  15.504  0.3237 -0.8274  0.4384
   20DOPE   H2X 2485   7.686   8.025  15.553  0.5731 -0.3897 -0.2887
   20DOPE   H2Y 2486   7.813   7.901  15.535  0.3273 -0.4455  0.7668
   20DOPE   C23 2487   6.949   8.106  15.438  0.2065  0.3359  0.1141
   20DOPE   H3R 2488   7.009   8.197  15.461  0.3779  0.1218  0.5252
   20DOPE   H3S 2489   6.845   8.115  15.475 -0.3452 -3.0686 -0.3116
   20DOPE   C24 2490   6.943   8.102  15.286 -0.2033 -0.7243  0.2435
   20DOPE   H4R 2491   6.859   8.032  15.262 -0.8860 -0.6476  2.1795
   20DOPE   H4S 2492   7.034   8.065  15.235 -0.7863 -3.8105  1.1928
   20DOPE   C25 2493   6.906   8.236  15.222 -0.4260 -0.7745  0.0023
   20DOPE   H5R 2494   6.918   8.241  15.112  1.8818  1.6080  0.2425
   20DOPE   H5S 2495   6.978   8.309  15.266 -1.4635 -0.2671  0.9019
   20DOPE   C26 2496   6.768   8.298  15.256 -0.0065  0.1592 -0.0188
   20DOPE   H6R 2497   6.750   8.404  15.227 -0.2702  0.4729  1.2694
   20DOPE   H6S 2498   6.747   8.283  15.364 -0.8798  0.4323 -0.1426
   20DOPE   C27 2499   6.666   8.209  15.181  0.3170  0.7449  0.1699
   20DOPE   H7R 2500   6.668   8.110  15.232  0.2393  0.0814 -1.0631
   20DOPE   H7S 2501   6.705   8.198  15.077  0.3357 -0.2167  0.2693
   20DOPE   C28 2502   6.524   8.260  15.178 -0.1017  0.4368  0.6367
   20DOPE   H8R 2503   6.485   8.274  15.281 -3.0576  2.0226 -0.5863
   20DOPE   H8S 2504   6.470   8.170  15.143  1.2539 -0.1733  0.0372
   20DOPE   C29 2505   6.501   8.378  15.089 -0.0530  0.4894 -0.2385
   20DOPE   H9R 2506   6.522   8.354  14.983  1.1982 -0.2573  0.1531
   20DOPE  C210 2507   6.480   8.507  15.119  0.0925 -0.4423 -0.5323
   20DOPE  H10R 2508   6.497   8.583  15.042  1.2943 -1.2976 -1.1380
   20DOPE  C211 2509   6.475   8.579  15.251 -0.3118  0.4120 -0.0258
   20DOPE  H11R 2510   6.577   8.609  15.283 -0.1590  0.0373 -0.1573
   20DOPE  H11S 2511   6.448   8.503  15.328  0.3498  0.1106 -0.0860
   20DOPE  C212 2512   6.388   8.701  15.259 -0.2049  0.5103 -0.3784
   20DOPE  H12R 2513   6.282   8.668  15.265  0.1161 -0.2967  1.4434
   20DOPE  H12S 2514   6.400   8.768  15.171  0.2032  1.2309  0.2136
   20DOPE  C213 2515   6.420   8.791  15.384  0.2428 -0.2446  0.2403
   20DOPE  H13R 2516   6.333   8.856  15.407  0.5022  0.3540 -0.4476
   20DOPE  H13S 2517   6.517   8.840  15.363 -0.1701  0.1650 -0.7467
   20DOPE  C214 2518   6.452   8.706  15.509 -0.3607 -0.1379  0.3123
   20DOPE  H14R 2519   6.539   8.638  15.502 -1.5938 -1.7106 -0.5488
   20DOPE  H14S 2520   6.358   8.650  15.529 -0.4512 -0.2742 -0.4576
   20DOPE  C215 2521   6.486   8.792  15.627  0.3684  0.0653 -0.7622
   20DOPE  H15R 2522   6.596   8.800  15.641  0.3209 -0.6323  0.1001
   20DOPE  H15S 2523   6.458   8.727  15.713  0.4857  1.3950  0.3301
   20DOPE  C216 2524   6.412   8.926  15.637 -0.3504  0.1110 -0.1870
   20DOPE  H16R 2525   6.304   8.902  15.630  0.1489 -2.0641 -1.2346
   20DOPE  H16S 2526   6.431   8.997  15.553 -0.1841  0.8416  0.4548
   20DOPE  C217 2527   6.432   8.997  15.771  0.3222  0.1185  0.3375
   20DOPE  H17R 2528   6.542   9.016  15.780  0.4291 -0.6068  0.6759
   20DOPE  H17S 2529   6.400   8.918  15.842 -0.3309  0.1281  0.0509
   20DOPE  C218 2530   6.344   9.119  15.786 -0.0771  0.5716  0.1567
   20DOPE  H18R 2531   6.369   9.203  15.719  2.8151  2.6933  3.5077
   20DOPE  H18S 2532   6.357   9.164  15.887  1.2542  0.9972 -0.1825
   20DOPE  H18T 2533   6.238   9.087  15.778  0.3512 -0.7179 -0.5809
   20DOPE   C33 2534   7.700   7.954  15.349  0.3540 -0.2690 -0.1139
   20DOPE   H3X 2535   7.742   8.056  15.340  0.1991 -0.2605 -0.7924
   20DOPE   H3Y 2536   7.596   7.976  15.318 -0.0470 -0.2194  1.2042
   20DOPE   C34 2537   7.781   7.852  15.274 -0.4927  0.1886  0.5134
   20DOPE   H4X 2538   7.881   7.840  15.320  0.0811 -1.7072 -1.0620
   20DOPE   H4Y 2539   7.727   7.755  15.283  0.6050 -0.3591  1.4542
   20DOPE   C35 2540   7.812   7.903  15.136  1.3389 -0.1310 -0.1309
   20DOPE   H5X 2541   7.890   7.982  15.142  2.2730 -1.1084  0.9924
   20DOPE   H5Y 2542   7.728   7.962  15.093  1.4336 -0.3830 -0.6691
   20DOPE   C36 2543   7.855   7.785  15.052 -0.2117  0.1674  0.0400
   20DOPE   H6X 2544   7.779   7.705  15.036 -0.0414  0.3337 -1.8431
   20DOPE   H6Y 2545   7.931   7.737  15.115 -2.7117 -2.8542  1.0225
   20DOPE   C37 2546   7.909   7.829  14.916  0.5625  0.2620  0.1803
   20DOPE   H7X 2547   7.834   7.883  14.854  0.3737 -0.7084 -0.4623
   20DOPE   H7Y 2548   7.982   7.905  14.951 -0.8852  2.5780 -1.5139
   20DOPE   C38 2549   7.987   7.720  14.839  0.1117 -0.8067 -0.1550
   20DOPE   H8X 2550   7.930   7.625  14.839 -0.0869 -0.7348  1.8537
   20DOPE   H8Y 2551   8.090   7.710  14.880 -0.3658 -1.0639  1.0256
   20DOPE   C39 2552   8.000   7.773  14.699 -0.4343 -0.2882  0.1622
   20DOPE   H9X 2553   7.966   7.874  14.673  0.5832 -0.1499 -0.7093
   20DOPE  C310 2554   8.070   7.701  14.607  0.6584  0.3981  0.0780
   20DOPE  H10X 2555   8.079   7.737  14.503  1.9088 -0.4473 -0.1238
   20DOPE  C311 2556   8.143   7.570  14.626 -0.5186 -0.0754  0.5223
   20DOPE  H11X 2557   8.247   7.603  14.605 -0.0251 -1.1135  1.2315
   20DOPE  H11Y 2558   8.141   7.527  14.729 -1.9555  0.5603  0.7721
   20DOPE  C312 2559   8.111   7.466  14.525  0.0429 -0.2676 -0.3624
   20DOPE  H12X 2560   8.168   7.375  14.554  0.6549 -0.3504 -1.7647
   20DOPE  H12Y 2561   8.151   7.498  14.426 -0.4442 -0.3949 -0.6039
   20DOPE  C313 2562   7.959   7.437  14.513  0.4348  0.0212 -0.1806
   20DOPE  H13X 2563   7.925   7.408  14.615 -1.6062 -1.4650 -1.2117
   20DOPE  H13Y 2564   7.911   7.531  14.478  1.8963  1.1525  0.7534
   20DOPE  C314 2565   7.935   7.316  14.418 -0.0223  0.4908  0.4520
   20DOPE  H14X 2566   8.013   7.241  14.440 -0.2036  0.3386  0.5813
   20DOPE  H14Y 2567   7.942   7.343  14.310 -1.6197  1.2240  0.4988
   20DOPE  C315 2568   7.795   7.246  14.404  0.3761  0.0636  0.2987
   20DOPE  H15X 2569   7.722   7.329  14.393  1.1818  0.7936  0.3124
   20DOPE  H15Y 2570   7.771   7.204  14.505  0.3273 -0.6361  0.0040
   20DOPE  C316 2571   7.785   7.134  14.300  0.1797 -0.4713  0.5633
   20DOPE  H16X 2572   7.680   7.099  14.313 -0.0357  0.2256  0.7959
   20DOPE  H16Y 2573   7.851   7.050  14.328 -0.5174 -0.7848  1.3039
   20DOPE  C317 2574   7.814   7.168  14.156 -0.0419 -0.6926 -0.1925
   20DOPE  H17X 2575   7.765   7.266  14.135  0.8991 -0.4007 -1.0869
   20DOPE  H17Y 2576   7.922   7.189  14.142 -0.2720  0.1404 -0.8420
   20DOPE  C318 2577   7.759   7.054  14.068 -0.2029  0.4913  0.2518
   20DOPE  H18X 2578   7.780   7.070  13.960 -0.4129 -1.3104 -0.0954
   20DOPE  H18Y 2579   7.820   6.964  14.090 -0.1438  0.0095 -1.7168
   20DOPE  H18Z 2580   7.655   7.017  14.078 -1.4801  3.3129 -1.4277
   21DOPE     N 2581   2.729   8.951  16.403  0.0880  0.4984 -0.3311
   21DOPE   HN1 2582   2.727   8.971  16.505  0.1325  0.5195 -0.3338
   21DOPE   HN2 2583   2.747   8.849  16.411 -0.7371  0.2764 -1.2283
   21DOPE   HN3 2584   2.800   9.004  16.349 -1.2897 -0.3208 -3.1243
   21DOPE   C12 2585   2.591   8.966  16.334 -0.2511  0.2550  0.1985
   21DOPE  H12A 2586   2.593   8.906  16.240 -1.0732  0.9200 -0.2505
   21DOPE  H12B 2587   2.575   9.075  16.324  1.9051  0.9619  3.2525
   21DOPE   C11 2588   2.484   8.917  16.425  0.6686  0.1396 -0.4818
   21DOPE  H11A 2589   2.472   8.972  16.521  0.0440 -0.9276  0.0711
   21DOPE  H11B 2590   2.497   8.810  16.451 -0.4637  0.1962  0.4318
   21DOPE     P 2591   2.229   8.998  16.380  0.2901  0.4714  0.1840
   21DOPE   O13 2592   2.248   9.096  16.486 -0.0111 -0.1546 -0.4039
   21DOPE   O14 2593   2.122   8.890  16.405  0.1711  0.4285  0.5355
   21DOPE   O11 2594   2.185   9.061  16.237 -0.0062  0.4872  0.4120
   21DOPE   O12 2595   2.365   8.928  16.353 -0.6566 -0.5353 -0.0090
   21DOPE    C1 2596   2.220   8.994  16.116 -0.2217 -0.8766  0.0278
   21DOPE    HA 2597   2.162   8.900  16.105 -0.0775 -1.1944  1.7500
   21DOPE    HB 2598   2.328   8.965  16.116  0.2582  0.7489  1.0981
   21DOPE    C2 2599   2.187   9.078  15.988 -0.2920 -0.6000 -0.6216
   21DOPE    HS 2600   2.198   9.012  15.899 -1.6064  0.7170 -1.8118
   21DOPE   O21 2601   2.261   9.201  15.975  0.3330  0.3269 -0.1139
   21DOPE   C21 2602   2.379   9.185  15.925 -0.7893  0.1335 -0.6599
   21DOPE   O22 2603   2.435   9.080  15.898 -0.5455 -0.6245 -0.1485
   21DOPE   C22 2604   2.449   9.318  15.897  0.7532  0.5897  0.1333
   21DOPE   H2R 2605   2.459   9.371  15.995 -0.5177 -2.0265  1.8067
   21DOPE   H2S 2606   2.383   9.369  15.824  1.1223  0.0425 -0.5934
   21DOPE    C3 2607   2.035   9.125  15.998 -0.1654 -0.0550 -0.1337
   21DOPE    HX 2608   2.014   9.187  16.087 -1.8248 -0.8711  0.0864
   21DOPE    HY 2609   1.972   9.034  16.010 -1.2452  0.3634 -2.2189
   21DOPE   O31 2610   1.987   9.190  15.876  0.2468 -0.6394  0.0108
   21DOPE   C31 2611   1.889   9.274  15.881  0.7079 -0.1367 -0.4021
   21DOPE   O32 2612   1.822   9.300  15.982  0.3788 -0.0210 -0.1388
   21DOPE   C32 2613   1.850   9.344  15.749 -0.3933  0.0556 -0.0424
   21DOPE   H2X 2614   1.940   9.344  15.684  0.1798  0.6712  0.7422
   21DOPE   H2Y 2615   1.755   9.304  15.707 -1.0001  2.0574 -0.7063
   21DOPE   C23 2616   2.593   9.304  15.850 -0.4257 -0.6374  0.1273
   21DOPE   H3R 2617   2.611   9.247  15.757  3.8803  0.2088  0.2388
   21DOPE   H3S 2618   2.647   9.244  15.927  0.7314  0.7183  0.4173
   21DOPE   C24 2619   2.662   9.443  15.844 -0.3404 -0.3025  0.4781
   21DOPE   H4R 2620   2.625   9.501  15.932 -2.0143 -2.1657  1.0513
   21DOPE   H4S 2621   2.635   9.495  15.750  2.4824  1.0175  0.2876
   21DOPE   C25 2622   2.817   9.434  15.855 -0.0272 -0.3284  0.2336
   21DOPE   H5R 2623   2.848   9.341  15.906  1.7598  0.7362  1.1859
   21DOPE   H5S 2624   2.846   9.511  15.929 -1.9206 -1.4359  2.2673
   21DOPE   C26 2625   2.892   9.459  15.723 -0.4399  0.1609  0.0282
   21DOPE   H6R 2626   2.858   9.558  15.688 -0.8313  0.3241  0.8538
   21DOPE   H6S 2627   2.879   9.387  15.639  0.1423  0.2305 -0.1301
   21DOPE   C27 2628   3.053   9.465  15.738 -0.2705  0.1033 -1.2854
   21DOPE   H7R 2629   3.087   9.366  15.775 -1.0273 -0.4880 -2.1382
   21DOPE   H7S 2630   3.063   9.520  15.834 -0.4133 -2.3532  0.2388
   21DOPE   C28 2631   3.140   9.511  15.622  0.1504  0.4485 -0.9268
   21DOPE   H8R 2632   3.245   9.508  15.658 -0.8056  0.1082  2.1613
   21DOPE   H8S 2633   3.120   9.618  15.602  0.6260  0.7188 -0.0269
   21DOPE   C29 2634   3.132   9.430  15.499 -0.4338  0.8640  0.1494
   21DOPE   H9R 2635   3.140   9.324  15.529  1.7853  1.7193  3.0137
   21DOPE  C210 2636   3.072   9.468  15.382 -0.4392  0.0350  0.0524
   21DOPE  H10R 2637   3.077   9.392  15.303 -0.5483  1.7732 -1.6996
   21DOPE  C211 2638   3.013   9.602  15.350 -0.2045 -1.0557  0.3412
   21DOPE  H11R 2639   3.066   9.691  15.390  0.7675 -2.2336  1.8071
   21DOPE  H11S 2640   2.911   9.604  15.393 -1.1949 -0.0789 -1.8908
   21DOPE  C212 2641   2.985   9.610  15.197 -0.7677 -0.9703  0.1042
   21DOPE  H12R 2642   2.926   9.523  15.161 -1.7799  0.3645 -1.5944
   21DOPE  H12S 2643   3.081   9.621  15.142  0.3573  1.5505  2.3837
   21DOPE  C213 2644   2.911   9.743  15.149 -0.1589  0.9118 -0.3563
   21DOPE  H13R 2645   2.973   9.829  15.182  1.3190 -0.4703  0.6237
   21DOPE  H13S 2646   2.807   9.738  15.186  0.3706 -2.7354  1.0600
   21DOPE  C214 2647   2.898   9.757  14.997 -0.2287 -0.1384 -0.3637
   21DOPE  H14R 2648   2.845   9.678  14.940 -0.4767  1.3834 -2.3376
   21DOPE  H14S 2649   3.002   9.751  14.960 -0.1850 -0.2342 -0.2239
   21DOPE  C215 2650   2.843   9.894  14.957 -0.5415  0.3253 -0.1951
   21DOPE  H15R 2651   2.875   9.928  14.856  1.5878 -0.2933  0.2224
   21DOPE  H15S 2652   2.896   9.963  15.027  0.4871 -0.6302  0.0005
   21DOPE  C216 2653   2.698   9.929  14.995 -0.1612  0.2245 -0.1520
   21DOPE  H16R 2654   2.676  10.031  14.957 -0.0816 -0.1059 -1.1150
   21DOPE  H16S 2655   2.685   9.939  15.105  0.3102 -0.4767 -0.0253
   21DOPE  C217 2656   2.587   9.833  14.950  0.2631  0.7362 -0.9018
   21DOPE  H17R 2657   2.587   9.737  15.006 -2.0224  0.2236 -1.6302
   21DOPE  H17S 2658   2.604   9.803  14.844 -1.8566  0.6524 -1.2624
   21DOPE  C218 2659   2.441   9.882  14.970 -0.1352 -0.0830 -0.1511
   21DOPE  H18R 2660   2.363   9.807  14.948  0.7715 -0.9798 -0.3702
   21DOPE  H18S 2661   2.417   9.971  14.908 -4.1383  0.3183  1.6146
   21DOPE  H18T 2662   2.420   9.897  15.078 -1.5797  0.6312 -0.4955
   21DOPE   C33 2663   1.823   9.494  15.775  0.0103  0.0365  0.1490
   21DOPE   H3X 2664   1.920   9.538  15.806  0.5152 -2.8350  3.2488
   21DOPE   H3Y 2665   1.740   9.517  15.845  1.4261  3.0149  1.0072
   21DOPE   C34 2666   1.794   9.564  15.635  0.1965 -0.0069 -0.7047
   21DOPE   H4X 2667   1.898   9.581  15.599  0.3812 -1.5360 -0.9692
   21DOPE   H4Y 2668   1.740   9.497  15.565 -1.5752 -0.7490  1.2400
   21DOPE   C35 2669   1.732   9.700  15.647  0.6428  0.8877 -0.6028
   21DOPE   H5X 2670   1.773   9.753  15.735 -4.5641  1.0598  2.1356
   21DOPE   H5Y 2671   1.624   9.694  15.674  0.9322 -0.1344  0.3910
   21DOPE   C36 2672   1.762   9.794  15.526  0.0128 -0.7157  0.2801
   21DOPE   H6X 2673   1.725   9.747  15.433  0.3071  1.8331 -1.2226
   21DOPE   H6Y 2674   1.872   9.806  15.517 -0.2673  0.0950 -3.2668
   21DOPE   C37 2675   1.702   9.937  15.537 -0.5228  0.1485 -0.4357
   21DOPE   H7X 2676   1.770   9.987  15.609 -1.2083  0.7665 -0.2056
   21DOPE   H7Y 2677   1.716   9.975  15.434  0.7530 -2.4624 -1.3107
   21DOPE   C38 2678   1.553   9.953  15.568 -0.3701  0.6880 -0.0172
   21DOPE   H8X 2679   1.545   9.939  15.678  1.9953 -0.1444  0.0895
   21DOPE   H8Y 2680   1.503   9.863  15.525  0.2641  0.3386 -0.0358
   21DOPE   C39 2681   1.481  10.075  15.527 -0.6262 -0.5474  0.1047
   21DOPE   H9X 2682   1.501  10.153  15.603 -0.1635 -0.5168 -0.0434
   21DOPE  C310 2683   1.394  10.102  15.424 -0.0169 -0.3301 -0.0272
   21DOPE  H10X 2684   1.347  10.201  15.411 -2.3459 -1.1810  1.2913
   21DOPE  C311 2685   1.343  10.003  15.329 -0.2655  0.2744  0.0048
   21DOPE  H11X 2686   1.340  10.039  15.224  2.6757 -0.1624 -0.3279
   21DOPE  H11Y 2687   1.402   9.909  15.322 -1.4666 -0.3704 -2.0498
   21DOPE  C312 2688   1.198   9.949  15.377 -0.3230 -1.0731 -0.1358
   21DOPE  H12X 2689   1.130  10.036  15.373  1.3497  0.3054  0.3363
   21DOPE  H12Y 2690   1.212   9.895  15.474 -1.5682 -1.0098  0.1031
   21DOPE  C313 2691   1.138   9.849  15.271 -0.2290 -0.5905  0.4769
   21DOPE  H13X 2692   1.110   9.911  15.183 -0.1530 -2.3102 -0.8119
   21DOPE  H13Y 2693   1.213   9.782  15.224 -0.8176  0.5603 -2.2755
   21DOPE  C314 2694   1.012   9.781  15.316  0.0301  0.1924 -0.4117
   21DOPE  H14X 2695   1.057   9.725  15.401  0.7294 -1.2314 -1.6561
   21DOPE  H14Y 2696   0.969   9.709  15.243 -2.9646  0.0145  1.3574
   21DOPE  C315 2697   0.899   9.872  15.357 -0.3580 -0.2991 -0.5042
   21DOPE  H15X 2698   0.865   9.943  15.279  0.5523  1.0385  0.2671
   21DOPE  H15Y 2699   0.933   9.929  15.446  1.3857 -0.9929 -0.6867
   21DOPE  C316 2700   0.777   9.798  15.410  0.2714 -0.0963  0.0127
   21DOPE  H16X 2701   0.805   9.722  15.486  0.8559  0.2696  0.1663
   21DOPE  H16Y 2702   0.738   9.742  15.322  1.9784  0.4635 -1.1479
   21DOPE  C317 2703   0.672   9.887  15.467 -0.0638  0.2475 -0.2741
   21DOPE  H17X 2704   0.725   9.940  15.549 -0.2999  0.8444 -0.5019
   21DOPE  H17Y 2705   0.644   9.965  15.393  0.6073  0.7106 -0.0502
   21DOPE  C318 2706   0.537   9.817  15.507 -0.8861  0.9201  0.2409
   21DOPE  H18X 2707   0.490   9.780  15.413  2.1138 -2.0283 -0.3219
   21DOPE  H18Y 2708   0.557   9.722  15.562 -1.8613 -0.0639 -1.0201
   21DOPE  H18Z 2709   0.474   9.887  15.565 -0.0863  2.9042 -1.1637
   22DOPE     N 2710   1.926   4.334  16.805  0.7994 -0.9959 -0.3372
   22DOPE   HN1 2711   1.877   4.426  16.814  1.5365 -0.5700 -0.5358
   22DOPE   HN2 2712   1.860   4.254  16.802  0.0130 -0.3526 -1.0073
   22DOPE   HN3 2713   1.976   4.321  16.895  1.3368 -1.8151 -0.7446
   22DOPE   C12 2714   2.011   4.357  16.680  0.3321  0.1653 -0.1590
   22DOPE  H12A 2715   2.088   4.278  16.667  1.0414  0.7978  0.1123
   22DOPE  H12B 2716   2.084   4.438  16.701  1.4376 -1.2218  1.6676
   22DOPE   C11 2717   1.925   4.381  16.548 -0.0073  0.5491 -0.1329
   22DOPE  H11A 2718   1.883   4.279  16.534 -0.5361  0.6950  0.3521
   22DOPE  H11B 2719   1.989   4.410  16.462  0.8791  1.6445  0.8518
   22DOPE     P 2720   1.761   4.583  16.484  0.2271  0.1715 -0.4003
   22DOPE   O13 2721   1.871   4.670  16.449  0.0822 -0.4415 -0.1986
   22DOPE   O14 2722   1.640   4.643  16.547  0.7741  0.1430  0.0049
   22DOPE   O11 2723   1.718   4.504  16.359  0.4091 -0.4430  0.1332
   22DOPE   O12 2724   1.817   4.468  16.570 -0.1995  0.6459 -0.0074
   22DOPE    C1 2725   1.715   4.547  16.220  0.1395  0.5663  0.7452
   22DOPE    HA 2726   1.714   4.456  16.156 -1.2062  1.7960 -1.0585
   22DOPE    HB 2727   1.804   4.609  16.197 -0.7687  1.3307 -0.8695
   22DOPE    C2 2728   1.588   4.635  16.183  0.2191 -0.2667 -0.2320
   22DOPE    HS 2729   1.557   4.690  16.274  3.0651 -0.9893  1.3118
   22DOPE   O21 2730   1.494   4.543  16.128 -0.0317  0.4889 -0.1383
   22DOPE   C21 2731   1.380   4.589  16.103  0.5293  0.3769 -0.4568
   22DOPE   O22 2732   1.341   4.706  16.115  0.3384 -0.2074  0.5062
   22DOPE   C22 2733   1.289   4.481  16.050  0.3408 -0.7722  0.0516
   22DOPE   H2R 2734   1.298   4.390  16.113 -1.0626  0.0962  1.5662
   22DOPE   H2S 2735   1.312   4.460  15.943 -0.4950  1.4223 -0.6099
   22DOPE    C3 2736   1.632   4.743  16.077 -0.0282  0.0908  0.2421
   22DOPE    HX 2737   1.718   4.796  16.124 -0.4672  1.6859 -0.6714
   22DOPE    HY 2738   1.551   4.818  16.065 -0.3537 -0.4972 -1.5949
   22DOPE   O31 2739   1.664   4.697  15.946  0.0419 -0.2613 -0.6105
   22DOPE   C31 2740   1.781   4.736  15.895 -0.0868  0.4221  0.6990
   22DOPE   O32 2741   1.875   4.776  15.964  0.3981 -0.6722 -0.5791
   22DOPE   C32 2742   1.775   4.700  15.747  0.4991 -0.6276  0.5381
   22DOPE   H2X 2743   1.689   4.748  15.696  0.8038 -1.4486 -0.7907
   22DOPE   H2Y 2744   1.867   4.737  15.698  1.1526 -2.6289  0.1631
   22DOPE   C23 2745   1.142   4.521  16.039  0.5291 -0.5805 -0.2521
   22DOPE   H3R 2746   1.127   4.608  15.971 -0.3731  1.0453  1.9095
   22DOPE   H3S 2747   1.109   4.554  16.140  0.0056 -1.5971 -0.0764
   22DOPE   C24 2748   1.048   4.417  15.986  0.8250  0.2153 -0.2132
   22DOPE   H4R 2749   1.050   4.334  16.059 -1.2001 -0.0469 -0.3992
   22DOPE   H4S 2750   1.069   4.384  15.882 -0.3754 -0.6107 -0.2255
   22DOPE   C25 2751   0.895   4.469  15.992  0.4544  0.0887  0.1421
   22DOPE   H5R 2752   0.881   4.522  16.088  0.8187 -1.3959  1.0366
   22DOPE   H5S 2753   0.839   4.373  15.993  1.9157 -0.8302 -1.3719
   22DOPE   C26 2754   0.860   4.566  15.875 -0.6931  0.2485 -0.2740
   22DOPE   H6R 2755   0.900   4.526  15.779  2.2303 -1.6746  1.5844
   22DOPE   H6S 2756   0.915   4.660  15.896 -1.6634  0.6550  0.5439
   22DOPE   C27 2757   0.712   4.591  15.855  0.3014  0.1427 -0.9453
   22DOPE   H7R 2758   0.689   4.667  15.932  1.7856  0.2198 -0.5604
   22DOPE   H7S 2759   0.657   4.495  15.868 -0.4748  0.4461 -1.8295
   22DOPE   C28 2760   0.662   4.646  15.719  0.2837  0.5183 -0.4884
   22DOPE   H8R 2761   0.707   4.576  15.647 -0.7307 -0.0609 -0.5786
   22DOPE   H8S 2762   0.693   4.751  15.699  0.1426  0.5266 -0.6676
   22DOPE   C29 2763   0.512   4.639  15.705  0.1006  0.5118 -0.4784
   22DOPE   H9R 2764   0.451   4.721  15.747 -0.1290  0.6415 -1.0517
   22DOPE  C210 2765   0.437   4.544  15.640 -0.0914  0.2005 -0.3353
   22DOPE  H10R 2766   0.329   4.562  15.633 -0.5253 -1.6201  1.0112
   22DOPE  C211 2767   0.493   4.421  15.575 -0.1576 -0.6623 -0.6559
   22DOPE  H11R 2768   0.486   4.333  15.643 -3.0516 -0.7924 -1.0008
   22DOPE  H11S 2769   0.602   4.429  15.557  0.1985 -1.6467  0.8871
   22DOPE  C212 2770   0.417   4.391  15.448 -0.4562 -0.2976  0.1013
   22DOPE  H12R 2771   0.437   4.456  15.360  1.7863  0.8208  1.3251
   22DOPE  H12S 2772   0.309   4.388  15.474 -0.4473  2.2494  0.7230
   22DOPE  C213 2773   0.449   4.247  15.406  0.1619 -0.6051 -0.1374
   22DOPE  H13R 2774   0.425   4.164  15.476  1.8881 -0.8825  0.1645
   22DOPE  H13S 2775   0.559   4.246  15.389  0.4305 -1.9468  1.4758
   22DOPE  C214 2776   0.389   4.229  15.265 -0.4074  0.4996  0.2176
   22DOPE  H14R 2777   0.432   4.300  15.191  1.7816 -0.1580  0.7678
   22DOPE  H14S 2778   0.286   4.267  15.281 -0.2852  1.1779 -0.5271
   22DOPE  C215 2779   0.409   4.090  15.206  0.2938  0.0521  0.3449
   22DOPE  H15R 2780   0.348   4.084  15.114 -1.0744  1.0995  1.1411
   22DOPE  H15S 2781   0.370   4.018  15.281 -1.2529  1.4802  0.9938
   22DOPE  C216 2782   0.560   4.077  15.170  0.5594  0.3381 -0.8034
   22DOPE  H16R 2783   0.624   4.033  15.250 -1.3705 -0.1554  0.5354
   22DOPE  H16S 2784   0.591   4.180  15.142 -3.3996  1.8773 -0.1626
   22DOPE  C217 2785   0.581   3.979  15.051 -0.1096 -0.0295  0.5464
   22DOPE  H17R 2786   0.506   4.006  14.975 -1.7761 -0.8925  1.8161
   22DOPE  H17S 2787   0.558   3.873  15.077 -0.9820 -0.3995 -1.5402
   22DOPE  C218 2788   0.725   3.984  14.987  0.5836 -0.1211 -0.1246
   22DOPE  H18R 2789   0.744   4.075  14.926 -0.3942  0.9842  1.1431
   22DOPE  H18S 2790   0.746   3.892  14.928  0.6894 -1.4155  1.8396
   22DOPE  H18T 2791   0.798   3.962  15.068 -1.3025 -1.3656  1.3340
   22DOPE   C33 2792   1.766   4.550  15.712 -0.3105  0.5629 -0.3524
   22DOPE   H3X 2793   1.693   4.495  15.774  1.8997 -0.2690  1.6465
   22DOPE   H3Y 2794   1.859   4.497  15.741 -2.0588 -2.0808  0.7837
   22DOPE   C34 2795   1.757   4.542  15.562 -0.1969 -0.3293  0.0516
   22DOPE   H4X 2796   1.654   4.576  15.538 -0.2520 -1.1375 -0.9254
   22DOPE   H4Y 2797   1.836   4.606  15.519  0.8735 -1.8812 -0.3815
   22DOPE   C35 2798   1.781   4.397  15.516  0.0759  0.1137  0.2762
   22DOPE   H5X 2799   1.687   4.338  15.524  0.2497 -0.2588 -0.3950
   22DOPE   H5Y 2800   1.853   4.348  15.585 -1.7884 -0.0087  2.2433
   22DOPE   C36 2801   1.831   4.387  15.366 -0.9548  0.6690 -0.1653
   22DOPE   H6X 2802   1.899   4.474  15.357 -0.9312  0.5941 -0.7127
   22DOPE   H6Y 2803   1.743   4.418  15.305 -1.4649 -1.0498 -0.3634
   22DOPE   C37 2804   1.891   4.254  15.328  0.2920 -0.5744 -0.9223
   22DOPE   H7X 2805   1.967   4.275  15.250 -0.6946  0.5440 -1.6156
   22DOPE   H7Y 2806   1.941   4.218  15.421  0.3065 -0.3318 -0.8372
   22DOPE   C38 2807   1.807   4.139  15.265 -0.3555 -0.0281 -0.0889
   22DOPE   H8X 2808   1.726   4.105  15.334 -2.0222  0.5971 -1.6635
   22DOPE   H8Y 2809   1.877   4.054  15.251  1.9060  1.7265  0.0092
   22DOPE   C39 2810   1.749   4.193  15.140 -0.5559  0.4889  0.7395
   22DOPE   H9X 2811   1.829   4.220  15.070 -0.7428  0.9746  0.7128
   22DOPE  C310 2812   1.616   4.194  15.105 -0.0125 -0.2114 -0.3851
   22DOPE  H10X 2813   1.590   4.252  15.015  0.3156 -1.2219 -1.1506
   22DOPE  C311 2814   1.497   4.157  15.190 -0.1596  0.0345 -0.0727
   22DOPE  H11X 2815   1.406   4.148  15.127  0.0744  0.6444 -0.5014
   22DOPE  H11Y 2816   1.508   4.056  15.236 -2.0078  0.2448  0.9100
   22DOPE  C312 2817   1.465   4.262  15.297  0.3457  0.7688 -0.3729
   22DOPE  H12X 2818   1.436   4.349  15.233 -1.6553 -0.4576 -1.2280
   22DOPE  H12Y 2819   1.553   4.282  15.361  0.3625  0.2018 -0.2213
   22DOPE  C313 2820   1.349   4.230  15.394  0.1222  0.0004  0.0560
   22DOPE  H13X 2821   1.270   4.171  15.343 -0.5934  1.0481 -0.0811
   22DOPE  H13Y 2822   1.392   4.163  15.472 -2.4451 -1.1699  0.5755
   22DOPE  C314 2823   1.282   4.345  15.464 -0.4814 -0.5339 -0.6582
   22DOPE  H14X 2824   1.226   4.311  15.553 -1.6108 -2.4336 -2.0104
   22DOPE  H14Y 2825   1.211   4.394  15.394  0.1462 -0.2995 -1.1427
   22DOPE  C315 2826   1.386   4.447  15.522 -0.2329 -0.6950 -0.2578
   22DOPE  H15X 2827   1.429   4.505  15.437 -1.0301  0.4845  0.1057
   22DOPE  H15Y 2828   1.475   4.398  15.567  0.0066 -1.4035 -1.4892
   22DOPE  C316 2829   1.321   4.545  15.621 -0.6202  0.1297  0.4818
   22DOPE  H16X 2830   1.291   4.491  15.714  2.3132 -0.6906  1.0736
   22DOPE  H16Y 2831   1.229   4.581  15.570  0.1859  0.6817 -0.6339
   22DOPE  C317 2832   1.421   4.649  15.666 -0.2754  0.1147 -0.1384
   22DOPE  H17X 2833   1.493   4.603  15.738 -1.4589  0.6060  1.4179
   22DOPE  H17Y 2834   1.472   4.689  15.576  2.0229 -1.7562  0.2122
   22DOPE  C318 2835   1.351   4.763  15.746  0.2471  0.3372 -0.2690
   22DOPE  H18X 2836   1.416   4.812  15.822 -0.3500 -0.5053  0.8276
   22DOPE  H18Y 2837   1.314   4.828  15.664 -0.0615 -4.0870 -4.0719
   22DOPE  H18Z 2838   1.260   4.717  15.791  1.2076 -0.0632  1.3522
   23DOPE     N 2839   3.634   0.873  16.310  0.3355  0.7549  0.4833
   23DOPE   HN1 2840   3.593   0.956  16.263 -1.3560 -0.9354 -1.2418
   23DOPE   HN2 2841   3.651   0.889  16.411 -0.5870 -1.6545  1.0971
   23DOPE   HN3 2842   3.722   0.847  16.262 -0.5026 -0.7786 -0.3284
   23DOPE   C12 2843   3.542   0.751  16.302 -0.1622 -0.9486 -0.0831
   23DOPE  H12A 2844   3.509   0.734  16.197 -0.5487  1.0090 -0.3134
   23DOPE  H12B 2845   3.456   0.771  16.369  0.3101 -0.3205  0.3408
   23DOPE   C11 2846   3.609   0.622  16.361  0.7050 -0.3424 -0.0304
   23DOPE  H11A 2847   3.539   0.535  16.360 -1.6459  1.3945 -2.2250
   23DOPE  H11B 2848   3.643   0.633  16.466  1.7911  0.2512 -0.4393
   23DOPE     P 2849   3.786   0.454  16.264  0.0119  0.2110 -0.1457
   23DOPE   O13 2850   3.683   0.346  16.269 -0.4398  0.1163 -0.4209
   23DOPE   O14 2851   3.898   0.445  16.361  0.2116 -1.0769  0.5390
   23DOPE   O11 2852   3.841   0.455  16.120  0.3881 -0.0879 -0.1970
   23DOPE   O12 2853   3.723   0.596  16.286 -0.3014 -0.1021  0.6737
   23DOPE    C1 2854   3.786   0.557  16.030 -0.2375 -0.1216  0.6548
   23DOPE    HA 2855   3.809   0.659  16.067 -0.7067 -0.2077  1.1981
   23DOPE    HB 2856   3.676   0.540  16.030  0.1053 -2.8380  1.0159
   23DOPE    C2 2857   3.856   0.537  15.893 -0.8562 -0.0940  0.7605
   23DOPE    HS 2858   3.818   0.615  15.824  1.0332 -2.1693 -2.9014
   23DOPE   O21 2859   3.826   0.405  15.837 -0.0963  0.8474  0.3360
   23DOPE   C21 2860   3.700   0.387  15.809 -0.4706 -0.2077 -0.0955
   23DOPE   O22 2861   3.614   0.473  15.799  0.1759  0.1554 -0.0238
   23DOPE   C22 2862   3.686   0.235  15.791  0.3245  0.2388 -0.2625
   23DOPE   H2R 2863   3.696   0.201  15.896  0.2838 -0.8204 -0.5925
   23DOPE   H2S 2864   3.773   0.190  15.739  0.3925  0.0693 -0.0054
   23DOPE    C3 2865   4.011   0.566  15.907 -0.2925 -0.5475 -0.3982
   23DOPE    HX 2866   4.064   0.496  15.975  2.4342  1.2376 -0.5403
   23DOPE    HY 2867   4.031   0.665  15.953  0.4088 -1.2226  0.7953
   23DOPE   O31 2868   4.077   0.574  15.779  0.9873  0.5302  0.2317
   23DOPE   C31 2869   4.206   0.598  15.776 -0.2670 -0.0897 -0.3236
   23DOPE   O32 2870   4.274   0.628  15.875  0.3621 -0.3482  0.2110
   23DOPE   C32 2871   4.253   0.595  15.632  0.4819  0.5771  0.4420
   23DOPE   H2X 2872   4.206   0.513  15.575  0.0410  1.2347 -0.1515
   23DOPE   H2Y 2873   4.221   0.686  15.577  1.2987  0.5497 -0.1031
   23DOPE   C23 2874   3.548   0.180  15.735  0.6383 -0.1809  0.6015
   23DOPE   H3R 2875   3.457   0.215  15.789  0.3126 -2.3794  1.5680
   23DOPE   H3S 2876   3.538   0.071  15.755 -1.0352 -0.1135  0.2793
   23DOPE   C24 2877   3.543   0.206  15.578  0.2854 -0.1932 -0.2071
   23DOPE   H4R 2878   3.540   0.316  15.563 -0.7697 -0.4273 -2.1137
   23DOPE   H4S 2879   3.452   0.157  15.537  0.6678 -0.0743 -1.2294
   23DOPE   C25 2880   3.659   0.139  15.492  0.0582 -0.4472  0.4414
   23DOPE   H5R 2881   3.646   0.029  15.497 -1.0569 -0.3636 -0.3464
   23DOPE   H5S 2882   3.764   0.167  15.517  0.3183  0.1616 -1.2213
   23DOPE   C26 2883   3.651   0.197  15.351  0.8732 -0.0367 -0.3373
   23DOPE   H6R 2884   3.639   0.306  15.366 -2.5898 -0.2465 -0.9618
   23DOPE   H6S 2885   3.565   0.172  15.286 -0.8062  1.7375  1.0836
   23DOPE   C27 2886   3.773   0.168  15.262  0.0143  0.3338 -0.4374
   23DOPE   H7R 2887   3.872   0.193  15.307  0.8801 -0.6629 -1.7150
   23DOPE   H7S 2888   3.763   0.241  15.178  1.8551  1.2042  0.0416
   23DOPE   C28 2889   3.789   0.023  15.215 -1.3836  0.0423 -0.1592
   23DOPE   H8R 2890   3.702   0.006  15.148 -0.1596  1.9931 -2.3699
   23DOPE   H8S 2891   3.789  -0.042  15.306  3.8836 -0.0175  0.1238
   23DOPE   C29 2892   3.917  -0.004  15.143 -0.2041  0.2203  0.0210
   23DOPE   H9R 2893   4.010  -0.021  15.200  0.4522  0.3393 -0.9937
   23DOPE  C210 2894   3.944   0.017  15.013  0.0560  0.2257  0.2143
   23DOPE  H10R 2895   4.045  -0.002  14.974  0.1418  1.4826 -0.2219
   23DOPE  C211 2896   3.846   0.065  14.910  0.5979 -0.6144  0.1098
   23DOPE  H11R 2897   3.875   0.162  14.863  0.1288 -0.2550  0.5644
   23DOPE  H11S 2898   3.748   0.094  14.952  0.2645  0.8076 -1.5462
   23DOPE  C212 2899   3.827  -0.047  14.804 -0.5383 -0.1612 -1.0894
   23DOPE  H12R 2900   3.922  -0.043  14.746  1.3557  4.3409  1.7940
   23DOPE  H12S 2901   3.753  -0.012  14.728 -0.3292 -0.2414 -1.3336
   23DOPE  C213 2902   3.789  -0.189  14.861  0.1828 -0.1281 -0.2109
   23DOPE  H13R 2903   3.702  -0.181  14.930 -0.5921  0.1911 -1.2065
   23DOPE  H13S 2904   3.878  -0.228  14.915 -0.0783  0.7475  0.8991
   23DOPE  C214 2905   3.752  -0.287  14.745  0.0831  0.5380  0.4417
   23DOPE  H14R 2906   3.741  -0.397  14.759  2.7940 -0.0387 -1.2188
   23DOPE  H14S 2907   3.838  -0.282  14.675 -0.1564  1.7259  0.2268
   23DOPE  C215 2908   3.629  -0.241  14.661 -0.1739  0.0338 -0.4637
   23DOPE  H15R 2909   3.638  -0.136  14.623 -1.0772 -0.6199 -2.6353
   23DOPE  H15S 2910   3.533  -0.234  14.716 -0.0067 -0.0600 -0.1583
   23DOPE  C216 2911   3.603  -0.331  14.541  0.6859  0.2164 -0.2676
   23DOPE  H16R 2912   3.523  -0.293  14.473  0.3225 -1.6336 -0.9109
   23DOPE  H16S 2913   3.572  -0.425  14.590 -1.5439  1.0988  0.1640
   23DOPE  C217 2914   3.726  -0.341  14.455 -0.8962  0.1373  0.2459
   23DOPE  H17R 2915   3.813  -0.396  14.497 -1.0028  0.1696  0.5083
   23DOPE  H17S 2916   3.760  -0.237  14.436  0.4628 -0.4382 -0.6442
   23DOPE  C218 2917   3.697  -0.399  14.318 -0.1643  0.5616 -0.7874
   23DOPE  H18R 2918   3.787  -0.386  14.254  0.6355 -0.6995  0.0456
   23DOPE  H18S 2919   3.609  -0.357  14.264  0.9387  1.3997 -1.9873
   23DOPE  H18T 2920   3.680  -0.508  14.330  2.2308  0.2950  0.8886
   23DOPE   C33 2921   4.403   0.581  15.600  0.4847 -0.6285 -0.4766
   23DOPE   H3X 2922   4.447   0.488  15.643 -0.0265 -0.8738 -0.4777
   23DOPE   H3Y 2923   4.448   0.670  15.648 -0.5303  0.4561 -1.4784
   23DOPE   C34 2924   4.433   0.589  15.452  0.4513  0.4493 -0.2237
   23DOPE   H4X 2925   4.394   0.499  15.400  2.2266 -1.2320  1.1842
   23DOPE   H4Y 2926   4.381   0.677  15.407  2.8858  1.9663 -0.2719
   23DOPE   C35 2927   4.581   0.602  15.410 -0.2154 -0.3162  0.0528
   23DOPE   H5X 2928   4.613   0.704  15.439  0.5043 -0.2973 -0.7873
   23DOPE   H5Y 2929   4.576   0.602  15.299 -2.6525 -0.0470  0.1006
   23DOPE   C36 2930   4.682   0.505  15.468 -0.0188  0.5874  0.5294
   23DOPE   H6X 2931   4.684   0.518  15.579  0.1692  0.1423  0.5816
   23DOPE   H6Y 2932   4.780   0.535  15.427 -0.7764  0.1863 -1.6753
   23DOPE   C37 2933   4.642   0.358  15.431 -0.8051 -0.5407  0.4467
   23DOPE   H7X 2934   4.541   0.347  15.476 -1.2703  0.2799 -0.3573
   23DOPE   H7Y 2935   4.638   0.350  15.320 -0.2176  1.9840  0.1822
   23DOPE   C38 2936   4.731   0.250  15.483 -0.3551 -0.1259  0.1359
   23DOPE   H8X 2937   4.707   0.155  15.431  1.6828  0.7102 -2.5749
   23DOPE   H8Y 2938   4.704   0.233  15.589 -0.3925 -0.0062  0.1451
   23DOPE   C39 2939   4.880   0.283  15.465 -0.7958  0.6246  0.2901
   23DOPE   H9X 2940   4.932   0.332  15.548 -0.3113 -0.1335  0.4405
   23DOPE  C310 2941   4.947   0.275  15.351 -0.5039  0.1240 -0.1755
   23DOPE  H10X 2942   5.048   0.319  15.348 -0.6193  0.3769 -0.3907
   23DOPE  C311 2943   4.889   0.235  15.217  0.4756  0.0319 -0.1315
   23DOPE  H11X 2944   4.944   0.140  15.198 -0.1698 -0.8269  2.0111
   23DOPE  H11Y 2945   4.785   0.199  15.225  0.6227 -1.1076 -2.5246
   23DOPE  C312 2946   4.897   0.341  15.116  0.2475 -0.4621  0.3041
   23DOPE  H12X 2947   4.996   0.392  15.114  0.2779 -0.5072 -2.0573
   23DOPE  H12Y 2948   4.818   0.418  15.133  0.4490 -0.5286  1.6022
   23DOPE  C313 2949   4.880   0.286  14.973 -0.1933 -0.1404  0.1405
   23DOPE  H13X 2950   4.964   0.214  14.961  1.0830  1.5652 -1.8617
   23DOPE  H13Y 2951   4.781   0.236  14.968 -1.2560  1.5744  2.4122
   23DOPE  C314 2952   4.897   0.385  14.856  0.0093 -0.7889 -0.3623
   23DOPE  H14X 2953   4.988   0.442  14.885 -0.0430 -0.9129  0.0467
   23DOPE  H14Y 2954   4.813   0.459  14.859  1.3471  0.8121  2.9417
   23DOPE  C315 2955   4.925   0.311  14.717  0.6783  0.1642 -0.1907
   23DOPE  H15X 2956   4.852   0.229  14.698 -0.7956  2.0152 -3.2876
   23DOPE  H15Y 2957   5.020   0.255  14.734  0.2254 -0.7038 -0.4658
   23DOPE  C316 2958   4.941   0.404  14.604 -0.0724 -0.4596 -0.1981
   23DOPE  H16X 2959   5.028   0.473  14.613  0.0623 -0.4648 -1.2967
   23DOPE  H16Y 2960   4.849   0.465  14.600 -0.0228 -0.3594  0.1448
   23DOPE  C317 2961   4.943   0.327  14.472 -0.3261 -0.0479  0.1721
   23DOPE  H17X 2962   5.041   0.275  14.475  1.4432  3.0981  0.1901
   23DOPE  H17Y 2963   4.858   0.254  14.466  0.6346 -1.2347  0.6016
   23DOPE  C318 2964   4.937   0.426  14.350 -0.0075 -0.3986  0.6386
   23DOPE  H18X 2965   5.033   0.482  14.348 -0.2958  0.1249 -1.4499
   23DOPE  H18Y 2966   4.924   0.378  14.250  0.8999  2.4057 -0.9244
   23DOPE  H18Z 2967   4.854   0.495  14.375 -0.8906 -1.6174  1.1502
   24DOPE     N 2968   8.060   6.714  16.343  0.9731  0.8267 -0.3736
   24DOPE   HN1 2969   8.136   6.776  16.380  0.5655  2.2765 -1.8355
   24DOPE   HN2 2970   8.010   6.670  16.422 -0.1336 -0.2698 -1.6328
   24DOPE   HN3 2971   8.096   6.636  16.285  0.8971  0.6387 -0.1670
   24DOPE   C12 2972   7.951   6.779  16.263  0.7793 -0.6968  0.0356
   24DOPE  H12A 2973   7.979   6.781  16.155  1.1394  0.4130  0.1331
   24DOPE  H12B 2974   7.931   6.879  16.306  0.0447 -0.6019 -0.5080
   24DOPE   C11 2975   7.812   6.694  16.254 -0.5257  0.8331  0.2529
   24DOPE  H11A 2976   7.729   6.758  16.218 -2.4846 -1.1380  1.0064
   24DOPE  H11B 2977   7.796   6.658  16.358  2.8378 -3.5556 -0.4803
   24DOPE     P 2978   7.891   6.447  16.187  0.0665  0.5292 -0.1981
   24DOPE   O13 2979   7.814   6.369  16.287  0.4917  0.5084 -0.4187
   24DOPE   O14 2980   8.036   6.472  16.223  0.0045  0.1108  0.2815
   24DOPE   O11 2981   7.888   6.381  16.044  0.2133 -0.6454 -0.0952
   24DOPE   O12 2982   7.830   6.586  16.161 -0.1693 -0.7993  0.3682
   24DOPE    C1 2983   7.763   6.318  16.002 -0.2873 -0.9313 -0.5125
   24DOPE    HA 2984   7.695   6.395  15.960  0.2922  0.0905  0.3728
   24DOPE    HB 2985   7.719   6.255  16.082  1.0271 -2.3358 -0.8398
   24DOPE    C2 2986   7.779   6.211  15.891 -0.5799 -0.7385  0.7993
   24DOPE    HS 2987   7.835   6.127  15.938  0.4409  0.1772  1.2543
   24DOPE   O21 2988   7.843   6.281  15.784  0.1000  0.7414  0.0996
   24DOPE   C21 2989   7.936   6.221  15.714  0.2014 -0.1527  0.1054
   24DOPE   O22 2990   7.990   6.116  15.739  0.0988  0.0926 -0.9049
   24DOPE   C22 2991   7.972   6.291  15.593  0.3024  0.1077 -0.3143
   24DOPE   H2R 2992   8.077   6.326  15.603  0.9289 -2.1536  1.7972
   24DOPE   H2S 2993   7.902   6.378  15.589 -0.1715 -0.2062  0.8725
   24DOPE    C3 2994   7.648   6.155  15.841  0.9747 -0.3129  0.3923
   24DOPE    HX 2995   7.589   6.108  15.923  2.9587 -0.4868  1.7861
   24DOPE    HY 2996   7.676   6.078  15.765  2.0684  2.2107 -1.9349
   24DOPE   O31 2997   7.555   6.248  15.780 -0.2571 -0.4854  0.2677
   24DOPE   C31 2998   7.437   6.196  15.747 -0.2066 -0.4896  0.2074
   24DOPE   O32 2999   7.400   6.081  15.756 -0.3489 -0.4962  0.0446
   24DOPE   C32 3000   7.341   6.307  15.691 -0.4542  0.3349 -0.4470
   24DOPE   H2X 3001   7.260   6.250  15.641 -1.2757  1.4898 -0.4684
   24DOPE   H2Y 3002   7.303   6.361  15.780 -1.2321  1.0816 -1.2144
   24DOPE   C23 3003   7.966   6.200  15.467  0.6229 -0.3820 -0.4746
   24DOPE   H3R 3004   8.044   6.122  15.482  3.0131  1.6478 -1.6150
   24DOPE   H3S 3005   7.986   6.256  15.373 -1.1709  2.3615  0.6431
   24DOPE   C24 3006   7.835   6.126  15.442 -0.0508 -0.1208  0.1750
   24DOPE   H4R 3007   7.743   6.188  15.457  0.0833  0.5972 -1.7162
   24DOPE   H4S 3008   7.819   6.045  15.517 -0.4563  1.2101  1.5907
   24DOPE   C25 3009   7.824   6.071  15.297 -0.2005 -0.3999  0.7980
   24DOPE   H5R 3010   7.890   5.984  15.277  0.5036  0.3512 -0.2933
   24DOPE   H5S 3011   7.839   6.158  15.230 -0.7698 -0.4799  0.5635
   24DOPE   C26 3012   7.678   6.025  15.265 -0.7475 -0.5227 -0.2028
   24DOPE   H6R 3013   7.679   6.017  15.154  0.0649  0.4820 -0.2795
   24DOPE   H6S 3014   7.608   6.101  15.307 -0.1170 -1.1694  2.1909
   24DOPE   C27 3015   7.642   5.889  15.317  0.4846  0.2895 -0.8990
   24DOPE   H7R 3016   7.604   5.881  15.421 -0.0241 -0.2862 -1.1193
   24DOPE   H7S 3017   7.718   5.808  15.312 -0.6975 -1.0561  1.2413
   24DOPE   C28 3018   7.514   5.827  15.248 -0.3620 -0.0542 -0.7192
   24DOPE   H8R 3019   7.550   5.806  15.145 -0.2326  3.9744 -1.6540
   24DOPE   H8S 3020   7.430   5.900  15.240 -1.0284 -0.7115  0.0426
   24DOPE   C29 3021   7.448   5.721  15.332 -0.0295 -0.4057  0.8734
   24DOPE   H9R 3022   7.440   5.737  15.440 -0.5956  0.5347  0.6956
   24DOPE  C210 3023   7.407   5.605  15.281 -0.1970  0.5277  0.7773
   24DOPE  H10R 3024   7.350   5.536  15.346  1.9635 -0.7766  1.3785
   24DOPE  C211 3025   7.423   5.552  15.137 -0.0984 -0.0131  0.9486
   24DOPE  H11R 3026   7.509   5.600  15.085 -0.2261  0.3699  1.0948
   24DOPE  H11S 3027   7.337   5.575  15.072  1.5134  2.3780 -0.5035
   24DOPE  C212 3028   7.451   5.397  15.117 -0.7197  0.2761 -0.5002
   24DOPE  H12R 3029   7.367   5.346  15.168 -2.7995  2.3356 -1.6851
   24DOPE  H12S 3030   7.546   5.379  15.172 -0.9376  1.0708  0.1614
   24DOPE  C213 3031   7.474   5.350  14.972 -0.0624 -0.1511 -0.8669
   24DOPE  H13R 3032   7.540   5.424  14.921 -1.6751  0.8515 -1.5920
   24DOPE  H13S 3033   7.379   5.366  14.917  0.8069  0.3022 -2.3175
   24DOPE  C214 3034   7.529   5.203  14.968 -0.2756  0.0552  0.2027
   24DOPE  H14R 3035   7.611   5.197  15.042 -1.5082 -0.1766  1.6112
   24DOPE  H14S 3036   7.554   5.183  14.862 -1.3784  0.7290 -0.1959
   24DOPE  C215 3037   7.428   5.098  15.009 -0.4000 -0.0103 -0.1556
   24DOPE  H15R 3038   7.378   5.085  14.911  0.5362 -3.1661 -0.3234
   24DOPE  H15S 3039   7.365   5.128  15.095  0.5491 -2.0198  1.3282
   24DOPE  C216 3040   7.492   4.964  15.050  0.1878  0.2076  0.7285
   24DOPE  H16R 3041   7.566   4.944  14.970 -1.2888  2.5298 -1.3352
   24DOPE  H16S 3042   7.411   4.888  15.050  0.3759 -0.0558 -1.7936
   24DOPE  C217 3043   7.570   4.965  15.188  0.0735  0.2992 -0.1480
   24DOPE  H17R 3044   7.646   5.047  15.188  0.7622 -0.2929 -1.7043
   24DOPE  H17S 3045   7.635   4.875  15.189  3.5493  2.5891  0.2620
   24DOPE  C218 3046   7.476   4.958  15.308  0.3901  0.2342 -0.3620
   24DOPE  H18R 3047   7.535   4.957  15.402 -1.2612 -0.0181  0.7082
   24DOPE  H18S 3048   7.427   4.859  15.300 -0.2180  0.4658  0.3941
   24DOPE  H18T 3049   7.391   5.029  15.319  0.6443  0.3621  0.8908
   24DOPE   C33 3050   7.395   6.404  15.585  0.2487  0.1249  0.5345
   24DOPE   H3X 3051   7.395   6.351  15.487  2.0514 -3.3262  2.1968
   24DOPE   H3Y 3052   7.497   6.436  15.614  0.4443  1.4782 -1.4910
   24DOPE   C34 3053   7.317   6.539  15.571 -0.1983 -0.0145 -0.0034
   24DOPE   H4X 3054   7.376   6.605  15.504 -0.4043 -0.4590 -0.6274
   24DOPE   H4Y 3055   7.218   6.516  15.527  1.1363 -2.5142 -2.0435
   24DOPE   C35 3056   7.305   6.618  15.697 -1.1283 -0.3328 -0.1866
   24DOPE   H5X 3057   7.408   6.612  15.738 -1.1693  1.3403  0.2131
   24DOPE   H5Y 3058   7.244   6.565  15.774 -0.0594 -1.1680  0.1145
   24DOPE   C36 3059   7.252   6.760  15.674 -0.6928  0.0245 -0.5238
   24DOPE   H6X 3060   7.226   6.798  15.775  0.2138  0.6778 -0.5253
   24DOPE   H6Y 3061   7.158   6.748  15.615 -0.3408  2.2890 -1.6636
   24DOPE   C37 3062   7.348   6.858  15.608  0.3208  0.2273 -0.8216
   24DOPE   H7X 3063   7.446   6.846  15.658 -0.6135  2.5691  1.8103
   24DOPE   H7Y 3064   7.353   6.825  15.502 -0.1182 -3.4713  0.1432
   24DOPE   C38 3065   7.307   7.004  15.613  1.0201  0.4109  0.3693
   24DOPE   H8X 3066   7.379   7.068  15.557  2.1508  1.1121  2.5109
   24DOPE   H8Y 3067   7.331   7.033  15.717  1.8308 -0.3284  0.3957
   24DOPE   C39 3068   7.159   7.030  15.574  0.3120 -0.6824 -0.9281
   24DOPE   H9X 3069   7.091   7.019  15.661  1.2637  0.8179  0.0620
   24DOPE  C310 3070   7.122   7.066  15.453 -0.4095  0.2697  0.3941
   24DOPE  H10X 3071   7.024   7.112  15.435 -0.5628  1.3307  3.5099
   24DOPE  C311 3072   7.223   7.088  15.333  0.0441  0.1157 -0.4238
   24DOPE  H11X 3073   7.327   7.058  15.356 -0.1623 -1.1125 -0.9880
   24DOPE  H11Y 3074   7.187   7.016  15.256 -1.6292  0.0498  0.3639
   24DOPE  C312 3075   7.224   7.225  15.266 -0.1943  0.0122 -0.3226
   24DOPE  H12X 3076   7.251   7.290  15.352  1.5357 -0.6385 -0.3329
   24DOPE  H12Y 3077   7.125   7.255  15.224  0.7543  2.0785 -1.2194
   24DOPE  C313 3078   7.338   7.245  15.166  0.1331 -0.7147  0.0930
   24DOPE  H13X 3079   7.419   7.195  15.224  1.2545 -0.4091 -1.1399
   24DOPE  H13Y 3080   7.314   7.210  15.063 -2.2820  1.0565 -0.0223
   24DOPE  C314 3081   7.386   7.394  15.154 -0.0935  0.6511  0.5776
   24DOPE  H14X 3082   7.495   7.375  15.142 -0.2941 -0.2618  0.1067
   24DOPE  H14Y 3083   7.368   7.451  15.248 -0.4915  0.5670  0.5557
   24DOPE  C315 3084   7.331   7.481  15.038 -0.7194  0.7817 -0.0539
   24DOPE  H15X 3085   7.220   7.481  15.048 -0.7628  0.9558 -0.4991
   24DOPE  H15Y 3086   7.353   7.435  14.939 -2.0482 -2.0320  0.8364
   24DOPE  C316 3087   7.393   7.623  15.044 -0.4508 -0.0124  0.4177
   24DOPE  H16X 3088   7.504   7.616  15.042 -0.4296  0.4361 -0.6447
   24DOPE  H16Y 3089   7.376   7.666  15.145  1.8638  1.4469  0.2695
   24DOPE  C317 3090   7.333   7.724  14.952  0.0340  0.1113 -0.1775
   24DOPE  H17X 3091   7.347   7.693  14.846 -2.5750  1.5114 -1.0389
   24DOPE  H17Y 3092   7.225   7.742  14.969 -0.7240 -0.6585 -3.4138
   24DOPE  C318 3093   7.403   7.860  14.966 -0.5260 -0.1754  0.0659
   24DOPE  H18X 3094   7.513   7.852  14.960 -0.4055 -0.1810  1.6713
   24DOPE  H18Y 3095   7.368   7.931  14.888 -0.4439  1.6331  1.5888
   24DOPE  H18Z 3096   7.378   7.892  15.070 -0.8167 -1.2901  0.3482
   25DOPE     N 3097   9.004   5.190  16.542 -0.0537 -0.4490  0.0340
   25DOPE   HN1 3098   8.966   5.095  16.526 -2.5740 -0.2900  3.7702
   25DOPE   HN2 3099   9.043   5.186  16.639 -2.4599  1.9413  1.2370
   25DOPE   HN3 3100   8.917   5.247  16.543  0.6023  0.6064  1.6126
   25DOPE   C12 3101   9.100   5.247  16.442  0.5310  0.7651  0.4513
   25DOPE  H12A 3102   9.076   5.193  16.349 -0.2020  0.4705  0.8007
   25DOPE  H12B 3103   9.209   5.238  16.460  0.9863 -0.2356 -2.3981
   25DOPE   C11 3104   9.083   5.400  16.417 -0.5690 -0.9712  0.3305
   25DOPE  H11A 3105   8.972   5.402  16.407 -0.4582 -1.1928 -1.1602
   25DOPE  H11B 3106   9.131   5.430  16.321 -0.3309 -1.3577  0.3269
   25DOPE     P 3107   9.275   5.549  16.523 -0.0337 -0.4965  0.4642
   25DOPE   O13 3108   9.357   5.506  16.408  0.0968 -0.3118 -0.9736
   25DOPE   O14 3109   9.332   5.545  16.660  0.0205  0.1383 -0.1074
   25DOPE   O11 3110   9.225   5.700  16.484 -0.4666 -0.2003  0.3759
   25DOPE   O12 3111   9.139   5.469  16.526  0.5752  0.7509  0.0671
   25DOPE    C1 3112   9.109   5.724  16.408 -0.0230  0.6592 -0.5428
   25DOPE    HA 3113   9.058   5.819  16.438 -3.4278 -1.7015  1.9165
   25DOPE    HB 3114   9.030   5.651  16.434 -2.2640  2.3745 -2.0977
   25DOPE    C2 3115   9.125   5.736  16.250 -0.0010  0.3913  0.1654
   25DOPE    HS 3116   9.192   5.656  16.214 -0.4168  0.0392  0.1769
   25DOPE   O21 3117   9.172   5.862  16.199  0.4252 -0.1367  0.1137
   25DOPE   C21 3118   9.248   5.868  16.096 -0.2044 -0.0348 -0.0559
   25DOPE   O22 3119   9.305   5.770  16.046 -0.0847 -0.8950  0.6021
   25DOPE   C22 3120   9.289   6.015  16.059 -0.4291  0.4315 -0.2787
   25DOPE   H2R 3121   9.254   6.087  16.136 -0.1963  1.0554 -0.7486
   25DOPE   H2S 3122   9.237   6.046  15.966 -0.0491  2.0760  0.0120
   25DOPE    C3 3123   9.000   5.686  16.170  0.8997  0.1707  0.9740
   25DOPE    HX 3124   8.919   5.753  16.205 -0.1569 -0.7256  0.3294
   25DOPE    HY 3125   8.965   5.592  16.217 -0.0698  0.2946  0.5252
   25DOPE   O31 3126   9.008   5.681  16.027  0.1622  0.1174  0.3957
   25DOPE   C31 3127   9.028   5.557  15.974 -0.4717 -0.6321  0.0816
   25DOPE   O32 3128   9.040   5.456  16.039  0.6428  0.3108 -0.2042
   25DOPE   C32 3129   9.009   5.571  15.820 -0.3172 -0.1442  0.1758
   25DOPE   H2X 3130   9.091   5.634  15.778  1.7916 -3.0266 -0.2970
   25DOPE   H2Y 3131   9.017   5.474  15.767 -0.5439  1.2763 -2.7149
   25DOPE   C23 3132   9.442   6.032  16.040  0.0266 -0.0943  0.1442
   25DOPE   H3R 3133   9.508   5.972  16.107 -0.9265 -0.5948  0.6517
   25DOPE   H3S 3134   9.463   6.137  16.069 -2.0272  0.4907 -0.3489
   25DOPE   C24 3135   9.492   6.016  15.895 -0.2722 -0.0498  0.1813
   25DOPE   H4R 3136   9.475   6.103  15.828  0.1168 -1.1336 -1.3700
   25DOPE   H4S 3137   9.437   5.931  15.849 -2.0426  0.4412  1.2854
   25DOPE   C25 3138   9.644   5.976  15.892  1.0011 -0.4041 -0.3185
   25DOPE   H5R 3139   9.673   5.974  15.785  1.1476  0.5490 -0.3092
   25DOPE   H5S 3140   9.668   5.875  15.931  1.2301 -0.0272  0.5442
   25DOPE   C26 3141   9.737   6.066  15.960  0.2859 -0.5067 -0.4354
   25DOPE   H6R 3142   9.760   6.037  16.065 -0.6241  0.1274 -0.0533
   25DOPE   H6S 3143   9.676   6.158  15.968 -0.5298 -1.0370 -0.4613
   25DOPE   C27 3144   9.873   6.080  15.889  0.3961  0.3015 -0.4671
   25DOPE   H7R 3145   9.859   6.115  15.784 -1.1486 -0.5582 -0.5701
   25DOPE   H7S 3146   9.904   5.974  15.879 -0.7602 -0.3234  1.8887
   25DOPE   C28 3147   9.964   6.178  15.959  0.0910  0.3544  0.0815
   25DOPE   H8R 3148   9.949   6.177  16.069 -0.5974 -0.3781 -0.0111
   25DOPE   H8S 3149   9.928   6.280  15.936 -0.5863 -0.2137 -1.5579
   25DOPE   C29 3150  10.106   6.166  15.916 -0.2645  0.0740 -0.0055
   25DOPE   H9R 3151  10.145   6.065  15.936  0.3234  0.1754 -0.6398
   25DOPE  C210 3152  10.178   6.264  15.859 -0.1512  0.3466 -1.2205
   25DOPE  H10R 3153  10.276   6.232  15.820 -0.1745 -0.0184 -0.9783
   25DOPE  C211 3154  10.148   6.406  15.831  0.1350 -0.3645  0.0587
   25DOPE  H11R 3155  10.237   6.469  15.849 -0.7360  0.9363 -0.0636
   25DOPE  H11S 3156  10.063   6.444  15.892  2.0126  0.3059  2.4008
   25DOPE  C212 3157  10.113   6.421  15.680 -0.5528 -1.0626  0.1306
   25DOPE  H12R 3158  10.166   6.342  15.624 -0.2425 -0.8262  0.0905
   25DOPE  H12S 3159  10.136   6.519  15.634  2.3644 -1.7970 -0.1322
   25DOPE  C213 3160   9.965   6.412  15.652  0.2347  0.8016  0.0351
   25DOPE  H13R 3161   9.908   6.462  15.733  0.5447 -0.0259  0.7814
   25DOPE  H13S 3162   9.934   6.306  15.664  1.3754  0.4936  0.4462
   25DOPE  C214 3163   9.934   6.479  15.521 -0.1563  0.0818  0.6859
   25DOPE  H14R 3164   9.974   6.413  15.441  0.8878 -1.3551  2.3015
   25DOPE  H14S 3165   9.982   6.579  15.518  0.6885 -0.3181 -2.2183
   25DOPE  C215 3166   9.784   6.492  15.487 -0.2968 -0.2513  0.3359
   25DOPE  H15R 3167   9.732   6.540  15.572  0.2546 -1.7365  1.5697
   25DOPE  H15S 3168   9.746   6.388  15.491  0.3112 -0.4310  2.1038
   25DOPE  C216 3169   9.753   6.564  15.351  0.0613  0.2293  1.2142
   25DOPE  H16R 3170   9.843   6.621  15.317 -0.4907  0.4166 -0.0249
   25DOPE  H16S 3171   9.668   6.632  15.375  1.1951  1.7808  1.0118
   25DOPE  C217 3172   9.709   6.474  15.231 -0.7408 -0.4641  0.2766
   25DOPE  H17R 3173   9.799   6.411  15.213 -1.4283 -0.9216 -1.8432
   25DOPE  H17S 3174   9.710   6.532  15.136 -2.3331  1.9264  1.6325
   25DOPE  C218 3175   9.595   6.382  15.256  0.1122  0.0861  0.1663
   25DOPE  H18R 3176   9.607   6.324  15.349  0.3833  0.2064  0.2071
   25DOPE  H18S 3177   9.582   6.309  15.174 -2.1177  2.2069 -1.5261
   25DOPE  H18T 3178   9.501   6.441  15.265  0.1753 -0.0314  1.8583
   25DOPE   C33 3179   8.867   5.635  15.793 -0.5484 -0.4796 -0.3082
   25DOPE   H3X 3180   8.862   5.740  15.830  2.3472 -1.0303  1.9792
   25DOPE   H3Y 3181   8.801   5.574  15.859  1.0302 -1.6711  0.2219
   25DOPE   C34 3182   8.823   5.622  15.645 -0.0506  0.8473  0.5609
   25DOPE   H4X 3183   8.840   5.520  15.604  0.9585  0.7579  1.1776
   25DOPE   H4Y 3184   8.713   5.634  15.637  0.0375  0.5075 -2.9098
   25DOPE   C35 3185   8.875   5.734  15.559 -0.3404 -0.2553 -0.6848
   25DOPE   H5X 3186   8.948   5.689  15.487  0.3298 -0.6540  0.2295
   25DOPE   H5Y 3187   8.939   5.803  15.619 -1.8493 -0.4784  1.2613
   25DOPE   C36 3188   8.782   5.821  15.483  0.3987 -0.1275 -0.9740
   25DOPE   H6X 3189   8.714   5.863  15.561  1.5415 -0.7811  0.4112
   25DOPE   H6Y 3190   8.703   5.769  15.424 -3.4959  1.9142  1.9368
   25DOPE   C37 3191   8.841   5.945  15.410 -0.3903  0.0961  0.0760
   25DOPE   H7X 3192   8.910   6.003  15.475  2.3532 -0.3544 -2.2191
   25DOPE   H7Y 3193   8.910   5.912  15.330 -2.7955 -0.3586 -1.9472
   25DOPE   C38 3194   8.746   6.049  15.350  0.4855 -0.1480 -0.3559
   25DOPE   H8X 3195   8.810   6.137  15.324  0.1474 -0.2412 -1.5906
   25DOPE   H8Y 3196   8.668   6.075  15.424  0.9675 -0.4144  0.2488
   25DOPE   C39 3197   8.683   6.002  15.222 -0.1979  0.2125 -0.0088
   25DOPE   H9X 3198   8.753   6.004  15.137  1.9697  1.5007  1.7035
   25DOPE  C310 3199   8.558   5.965  15.200 -0.0238 -1.0756 -0.5923
   25DOPE  H10X 3200   8.518   5.964  15.097 -0.3350 -2.9297 -0.4995
   25DOPE  C311 3201   8.456   5.937  15.307 -0.6506  0.2235 -0.0139
   25DOPE  H11X 3202   8.436   5.827  15.311 -1.3243  0.3337 -0.2417
   25DOPE  H11Y 3203   8.494   5.955  15.410 -1.4252 -0.5478  0.4184
   25DOPE  C312 3204   8.336   6.030  15.291 -0.0001  0.3723 -0.1483
   25DOPE  H12X 3205   8.272   5.977  15.365  1.3146  0.8024  1.3660
   25DOPE  H12Y 3206   8.284   6.041  15.194  0.8300  0.9360 -0.5503
   25DOPE  C313 3207   8.344   6.173  15.361  0.0224 -0.2203  0.2571
   25DOPE  H13X 3208   8.238   6.207  15.364 -0.8999 -2.4676 -2.2992
   25DOPE  H13Y 3209   8.379   6.164  15.466 -0.6445  0.7304  0.5734
   25DOPE  C314 3210   8.431   6.280  15.292  0.3777 -0.5239 -0.0708
   25DOPE  H14X 3211   8.382   6.303  15.195 -0.1618 -0.5024  0.2045
   25DOPE  H14Y 3212   8.531   6.236  15.271  1.3094  1.3515  0.2146
   25DOPE  C315 3213   8.428   6.413  15.371 -0.0698  0.4938 -0.5907
   25DOPE  H15X 3214   8.325   6.436  15.405 -0.9811 -0.0217 -2.8062
   25DOPE  H15Y 3215   8.459   6.500  15.309  0.1781  1.2814  0.6013
   25DOPE  C316 3216   8.521   6.418  15.491  0.1109  0.3548  0.8470
   25DOPE  H16X 3217   8.625   6.405  15.456 -1.1719 -0.9410 -3.0390
   25DOPE  H16Y 3218   8.508   6.329  15.555  1.8636 -0.7213 -0.2243
   25DOPE  C317 3219   8.505   6.538  15.575  0.2766 -0.0205  0.4353
   25DOPE  H17X 3220   8.398   6.544  15.606  0.7911 -0.2546  2.3473
   25DOPE  H17Y 3221   8.561   6.529  15.670 -2.1189 -0.7983  1.8586
   25DOPE  C318 3222   8.540   6.673  15.509 -0.3674  0.1616  0.3036
   25DOPE  H18X 3223   8.498   6.744  15.583  1.2989  0.3940  1.0765
   25DOPE  H18Y 3224   8.647   6.688  15.486 -0.3696  0.7090  0.6386
   25DOPE  H18Z 3225   8.485   6.688  15.413 -0.0863 -0.9578 -0.0437
   26DOPE     N 3226   8.351   7.366  15.958  0.3649 -0.3691 -0.0035
   26DOPE   HN1 3227   8.378   7.282  16.014 -1.5386 -0.4345  0.9080
   26DOPE   HN2 3228   8.349   7.443  16.029  0.9284 -1.8142  1.6638
   26DOPE   HN3 3229   8.251   7.347  15.941  0.8808 -1.2204 -2.3760
   26DOPE   C12 3230   8.444   7.389  15.848 -0.5465  0.1005  0.7195
   26DOPE  H12A 3231   8.386   7.439  15.768  0.4405  1.6673  0.9438
   26DOPE  H12B 3232   8.470   7.287  15.810 -1.8649 -0.1222  0.3674
   26DOPE   C11 3233   8.552   7.481  15.886 -0.5801  0.1607  0.3534
   26DOPE  H11A 3234   8.515   7.584  15.903 -3.6903 -0.6758 -0.6440
   26DOPE  H11B 3235   8.629   7.499  15.808  1.5036  2.2849  2.7132
   26DOPE     P 3236   8.779   7.450  16.010 -0.1489  0.1888 -0.2481
   26DOPE   O13 3237   8.831   7.391  16.139 -0.1715  0.5028 -0.6757
   26DOPE   O14 3238   8.820   7.589  15.984 -0.2650 -0.3650 -0.1157
   26DOPE   O11 3239   8.822   7.347  15.904  0.4962 -0.0980  0.7657
   26DOPE   O12 3240   8.625   7.431  16.001  0.2923  0.2318  0.5612
   26DOPE    C1 3241   8.950   7.356  15.843  0.6916  0.1903  0.0694
   26DOPE    HA 3242   8.999   7.257  15.845  0.9585  0.2996 -0.8061
   26DOPE    HB 3243   9.017   7.423  15.902  0.1948  0.6350  0.1398
   26DOPE    C2 3244   8.940   7.396  15.692 -0.1398 -0.0428  0.1365
   26DOPE    HS 3245   9.041   7.409  15.647  0.4116 -1.8855  0.7256
   26DOPE   O21 3246   8.853   7.512  15.675  0.1434  0.2959 -0.3423
   26DOPE   C21 3247   8.907   7.631  15.697 -0.1375  0.0096  0.1209
   26DOPE   O22 3248   9.026   7.653  15.713  0.1875  0.2306 -0.2200
   26DOPE   C22 3249   8.795   7.734  15.686  0.0937  0.7156 -0.4188
   26DOPE   H2R 3250   8.852   7.830  15.685 -0.9471  1.3563  0.4577
   26DOPE   H2S 3251   8.724   7.731  15.772 -2.5491  2.6483 -2.3676
   26DOPE    C3 3252   8.877   7.276  15.613  0.0485  0.2486 -0.1008
   26DOPE    HX 3253   8.771   7.259  15.641 -0.4687  0.1232 -2.0047
   26DOPE    HY 3254   8.937   7.184  15.631 -0.3547 -0.1078 -0.5465
   26DOPE   O31 3255   8.877   7.309  15.473  0.3272  0.5952 -0.1209
   26DOPE   C31 3256   8.954   7.239  15.397 -0.1708 -0.2125  0.4509
   26DOPE   O32 3257   9.033   7.154  15.423  0.4387  0.1502 -0.0598
   26DOPE   C32 3258   8.941   7.303  15.255 -0.0923  0.8476 -0.2379
   26DOPE   H2X 3259   8.861   7.380  15.263 -1.7896 -0.9887  1.5573
   26DOPE   H2Y 3260   9.034   7.357  15.227  0.0932  0.6647  0.0235
   26DOPE   C23 3261   8.716   7.735  15.552  0.1933 -0.3554 -0.6043
   26DOPE   H3R 3262   8.656   7.828  15.550 -1.0385 -0.9994  2.0891
   26DOPE   H3S 3263   8.647   7.648  15.550 -1.4635  0.8550  1.2457
   26DOPE   C24 3264   8.805   7.727  15.436 -0.1595 -0.4925  0.2093
   26DOPE   H4R 3265   8.826   7.618  15.430 -1.7853 -0.8657  0.7652
   26DOPE   H4S 3266   8.897   7.786  15.457 -1.2774  0.0515  4.3111
   26DOPE   C25 3267   8.756   7.775  15.302  0.2709 -0.2647 -0.1363
   26DOPE   H5R 3268   8.733   7.884  15.306 -2.1299 -0.7661  1.6644
   26DOPE   H5S 3269   8.663   7.721  15.275 -2.4621  3.0890  1.7067
   26DOPE   C26 3270   8.868   7.755  15.194 -0.1593  0.0552 -0.1406
   26DOPE   H6R 3271   8.891   7.650  15.168  0.6673 -1.2032  4.6170
   26DOPE   H6S 3272   8.958   7.810  15.228 -1.8601  4.6021 -2.1443
   26DOPE   C27 3273   8.841   7.833  15.060  0.7395  0.0945  0.7197
   26DOPE   H7R 3274   8.893   7.930  15.076 -0.7166  0.8927  0.8566
   26DOPE   H7S 3275   8.732   7.857  15.058  0.9668  1.3539  1.8433
   26DOPE   C28 3276   8.893   7.764  14.935 -0.0757 -0.0208  0.3217
   26DOPE   H8R 3277   8.834   7.670  14.928  2.2075 -1.4143 -2.0995
   26DOPE   H8S 3278   8.994   7.721  14.953 -0.6102 -0.8530  1.5234
   26DOPE   C29 3279   8.897   7.853  14.813  0.8788  0.3564 -0.2528
   26DOPE   H9R 3280   8.883   7.959  14.838 -3.1316 -0.3505  1.2232
   26DOPE  C210 3281   8.904   7.804  14.686  0.2291 -0.5517 -0.2213
   26DOPE  H10R 3282   8.907   7.873  14.600 -1.8472 -0.6118 -0.3908
   26DOPE  C211 3283   8.909   7.660  14.657 -0.2196  0.5811  0.0243
   26DOPE  H11R 3284   8.930   7.596  14.745 -0.2879 -1.6278 -1.4909
   26DOPE  H11S 3285   8.995   7.636  14.591  0.2042  0.3498  0.6467
   26DOPE  C212 3286   8.781   7.596  14.596 -0.6016 -0.3075  0.3613
   26DOPE  H12R 3287   8.686   7.626  14.645 -1.2685 -1.4018 -0.2397
   26DOPE  H12S 3288   8.780   7.485  14.598 -1.2306 -0.3185 -0.3558
   26DOPE  C213 3289   8.762   7.626  14.448 -0.2197 -0.1233  0.3235
   26DOPE  H13R 3290   8.854   7.600  14.390  0.2345  2.5109 -0.2903
   26DOPE  H13S 3291   8.760   7.737  14.441  1.1113 -0.1364 -0.6610
   26DOPE  C214 3292   8.644   7.556  14.386 -0.0832  0.3247 -0.1225
   26DOPE  H14R 3293   8.544   7.588  14.420  0.1335  1.8052 -0.7749
   26DOPE  H14S 3294   8.663   7.447  14.394  1.3347  0.1743 -3.5676
   26DOPE  C215 3295   8.642   7.598  14.233 -0.8389  0.7029  0.4240
   26DOPE  H15R 3296   8.749   7.588  14.202 -0.6034  1.1366  1.0870
   26DOPE  H15S 3297   8.612   7.702  14.212  0.3304  0.8799 -0.5130
   26DOPE  C216 3298   8.555   7.508  14.150 -0.0962  0.0840 -0.2397
   26DOPE  H16R 3299   8.588   7.406  14.180  0.8625  1.0685  2.3611
   26DOPE  H16S 3300   8.563   7.514  14.040 -2.5011 -1.1514 -0.5468
   26DOPE  C217 3301   8.404   7.526  14.183  0.2762 -0.1856  0.0789
   26DOPE  H17R 3302   8.359   7.546  14.084 -0.5165 -3.2493 -0.2689
   26DOPE  H17S 3303   8.398   7.610  14.255  0.5568 -0.3041  0.2442
   26DOPE  C218 3304   8.344   7.394  14.234 -0.3902  0.5470  1.2968
   26DOPE  H18R 3305   8.360   7.370  14.341 -0.3651 -2.1021  0.7866
   26DOPE  H18S 3306   8.383   7.317  14.164 -0.8953  1.7490 -0.3825
   26DOPE  H18T 3307   8.235   7.412  14.218  0.1470  1.4694 -1.9148
   26DOPE   C33 3308   8.897   7.209  15.134  0.8328 -0.7753  0.1075
   26DOPE   H3X 3309   8.980   7.137  15.114  0.1060 -1.9400  1.1670
   26DOPE   H3Y 3310   8.886   7.278  15.048  1.5616 -2.2759 -1.2503
   26DOPE   C34 3311   8.769   7.140  15.156  0.2234 -1.0275 -0.2388
   26DOPE   H4X 3312   8.784   7.059  15.230  0.6709 -1.1736 -0.4850
   26DOPE   H4Y 3313   8.691   7.210  15.192  2.2685  0.6910  1.0613
   26DOPE   C35 3314   8.731   7.055  15.040  0.1102 -0.5513  0.9068
   26DOPE   H5X 3315   8.817   7.000  14.996 -2.0464 -0.6187 -3.9107
   26DOPE   H5Y 3316   8.706   7.113  14.949  1.1050 -1.8641 -0.2558
   26DOPE   C36 3317   8.619   6.950  15.057  0.7735  0.3550 -0.3969
   26DOPE   H6X 3318   8.531   7.002  15.098 -0.1326 -1.2743 -0.2018
   26DOPE   H6Y 3319   8.660   6.889  15.141  0.0742  1.0927  0.4995
   26DOPE   C37 3320   8.581   6.860  14.936  0.4692 -0.4885  0.0315
   26DOPE   H7X 3321   8.540   6.931  14.861  0.5167  0.6966  1.0883
   26DOPE   H7Y 3322   8.669   6.809  14.892  0.0032  0.7768 -2.5327
   26DOPE   C38 3323   8.451   6.778  14.952 -0.4157  0.0048  0.7361
   26DOPE   H8X 3324   8.372   6.831  15.010 -0.1744 -0.4679  1.5139
   26DOPE   H8Y 3325   8.492   6.694  15.012  1.0485  0.5016  0.4774
   26DOPE   C39 3326   8.404   6.735  14.818 -0.3448  0.3110  0.2754
   26DOPE   H9X 3327   8.352   6.815  14.764 -0.6114  1.1986  1.8096
   26DOPE  C310 3328   8.413   6.609  14.767 -0.3091 -0.2441 -0.0070
   26DOPE  H10X 3329   8.386   6.603  14.661 -2.3527 -0.3246  0.4730
   26DOPE  C311 3330   8.472   6.485  14.824  0.9633  0.9704  0.3413
   26DOPE  H11X 3331   8.422   6.473  14.923  0.3706  0.2193 -0.0395
   26DOPE  H11Y 3332   8.448   6.391  14.770  1.0273  0.9330  0.3774
   26DOPE  C312 3333   8.621   6.467  14.865 -0.3294 -0.9202 -0.0764
   26DOPE  H12X 3334   8.643   6.545  14.942  1.8237 -0.0973 -1.4515
   26DOPE  H12Y 3335   8.688   6.469  14.777 -1.3536  0.2667 -0.8612
   26DOPE  C313 3336   8.647   6.331  14.938  0.3873 -0.8541  0.3324
   26DOPE  H13X 3337   8.559   6.326  15.007 -1.5796  0.4071 -1.9396
   26DOPE  H13Y 3338   8.636   6.250  14.863 -0.1155 -1.9763  1.5761
   26DOPE  C314 3339   8.786   6.320  15.000 -0.1777 -0.1163  0.8049
   26DOPE  H14X 3340   8.864   6.337  14.922 -0.0528  0.3223  1.0193
   26DOPE  H14Y 3341   8.810   6.217  15.035  0.5113 -1.1040 -2.2351
   26DOPE  C315 3342   8.816   6.421  15.115  0.5620  0.3971 -0.1855
   26DOPE  H15X 3343   8.741   6.414  15.197  2.8919  2.5290  2.3067
   26DOPE  H15Y 3344   8.810   6.524  15.074 -0.4729  0.2377 -0.4710
   26DOPE  C316 3345   8.956   6.409  15.176  0.3770 -0.0384  0.4082
   26DOPE  H16X 3346   9.031   6.438  15.101 -2.3804  2.8512 -1.4814
   26DOPE  H16Y 3347   8.969   6.303  15.207  0.3981  0.0833  0.8251
   26DOPE  C317 3348   8.990   6.486  15.301  0.0236  0.4415  0.5592
   26DOPE  H17X 3349   8.947   6.437  15.390  0.9422  0.3507  0.9646
   26DOPE  H17Y 3350   9.101   6.496  15.301  0.0386  0.5525 -1.0361
   26DOPE  C318 3351   8.944   6.632  15.300  0.1903  0.4962  0.1527
   26DOPE  H18X 3352   9.016   6.697  15.245 -1.6615  0.9246 -1.9149
   26DOPE  H18Y 3353   8.841   6.644  15.261 -1.2930 -1.3466  3.1270
   26DOPE  H18Z 3354   8.927   6.671  15.403  0.5879  3.7166 -0.8808
   27DOPE     N 3355   6.559   9.122  16.505  0.2225  0.0596 -0.2881
   27DOPE   HN1 3356   6.609   9.106  16.415  0.2212 -1.1288 -0.0862
   27DOPE   HN2 3357   6.576   9.039  16.565 -0.4698  0.3905  0.3802
   27DOPE   HN3 3358   6.456   9.126  16.491 -0.1965  3.5066  2.4518
   27DOPE   C12 3359   6.583   9.252  16.580 -0.2241 -0.1850  0.6263
   27DOPE  H12A 3360   6.692   9.262  16.600  0.4217 -0.5109 -2.2146
   27DOPE  H12B 3361   6.522   9.252  16.672 -2.3963  0.2931 -0.7566
   27DOPE   C11 3362   6.533   9.368  16.492  0.0870 -0.3190  0.0599
   27DOPE  H11A 3363   6.594   9.359  16.399 -0.3635  0.8231 -0.3609
   27DOPE  H11B 3364   6.544   9.463  16.548  2.6212 -1.2798  1.3490
   27DOPE     P 3365   6.322   9.479  16.378  0.8535  0.1981  0.2672
   27DOPE   O13 3366   6.306   9.582  16.482 -0.3051 -0.2706  0.4362
   27DOPE   O14 3367   6.189   9.437  16.322 -0.3917  0.1997 -0.0022
   27DOPE   O11 3368   6.422   9.517  16.262  0.1544 -0.0060  0.6049
   27DOPE   O12 3369   6.395   9.352  16.451 -0.1468 -0.1885  0.1438
   27DOPE    C1 3370   6.479   9.425  16.168  0.5231 -0.2170 -0.4380
   27DOPE    HA 3371   6.434   9.325  16.189 -0.5115  0.2626 -0.3309
   27DOPE    HB 3372   6.588   9.419  16.185  0.4677 -0.9044 -0.3014
   27DOPE    C2 3373   6.446   9.470  16.026 -0.5545  0.4996  0.7150
   27DOPE    HS 3374   6.492   9.399  15.955  1.9999  3.2212 -0.5517
   27DOPE   O21 3375   6.499   9.602  16.003 -0.3022 -0.9902 -0.5996
   27DOPE   C21 3376   6.620   9.613  15.977 -0.3723  0.2935  0.2840
   27DOPE   O22 3377   6.699   9.524  15.977 -0.2033  0.5426  0.1341
   27DOPE   C22 3378   6.652   9.762  15.956 -0.1717  0.6644  0.3190
   27DOPE   H2R 3379   6.701   9.795  16.050  0.2622  2.4863 -0.5007
   27DOPE   H2S 3380   6.555   9.818  15.957 -1.1925 -1.0109 -0.2215
   27DOPE    C3 3381   6.292   9.476  16.010 -0.0931 -0.3312 -0.3429
   27DOPE    HX 3382   6.261   9.558  16.078  0.1571 -1.1595  0.7889
   27DOPE    HY 3383   6.260   9.376  16.046  2.2155 -1.9266 -2.3930
   27DOPE   O31 3384   6.258   9.490  15.871  0.4846 -0.0475  0.4384
   27DOPE   C31 3385   6.140   9.549  15.851 -0.4649 -0.2225 -0.1390
   27DOPE   O32 3386   6.059   9.561  15.942 -0.2492  0.0515 -0.3357
   27DOPE   C32 3387   6.131   9.588  15.706  0.0430  0.4061 -0.0587
   27DOPE   H2X 3388   6.036   9.645  15.699 -0.3549 -0.0752  1.1761
   27DOPE   H2Y 3389   6.224   9.644  15.680  0.4454  0.0086  0.4966
   27DOPE   C23 3390   6.754   9.801  15.843  0.2438  0.1716 -0.1497
   27DOPE   H3R 3391   6.812   9.710  15.817 -1.3319 -1.7028  2.4171
   27DOPE   H3S 3392   6.831   9.870  15.884  0.8720 -1.2240  1.1352
   27DOPE   C24 3393   6.696   9.855  15.707  0.0463 -0.0183  0.0677
   27DOPE   H4R 3394   6.646   9.955  15.708  1.5251  0.7396  0.0987
   27DOPE   H4S 3395   6.614   9.788  15.672  1.8802 -1.9390 -0.7610
   27DOPE   C25 3396   6.809   9.861  15.604 -0.7037 -0.1642  0.0338
   27DOPE   H5R 3397   6.855   9.761  15.594  1.1129  0.8394 -2.8400
   27DOPE   H5S 3398   6.898   9.921  15.635 -0.6377  0.5946 -1.5284
   27DOPE   C26 3399   6.768   9.885  15.460  0.1965  0.2702 -0.4441
   27DOPE   H6R 3400   6.675   9.824  15.446  0.0236  0.9023 -2.2196
   27DOPE   H6S 3401   6.844   9.847  15.389  1.7940 -1.2751  1.9614
   27DOPE   C27 3402   6.748  10.035  15.423  1.0415 -0.0739  0.2490
   27DOPE   H7R 3403   6.654  10.070  15.470 -1.0860 -0.4137 -3.3655
   27DOPE   H7S 3404   6.742  10.041  15.312  1.0744 -0.2826  0.2363
   27DOPE   C28 3405   6.864  10.129  15.461 -0.1616  0.1205  0.2247
   27DOPE   H8R 3406   6.885  10.123  15.570  0.4831  0.1763  0.1038
   27DOPE   H8S 3407   6.838  10.235  15.438  0.4576  0.1282 -0.4600
   27DOPE   C29 3408   7.011  10.107  15.413  0.3347  0.9956 -0.8907
   27DOPE   H9R 3409   7.077  10.095  15.500 -1.6576  1.5367  0.7902
   27DOPE  C210 3410   7.063  10.106  15.289  0.4258  0.7577 -0.2217
   27DOPE  H10R 3411   7.167  10.072  15.278  0.3352  0.5442 -0.4449
   27DOPE  C211 3412   6.991  10.143  15.166  0.2411 -0.9233 -0.0534
   27DOPE  H11R 3413   7.051  10.210  15.101  0.4036 -1.6426 -0.6474
   27DOPE  H11S 3414   6.893  10.191  15.188 -0.8230 -2.1863 -1.8502
   27DOPE  C212 3415   6.967  10.025  15.074 -0.4505  0.3379 -0.3758
   27DOPE  H12R 3416   6.919  10.056  14.979 -2.6321 -2.3625 -0.2464
   27DOPE  H12S 3417   6.901   9.951  15.124 -0.1444  0.7179  0.6197
   27DOPE  C213 3418   7.091   9.952  15.020 -0.1975 -1.0298 -0.5520
   27DOPE  H13R 3419   7.142   9.898  15.103  1.9437 -1.0895 -1.8295
   27DOPE  H13S 3420   7.150  10.029  14.967 -1.0888 -0.6654 -1.0325
   27DOPE  C214 3421   7.048   9.852  14.908 -0.4766  0.0367 -0.3519
   27DOPE  H14R 3422   7.137   9.845  14.842 -0.0339  2.8659 -0.1496
   27DOPE  H14S 3423   6.969   9.888  14.838 -2.6828 -1.0774  1.4105
   27DOPE  C215 3424   7.015   9.712  14.970 -0.9607  1.4526  0.5521
   27DOPE  H15R 3425   6.928   9.721  15.038 -1.3304 -0.7154  0.4082
   27DOPE  H15S 3426   7.103   9.679  15.029 -0.6661  2.5546  0.7562
   27DOPE  C216 3427   6.972   9.615  14.856 -0.0545  0.0022  0.0127
   27DOPE  H16R 3428   7.056   9.605  14.785  0.1253  1.4987 -0.0244
   27DOPE  H16S 3429   6.879   9.654  14.808  0.2512  1.2332  0.3728
   27DOPE  C217 3430   6.941   9.470  14.901  0.4460 -0.0546 -0.4021
   27DOPE  H17R 3431   6.856   9.477  14.972  0.0424 -0.7009 -0.8124
   27DOPE  H17S 3432   7.030   9.438  14.959  0.5644  1.9038  0.6060
   27DOPE  C218 3433   6.910   9.382  14.783 -0.4513  0.4834  0.3567
   27DOPE  H18R 3434   6.816   9.421  14.738  0.3774  0.3464 -1.5734
   27DOPE  H18S 3435   6.899   9.274  14.806  0.5296  0.0624 -1.0509
   27DOPE  H18T 3436   6.984   9.387  14.701  0.1938 -2.5240  0.6347
   27DOPE   C33 3437   6.142   9.457  15.624  0.7123  0.0088  0.0913
   27DOPE   H3X 3438   6.214   9.383  15.664  0.8229  0.0409 -0.0480
   27DOPE   H3Y 3439   6.179   9.482  15.522  2.3293  0.8990  0.8604
   27DOPE   C34 3440   6.007   9.379  15.618  0.0354 -0.1169  0.4000
   27DOPE   H4X 3441   5.977   9.349  15.721  1.0484  1.3963  1.1665
   27DOPE   H4Y 3442   5.926   9.443  15.578  0.7114 -0.3429 -1.4476
   27DOPE   C35 3443   6.001   9.255  15.531  0.0172  0.1571 -0.1804
   27DOPE   H5X 3444   5.901   9.212  15.554 -0.1011  0.4222 -0.1955
   27DOPE   H5Y 3445   6.085   9.188  15.560 -0.6541  0.0824  1.7359
   27DOPE   C36 3446   6.028   9.280  15.385  0.0319  0.2148  0.5445
   27DOPE   H6X 3447   6.125   9.333  15.381  1.4577 -2.2876 -2.0815
   27DOPE   H6Y 3448   5.944   9.346  15.355  0.2327  0.2614  0.0707
   27DOPE   C37 3449   6.040   9.154  15.302  0.0350 -0.2500 -0.4530
   27DOPE   H7X 3450   6.128   9.106  15.350  1.0175  1.0559 -0.8861
   27DOPE   H7Y 3451   5.949   9.091  15.312 -0.3119  0.3728  0.5831
   27DOPE   C38 3452   6.070   9.167  15.153  0.0166 -0.1130  0.0618
   27DOPE   H8X 3453   6.059   9.068  15.106  1.4086 -0.3743  0.2376
   27DOPE   H8Y 3454   6.171   9.206  15.128 -0.0365 -0.0806 -0.1052
   27DOPE   C39 3455   5.960   9.255  15.101 -0.3968  0.1254  0.4772
   27DOPE   H9X 3456   5.974   9.362  15.124  1.0203 -0.1534  0.9944
   27DOPE  C310 3457   5.846   9.212  15.038  0.4940  0.3074  0.2159
   27DOPE  H10X 3458   5.768   9.286  15.014  0.4994 -0.0633 -1.0117
   27DOPE  C311 3459   5.804   9.068  15.003 -0.2918  0.0244 -0.1808
   27DOPE  H11X 3460   5.815   9.052  14.894 -2.1827 -1.1172 -0.2515
   27DOPE  H11Y 3461   5.860   8.983  15.048  0.7822 -0.7591 -2.7767
   27DOPE  C312 3462   5.660   9.046  15.045  0.8955 -0.2031 -0.1206
   27DOPE  H12X 3463   5.600   9.110  14.976  3.5720  0.7533 -1.7340
   27DOPE  H12Y 3464   5.642   9.074  15.151  0.4339  2.0313 -0.7231
   27DOPE  C313 3465   5.625   8.899  15.022 -0.1360 -0.1644  0.5478
   27DOPE  H13X 3466   5.658   8.863  14.922 -1.2588 -1.5780  0.6528
   27DOPE  H13Y 3467   5.684   8.843  15.097  1.6023  2.7855  1.5484
   27DOPE  C314 3468   5.482   8.853  15.039 -0.4439  0.2797 -0.6530
   27DOPE  H14X 3469   5.416   8.911  14.971 -1.2865 -2.2325 -2.0914
   27DOPE  H14Y 3470   5.460   8.877  15.145 -1.3637  0.1183 -0.8021
   27DOPE  C315 3471   5.470   8.701  15.009 -0.0566 -0.1137  0.3513
   27DOPE  H15X 3472   5.370   8.667  15.044 -0.0494 -0.7300 -0.2170
   27DOPE  H15Y 3473   5.543   8.642  15.068  0.7182 -0.8719 -1.2991
   27DOPE  C316 3474   5.474   8.679  14.859 -0.1724  0.1825 -0.2980
   27DOPE  H16X 3475   5.583   8.697  14.848  0.0710 -2.0047 -2.1584
   27DOPE  H16Y 3476   5.410   8.756  14.811 -1.4428 -0.6564 -0.0094
   27DOPE  C317 3477   5.446   8.540  14.800 -0.2966 -0.6551 -0.6011
   27DOPE  H17X 3478   5.497   8.456  14.851  1.2647  0.7009  0.1547
   27DOPE  H17Y 3479   5.340   8.512  14.819 -0.7497  0.7222 -0.9772
   27DOPE  C318 3480   5.476   8.540  14.651  0.4286  0.5087  0.3367
   27DOPE  H18X 3481   5.582   8.565  14.630  0.2383 -0.8880 -2.8475
   27DOPE  H18Y 3482   5.441   8.444  14.606  0.5205 -0.2168  1.7607
   27DOPE  H18Z 3483   5.420   8.617  14.593  0.5807  0.4806  0.1513
   28DOPE     N 3484   7.600   7.118  16.668  0.1915 -0.4815 -0.3182
   28DOPE   HN1 3485   7.648   7.112  16.760  0.0705 -0.9746 -0.2827
   28DOPE   HN2 3486   7.639   7.195  16.611  0.5227 -0.0567  0.4632
   28DOPE   HN3 3487   7.500   7.142  16.681  0.5942  0.7324  0.7657
   28DOPE   C12 3488   7.625   6.997  16.584  0.1901 -0.2371  0.3329
   28DOPE  H12A 3489   7.561   6.912  16.618 -0.8339 -0.1945 -1.3899
   28DOPE  H12B 3490   7.733   6.974  16.590  0.3723  0.7525  1.1028
   28DOPE   C11 3491   7.588   7.029  16.436 -0.3996  0.4746  0.0853
   28DOPE  H11A 3492   7.478   7.020  16.439 -0.4128  0.7756  1.5801
   28DOPE  H11B 3493   7.620   6.951  16.364  2.5396  1.3503  0.3096
   28DOPE     P 3494   7.744   7.168  16.277  0.0811  0.3359  0.3657
   28DOPE   O13 3495   7.868   7.144  16.357  0.5461  0.0121  0.5801
   28DOPE   O14 3496   7.718   7.298  16.212 -0.1096 -0.3206  0.4669
   28DOPE   O11 3497   7.722   7.048  16.174  0.6985 -0.6835  0.0077
   28DOPE   O12 3498   7.630   7.154  16.384 -0.0368 -0.2864 -0.1779
   28DOPE    C1 3499   7.593   7.022  16.117 -0.4315  0.3802 -0.3288
   28DOPE    HA 3500   7.518   7.098  16.148 -0.3505  0.7916 -1.1045
   28DOPE    HB 3501   7.559   6.925  16.159  0.2209  0.3955  0.2603
   28DOPE    C2 3502   7.603   7.010  15.961  0.0208  0.2947  1.0338
   28DOPE    HS 3503   7.507   6.970  15.924  1.6687 -1.0039 -2.1632
   28DOPE   O21 3504   7.715   6.927  15.922 -0.0008 -0.2608 -0.5707
   28DOPE   C21 3505   7.683   6.790  15.919  0.3454  0.5225 -0.3084
   28DOPE   O22 3506   7.575   6.741  15.953 -0.4585 -0.1409  0.5454
   28DOPE   C22 3507   7.798   6.725  15.859  0.0164 -0.1065 -0.2945
   28DOPE   H2R 3508   7.837   6.648  15.929 -1.4179 -1.2856 -0.7303
   28DOPE   H2S 3509   7.882   6.794  15.837  2.1446 -2.5743 -0.3565
   28DOPE    C3 3510   7.619   7.154  15.891  0.2279  0.9634 -0.5031
   28DOPE    HX 3511   7.707   7.208  15.934  1.1136  0.4322 -1.5944
   28DOPE    HY 3512   7.525   7.206  15.919 -0.2722  0.7856 -1.7876
   28DOPE   O31 3513   7.628   7.147  15.755 -0.2713  0.4211 -0.3922
   28DOPE   C31 3514   7.747   7.179  15.701 -0.6798 -0.1027  0.7462
   28DOPE   O32 3515   7.857   7.185  15.757  0.0958 -0.0759 -0.0066
   28DOPE   C32 3516   7.720   7.228  15.556 -0.2666 -0.1264  0.3698
   28DOPE   H2X 3517   7.634   7.296  15.574  0.2042  0.1336  1.7640
   28DOPE   H2Y 3518   7.815   7.271  15.518 -1.5329  0.7121 -2.0545
   28DOPE   C23 3519   7.755   6.659  15.726  0.2882  0.3085 -0.3430
   28DOPE   H3R 3520   7.669   6.589  15.736 -0.9563  1.7398 -0.6768
   28DOPE   H3S 3521   7.834   6.592  15.684 -1.3845 -0.2788 -2.7517
   28DOPE   C24 3522   7.736   6.752  15.612  0.5055 -0.6498  0.4822
   28DOPE   H4R 3523   7.834   6.804  15.606  1.0737 -1.6422  1.0083
   28DOPE   H4S 3524   7.658   6.831  15.622 -1.5236 -2.3873 -0.7444
   28DOPE   C25 3525   7.701   6.677  15.481  0.1649 -0.2190 -0.5458
   28DOPE   H5R 3526   7.610   6.618  15.502  0.6907 -0.7064  0.4443
   28DOPE   H5S 3527   7.787   6.609  15.463  3.1983  2.5569  2.0934
   28DOPE   C26 3528   7.679   6.770  15.362  0.3367  0.6662 -0.1756
   28DOPE   H6R 3529   7.772   6.829  15.344  0.6332  0.5966  1.0096
   28DOPE   H6S 3530   7.592   6.834  15.385 -0.2512 -0.0002 -0.4869
   28DOPE   C27 3531   7.641   6.695  15.234  0.6753 -0.1514 -0.1405
   28DOPE   H7R 3532   7.540   6.654  15.252  1.4250 -1.8408  0.5049
   28DOPE   H7S 3533   7.709   6.613  15.203 -1.6500 -1.6196 -1.6223
   28DOPE   C28 3534   7.629   6.787  15.116 -0.0593 -0.7393  1.3502
   28DOPE   H8R 3535   7.645   6.719  15.029 -0.0145  2.1941 -1.0969
   28DOPE   H8S 3536   7.715   6.857  15.110 -0.8862  0.2269  0.0177
   28DOPE   C29 3537   7.500   6.861  15.104  0.3971  0.0525 -0.5778
   28DOPE   H9R 3538   7.478   6.922  15.193 -0.0822  0.7661 -1.1631
   28DOPE  C210 3539   7.426   6.888  14.995 -0.3593 -0.3257 -0.2875
   28DOPE  H10R 3540   7.332   6.944  15.012 -0.9418 -1.5682  0.7550
   28DOPE  C211 3541   7.444   6.842  14.856  0.0134 -0.1897 -0.1811
   28DOPE  H11R 3542   7.365   6.772  14.820  1.7920 -2.4760  0.1120
   28DOPE  H11S 3543   7.542   6.792  14.844 -0.0428 -0.4777  0.5156
   28DOPE  C212 3544   7.440   6.961  14.755  0.1145  0.2958 -0.0826
   28DOPE  H12R 3545   7.332   6.984  14.745 -0.3189 -1.0180  1.2120
   28DOPE  H12S 3546   7.474   6.928  14.654 -0.5876  1.3599 -0.6940
   28DOPE  C213 3547   7.515   7.091  14.789 -0.4271 -0.5945  0.7722
   28DOPE  H13R 3548   7.621   7.071  14.815  0.1829  0.6349 -0.6580
   28DOPE  H13S 3549   7.476   7.142  14.880 -1.6344 -0.5833  0.2708
   28DOPE  C214 3550   7.507   7.197  14.676 -0.0061 -0.9936 -0.2108
   28DOPE  H14R 3551   7.402   7.202  14.640 -0.3117  0.8555  0.7888
   28DOPE  H14S 3552   7.564   7.161  14.588 -1.0897  0.2803 -1.4903
   28DOPE  C215 3553   7.555   7.340  14.705  0.0508  0.4071 -1.0641
   28DOPE  H15R 3554   7.662   7.361  14.685 -0.7071  2.7692 -3.1578
   28DOPE  H15S 3555   7.544   7.363  14.813 -0.7277  2.0095 -1.4584
   28DOPE  C216 3556   7.487   7.441  14.626 -0.4377 -0.2011 -0.3000
   28DOPE  H16R 3557   7.383   7.458  14.661 -0.4723  0.4519 -0.7124
   28DOPE  H16S 3558   7.477   7.400  14.524 -2.5425  1.4226 -0.8209
   28DOPE  C217 3559   7.562   7.577  14.625  0.6244 -0.3030 -0.2911
   28DOPE  H17R 3560   7.655   7.560  14.566 -0.5126  2.0126 -2.9592
   28DOPE  H17S 3561   7.581   7.607  14.730 -0.0075  1.3630 -0.6172
   28DOPE  C218 3562   7.486   7.683  14.553  0.2699 -0.7002  0.3335
   28DOPE  H18R 3563   7.470   7.668  14.444 -1.3113  1.4466  0.2163
   28DOPE  H18S 3564   7.527   7.785  14.568 -0.1077 -0.5831  0.5896
   28DOPE  H18T 3565   7.380   7.689  14.586 -0.9669  2.1960 -3.4991
   28DOPE   C33 3566   7.685   7.116  15.458 -0.3417 -0.0475  0.3284
   28DOPE   H3X 3567   7.576   7.096  15.464  0.0814 -2.1765  2.1454
   28DOPE   H3Y 3568   7.736   7.020  15.481 -0.0327 -0.0789 -0.4525
   28DOPE   C34 3569   7.741   7.140  15.313 -0.5347  0.1966 -0.2632
   28DOPE   H4X 3570   7.705   7.058  15.248 -1.7066  1.2759 -1.0240
   28DOPE   H4Y 3571   7.715   7.239  15.269 -0.7822  0.5811  0.7240
   28DOPE   C35 3572   7.896   7.134  15.296 -0.1372 -0.9542  0.3379
   28DOPE   H5X 3573   7.939   7.045  15.347  0.3876 -0.2183  1.2301
   28DOPE   H5Y 3574   7.937   7.216  15.359  1.1454 -0.8284 -0.6209
   28DOPE   C36 3575   7.935   7.164  15.150  0.1072  0.3522  0.2556
   28DOPE   H6X 3576   7.855   7.127  15.082  1.6886 -0.9174 -1.0088
   28DOPE   H6Y 3577   8.038   7.128  15.130  0.2634  0.7741  0.2992
   28DOPE   C37 3578   7.948   7.311  15.106  0.2187  0.0811 -1.3351
   28DOPE   H7X 3579   7.872   7.382  15.146  0.2415 -1.3298  1.4874
   28DOPE   H7Y 3580   8.048   7.330  15.150  0.7959  0.3151 -2.7036
   28DOPE   C38 3581   7.944   7.352  14.956  0.5431  0.1696  0.1615
   28DOPE   H8X 3582   7.939   7.462  14.945 -1.3387  0.0723 -0.2302
   28DOPE   H8Y 3583   7.848   7.322  14.909 -0.1971 -0.3930  1.9259
   28DOPE   C39 3584   8.062   7.289  14.879  0.8449 -1.3240  0.3183
   28DOPE   H9X 3585   8.151   7.354  14.875  0.2000 -0.4812 -1.0509
   28DOPE  C310 3586   8.068   7.180  14.807 -0.2488 -0.5577  0.0803
   28DOPE  H10X 3587   8.164   7.157  14.759  1.6217  0.1756  3.2139
   28DOPE  C311 3588   7.956   7.086  14.781 -0.6721  0.7523  0.7227
   28DOPE  H11X 3589   7.860   7.098  14.835 -0.9799 -1.9471  0.9304
   28DOPE  H11Y 3590   7.950   7.088  14.671  1.9754 -0.6118  0.4793
   28DOPE  C312 3591   8.006   6.940  14.793  0.0099 -0.1631 -0.5032
   28DOPE  H12X 3592   8.052   6.916  14.892  1.2557  1.0390 -0.7512
   28DOPE  H12Y 3593   8.090   6.930  14.721 -2.1748  3.0118 -3.8204
   28DOPE  C313 3594   7.913   6.827  14.762 -0.0252  0.4810  0.2277
   28DOPE  H13X 3595   7.977   6.736  14.755 -1.3820 -0.5357  0.6736
   28DOPE  H13Y 3596   7.840   6.831  14.845 -0.6877  1.8972 -0.3984
   28DOPE  C314 3597   7.825   6.848  14.636 -0.7083  0.2590  0.7437
   28DOPE  H14X 3598   7.900   6.866  14.557 -0.0376  0.2528  1.3676
   28DOPE  H14Y 3599   7.767   6.942  14.637 -0.5917  0.4154 -1.5599
   28DOPE  C315 3600   7.728   6.724  14.610  0.0436 -0.2676  0.2270
   28DOPE  H15X 3601   7.660   6.735  14.697  0.2265 -1.4115  0.5276
   28DOPE  H15Y 3602   7.777   6.626  14.627 -0.8071 -0.8085 -0.3320
   28DOPE  C316 3603   7.656   6.727  14.481  0.0325 -0.2631  0.2386
   28DOPE  H16X 3604   7.588   6.815  14.474 -0.5434 -0.7356 -0.1793
   28DOPE  H16Y 3605   7.587   6.640  14.478  0.4239 -0.6879  2.1664
   28DOPE  C317 3606   7.736   6.728  14.350 -0.2654 -0.0164  0.0581
   28DOPE  H17X 3607   7.777   6.829  14.330 -1.3549  0.5062  0.3773
   28DOPE  H17Y 3608   7.817   6.653  14.363 -0.4901 -0.2441  0.1663
   28DOPE  C318 3609   7.641   6.692  14.237  0.2838 -0.1425  0.5144
   28DOPE  H18X 3610   7.681   6.716  14.136 -0.7016  1.7664  0.5270
   28DOPE  H18Y 3611   7.610   6.586  14.237  1.4358 -0.4920  0.8500
   28DOPE  H18Z 3612   7.556   6.763  14.244  0.8532  0.7618 -1.1409
   29DOPE     N 3613   9.209   1.156  16.186  0.0862 -0.6961 -0.7375
   29DOPE   HN1 3614   9.237   1.220  16.109 -2.3118  1.6412  0.1943
   29DOPE   HN2 3615   9.268   1.176  16.269 -1.4247  2.7300 -0.3461
   29DOPE   HN3 3616   9.236   1.059  16.159 -0.0373 -1.2996  1.1461
   29DOPE   C12 3617   9.062   1.184  16.208 -0.0095  0.4064 -0.5703
   29DOPE  H12A 3618   9.055   1.292  16.232 -1.9738  0.2606 -0.2774
   29DOPE  H12B 3619   9.028   1.133  16.301  2.2130  0.1142  0.1454
   29DOPE   C11 3620   8.963   1.153  16.085 -0.0770  0.3292 -0.3336
   29DOPE  H11A 3621   9.007   1.198  15.993 -0.3133 -2.8110 -2.1255
   29DOPE  H11B 3622   8.869   1.206  16.111  0.2913  0.1452  1.4487
   29DOPE     P 3623   8.867   0.910  16.125 -0.0811 -0.1590 -0.0276
   29DOPE   O13 3624   8.870   0.943  16.272 -0.2729 -0.7696 -0.0868
   29DOPE   O14 3625   8.891   0.770  16.089  0.5192  0.1072 -0.0372
   29DOPE   O11 3626   8.726   0.948  16.057 -0.6054  0.8285  0.3925
   29DOPE   O12 3627   8.961   1.010  16.053  0.2436 -0.1269  0.7943
   29DOPE    C1 3628   8.704   0.932  15.913 -0.3191  0.3396 -0.1525
   29DOPE    HA 3629   8.682   0.826  15.889  1.1819  0.2166 -1.1219
   29DOPE    HB 3630   8.792   0.960  15.850  0.1603  0.6624  0.6481
   29DOPE    C2 3631   8.601   1.038  15.861 -0.1027  0.3359  0.2409
   29DOPE    HS 3632   8.501   1.016  15.906 -1.8294 -0.9225 -3.7838
   29DOPE   O21 3633   8.588   1.044  15.720  0.0636 -0.1739 -0.3731
   29DOPE   C21 3634   8.525   0.936  15.674 -0.1247 -0.2755 -0.5627
   29DOPE   O22 3635   8.460   0.855  15.740  0.4186  0.1003 -0.4053
   29DOPE   C22 3636   8.559   0.911  15.530 -0.3332 -0.0726 -0.4777
   29DOPE   H2R 3637   8.519   0.814  15.493  1.5836 -0.5162 -1.5297
   29DOPE   H2S 3638   8.668   0.895  15.521 -0.1952  1.2967 -1.7101
   29DOPE    C3 3639   8.638   1.183  15.904 -0.6244 -0.7511 -0.5326
   29DOPE    HX 3640   8.739   1.200  15.862 -0.0071  3.2798  1.9535
   29DOPE    HY 3641   8.650   1.190  16.015  0.2571  0.0511 -0.6628
   29DOPE   O31 3642   8.547   1.283  15.861 -0.2537 -0.0504  0.2507
   29DOPE   C31 3643   8.427   1.284  15.906  0.3570  0.2126  0.7655
   29DOPE   O32 3644   8.386   1.213  16.001 -0.2611 -0.2009  0.1103
   29DOPE   C32 3645   8.348   1.380  15.819  0.5523  0.1357  0.2331
   29DOPE   H2X 3646   8.403   1.476  15.827  0.2393  0.3847 -0.5374
   29DOPE   H2Y 3647   8.361   1.356  15.712 -0.3018 -2.2583  0.6010
   29DOPE   C23 3648   8.503   1.023  15.428 -0.1677  0.4670 -0.4083
   29DOPE   H3R 3649   8.563   1.116  15.437 -2.9979  2.3776 -0.3324
   29DOPE   H3S 3650   8.396   1.039  15.452  0.1000  1.2851  0.3043
   29DOPE   C24 3651   8.516   0.963  15.283 -0.1815  0.5477 -0.0738
   29DOPE   H4R 3652   8.460   0.867  15.278 -0.0067  0.4726 -0.7784
   29DOPE   H4S 3653   8.623   0.940  15.263 -1.1634 -4.2980 -1.0701
   29DOPE   C25 3654   8.479   1.052  15.165 -0.3753 -0.8242  0.8202
   29DOPE   H5R 3655   8.369   1.067  15.179 -0.0963  0.4151  1.8576
   29DOPE   H5S 3656   8.494   0.992  15.073 -2.3249 -0.1728  0.0190
   29DOPE   C26 3657   8.552   1.191  15.172 -0.1096  0.4564  0.0100
   29DOPE   H6R 3658   8.658   1.157  15.174  0.4360  1.6608 -3.2841
   29DOPE   H6S 3659   8.514   1.247  15.259 -0.2798  0.7789 -0.2718
   29DOPE   C27 3660   8.540   1.272  15.039 -0.3082 -0.7492  0.5239
   29DOPE   H7R 3661   8.435   1.307  15.025 -0.0796  1.5133  3.3636
   29DOPE   H7S 3662   8.553   1.202  14.954  1.1266  0.7858 -0.5757
   29DOPE   C28 3663   8.640   1.391  15.034  0.2384  0.1753 -0.3637
   29DOPE   H8R 3664   8.663   1.403  14.926  0.2964 -1.2602 -0.5316
   29DOPE   H8S 3665   8.741   1.371  15.077 -0.2845 -0.3016  0.6873
   29DOPE   C29 3666   8.594   1.516  15.102 -0.4713  0.3374 -0.2543
   29DOPE   H9R 3667   8.572   1.521  15.210 -0.2219  0.3046 -0.1994
   29DOPE  C210 3668   8.580   1.634  15.043 -0.9242 -0.0738  0.3658
   29DOPE  H10R 3669   8.546   1.721  15.101 -0.2910  1.4713 -1.4675
   29DOPE  C211 3670   8.622   1.679  14.906  0.0756  0.1154 -0.2416
   29DOPE  H11R 3671   8.695   1.609  14.859  1.2504  1.4704 -0.5158
   29DOPE  H11S 3672   8.682   1.773  14.908  1.5632 -0.7131 -2.3960
   29DOPE  C212 3673   8.515   1.709  14.804  0.0602 -0.8161  0.8159
   29DOPE  H12R 3674   8.572   1.730  14.711 -0.0562 -1.9363  0.4719
   29DOPE  H12S 3675   8.449   1.794  14.832  0.5466  0.5665 -1.8497
   29DOPE  C213 3676   8.425   1.597  14.758  0.6254  0.8747 -0.3391
   29DOPE  H13R 3677   8.352   1.574  14.838  0.1547 -1.7282 -1.4079
   29DOPE  H13S 3678   8.484   1.503  14.752  0.1912  0.4985  1.0199
   29DOPE  C214 3679   8.345   1.619  14.629  0.4377 -0.7647  0.1488
   29DOPE  H14R 3680   8.418   1.636  14.547  2.3440  0.1495  1.9377
   29DOPE  H14S 3681   8.296   1.717  14.647 -0.7402 -1.3400  0.1518
   29DOPE  C215 3682   8.245   1.508  14.606 -0.6980 -0.2181  0.4645
   29DOPE  H15R 3683   8.170   1.504  14.688 -0.2610 -0.4583  0.8615
   29DOPE  H15S 3684   8.302   1.412  14.608  0.2788  0.1741 -3.0655
   29DOPE  C216 3685   8.171   1.525  14.473  0.9357 -0.3549  0.6763
   29DOPE  H16R 3686   8.239   1.510  14.387 -1.1740  0.2286 -1.1797
   29DOPE  H16S 3687   8.135   1.630  14.464  1.6958 -0.1827 -0.4102
   29DOPE  C217 3688   8.043   1.434  14.441  0.1069 -0.8004 -0.2910
   29DOPE  H17R 3689   8.018   1.451  14.335 -2.6121  0.7978  0.5135
   29DOPE  H17S 3690   7.957   1.477  14.497  2.0299  3.1177  0.0276
   29DOPE  C218 3691   8.057   1.292  14.478  0.6469  0.5661  0.7016
   29DOPE  H18R 3692   7.985   1.216  14.440  0.4380  0.8532  0.5219
   29DOPE  H18S 3693   8.060   1.289  14.589 -1.1156 -0.8991  0.7514
   29DOPE  H18T 3694   8.151   1.248  14.437  0.3108 -1.8045  2.2821
   29DOPE   C33 3695   8.197   1.392  15.841  0.9993  0.5253 -0.3277
   29DOPE   H3X 3696   8.158   1.465  15.767 -2.4256 -0.3853  0.4006
   29DOPE   H3Y 3697   8.169   1.437  15.938  2.5595 -0.5086  0.6438
   29DOPE   C34 3698   8.112   1.268  15.820  0.4462 -0.3758  0.4774
   29DOPE   H4X 3699   8.091   1.250  15.712  0.9424  0.5413  0.2178
   29DOPE   H4Y 3700   8.169   1.184  15.865  1.5812  0.5073  0.7392
   29DOPE   C35 3701   7.978   1.278  15.897  0.0118 -0.1495 -0.3496
   29DOPE   H5X 3702   7.902   1.332  15.837 -0.8050 -0.8249  0.0675
   29DOPE   H5Y 3703   7.997   1.333  15.992  0.3788  0.0735 -0.5498
   29DOPE   C36 3704   7.931   1.140  15.938  0.1051  0.4222 -0.2403
   29DOPE   H6X 3705   7.831   1.153  15.984 -0.0068  0.6432 -0.5406
   29DOPE   H6Y 3706   8.000   1.097  16.013  0.6708  1.3390 -0.2203
   29DOPE   C37 3707   7.922   1.039  15.822 -0.8159 -0.4276 -0.5149
   29DOPE   H7X 3708   7.865   1.079  15.735 -0.8692  1.7325  0.4472
   29DOPE   H7Y 3709   8.023   1.006  15.789 -1.2434 -2.5281  0.1225
   29DOPE   C38 3710   7.855   0.908  15.871  0.0023 -0.0987 -0.1758
   29DOPE   H8X 3711   7.824   0.861  15.775 -0.8408 -0.2532  0.1576
   29DOPE   H8Y 3712   7.761   0.936  15.923  1.7563  3.1486  1.5689
   29DOPE   C39 3713   7.941   0.818  15.955  0.8944  0.3426 -0.4850
   29DOPE   H9X 3714   8.041   0.855  15.981  0.1365  0.3947  2.7742
   29DOPE  C310 3715   7.911   0.695  16.006 -0.3547 -0.3566 -0.1286
   29DOPE  H10X 3716   7.990   0.638  16.057 -0.7275 -0.9202 -0.1666
   29DOPE  C311 3717   7.771   0.636  16.000  0.7367 -1.1730  0.5531
   29DOPE  H11X 3718   7.735   0.599  16.098 -2.2427 -0.6211 -0.2301
   29DOPE  H11Y 3719   7.695   0.713  15.978 -0.4915 -2.8839 -1.6149
   29DOPE  C312 3720   7.746   0.519  15.899 -0.1669  0.1323 -0.0997
   29DOPE  H12X 3721   7.640   0.487  15.911 -1.1737  2.8362 -1.0550
   29DOPE  H12Y 3722   7.804   0.431  15.934  0.2061  0.2839 -0.3371
   29DOPE  C313 3723   7.779   0.561  15.759 -0.0870  0.0377  0.2768
   29DOPE  H13X 3724   7.720   0.649  15.727  1.3690  1.0993  0.4372
   29DOPE  H13Y 3725   7.886   0.588  15.748 -0.0491 -0.2482 -0.0758
   29DOPE  C314 3726   7.735   0.453  15.660  0.1754  0.5098  0.4112
   29DOPE  H14X 3727   7.760   0.486  15.557  0.5407  0.4922  0.4930
   29DOPE  H14Y 3728   7.624   0.455  15.657  0.1671  3.0574 -0.7125
   29DOPE  C315 3729   7.793   0.311  15.671 -0.1077 -0.9907  0.7112
   29DOPE  H15X 3730   7.765   0.276  15.772  0.2679  2.0588  2.0005
   29DOPE  H15Y 3731   7.904   0.313  15.668 -0.0937 -0.3573 -3.1640
   29DOPE  C316 3732   7.735   0.206  15.576  0.0571 -0.2971 -0.3995
   29DOPE  H16X 3733   7.753   0.242  15.472  2.5212  1.5209  0.5479
   29DOPE  H16Y 3734   7.625   0.205  15.594  0.2001 -4.1241  1.1268
   29DOPE  C317 3735   7.791   0.059  15.595 -0.2956  0.1491 -0.4415
   29DOPE  H17X 3736   7.901   0.054  15.577 -0.2560  0.2778 -0.2293
   29DOPE  H17Y 3737   7.776   0.035  15.702 -1.6524  0.6505 -0.5037
   29DOPE  C318 3738   7.720  -0.044  15.507 -0.0759 -0.0080  0.6499
   29DOPE  H18X 3739   7.757  -0.148  15.519  1.3020  0.6118  2.1016
   29DOPE  H18Y 3740   7.610  -0.045  15.528 -0.0043  0.2116  1.0559
   29DOPE  H18Z 3741   7.749  -0.024  15.402  1.1656 -0.8764  0.8158
   30DOPE     N 3742   8.713   7.876  16.300 -0.6365  0.1587  0.1529
   30DOPE   HN1 3743   8.790   7.890  16.369 -0.0450 -0.1156 -0.4446
   30DOPE   HN2 3744   8.681   7.778  16.318  1.4987 -0.6501 -0.1874
   30DOPE   HN3 3745   8.758   7.883  16.207  0.4783 -0.5256  0.6193
   30DOPE   C12 3746   8.589   7.952  16.321 -0.0905 -0.4464  0.2669
   30DOPE  H12A 3747   8.615   8.058  16.305 -0.7534 -0.2938  0.1644
   30DOPE  H12B 3748   8.551   7.936  16.424 -2.7552 -0.6294 -0.6710
   30DOPE   C11 3749   8.479   7.897  16.227  0.9261 -0.5998 -0.0554
   30DOPE  H11A 3750   8.518   7.880  16.124  0.8991 -0.8194 -0.0302
   30DOPE  H11B 3751   8.398   7.973  16.215 -0.5741 -1.8797  1.5192
   30DOPE     P 3752   8.331   7.691  16.181  0.0345 -0.1010  0.0683
   30DOPE   O13 3753   8.196   7.676  16.245  0.0067 -0.9998 -0.2221
   30DOPE   O14 3754   8.391   7.564  16.131 -0.6474 -0.2607 -0.3325
   30DOPE   O11 3755   8.315   7.783  16.053  0.5299  0.2313 -0.5197
   30DOPE   O12 3756   8.427   7.773  16.277 -0.2077  0.5017 -0.0685
   30DOPE    C1 3757   8.207   7.887  16.057 -1.1200  0.2326 -0.4548
   30DOPE    HA 3758   8.241   7.970  15.992 -0.3317  0.2414 -0.0409
   30DOPE    HB 3759   8.192   7.942  16.152  0.8443  0.2080 -0.0930
   30DOPE    C2 3760   8.072   7.835  15.992 -0.0261  0.3050 -0.2850
   30DOPE    HS 3761   8.034   7.749  16.050  1.6961  1.0319  2.0751
   30DOPE   O21 3762   8.116   7.806  15.853  0.1545  0.2449  0.0177
   30DOPE   C21 3763   8.039   7.726  15.788 -0.2330  0.2114  0.5486
   30DOPE   O22 3764   7.930   7.682  15.826 -0.4626 -0.3069 -0.5997
   30DOPE   C22 3765   8.093   7.711  15.643  0.0350  1.0034  0.0106
   30DOPE   H2R 3766   8.194   7.663  15.647 -0.9342 -1.1989 -0.3086
   30DOPE   H2S 3767   8.090   7.815  15.604 -0.8551  0.7360 -0.6491
   30DOPE    C3 3768   7.960   7.939  15.999  0.2724 -0.1998  0.7253
   30DOPE    HX 3769   7.944   7.974  16.103 -0.7269 -0.9213  0.8301
   30DOPE    HY 3770   7.863   7.894  15.969 -0.3402  2.0307 -0.9244
   30DOPE   O31 3771   8.001   8.061  15.924  0.0515  0.5180  0.0037
   30DOPE   C31 3772   7.974   8.061  15.799  0.5659 -0.3604  0.0084
   30DOPE   O32 3773   7.889   7.995  15.745  0.4611  0.2721  0.0706
   30DOPE   C32 3774   8.064   8.172  15.729  0.3536 -0.2680 -0.4916
   30DOPE   H2X 3775   8.041   8.265  15.785  1.2140 -0.6472  0.5476
   30DOPE   H2Y 3776   8.172   8.151  15.747  0.3531 -0.2034 -0.4138
   30DOPE   C23 3777   7.990   7.632  15.563 -0.0375  0.2180 -0.2268
   30DOPE   H3R 3778   7.892   7.685  15.556 -0.0970  0.1423  0.0499
   30DOPE   H3S 3779   7.967   7.538  15.617 -2.4846  0.9613  0.1520
   30DOPE   C24 3780   8.043   7.615  15.416  0.1826  0.2235 -0.3546
   30DOPE   H4R 3781   8.040   7.709  15.357 -0.3659 -0.4114 -1.3786
   30DOPE   H4S 3782   7.965   7.553  15.366  0.2163  1.8144 -2.5062
   30DOPE   C25 3783   8.178   7.540  15.405 -0.5336  0.7188  0.2256
   30DOPE   H5R 3784   8.263   7.599  15.446  2.1857 -2.2253 -0.7250
   30DOPE   H5S 3785   8.193   7.534  15.295 -2.8185  2.2710 -0.2542
   30DOPE   C26 3786   8.176   7.394  15.453 -0.1397 -0.3902 -0.4804
   30DOPE   H6R 3787   8.091   7.345  15.401  0.6783 -1.6160 -0.6884
   30DOPE   H6S 3788   8.164   7.381  15.562 -0.6523 -1.7494 -0.6794
   30DOPE   C27 3789   8.303   7.328  15.421 -0.2130  0.2043  0.1366
   30DOPE   H7R 3790   8.352   7.311  15.519 -1.9704  0.3008  1.0705
   30DOPE   H7S 3791   8.361   7.368  15.335  0.6349 -0.0872  0.5578
   30DOPE   C28 3792   8.283   7.185  15.374 -0.7024 -0.1608 -0.5891
   30DOPE   H8R 3793   8.387   7.154  15.351 -0.3115  0.2909  0.5131
   30DOPE   H8S 3794   8.238   7.178  15.273  1.3875  2.2133 -1.7988
   30DOPE   C29 3795   8.219   7.092  15.478 -0.0383 -0.4906  0.3033
   30DOPE   H9R 3796   8.190   7.146  15.569  0.4029 -0.3227  0.3474
   30DOPE  C210 3797   8.205   6.965  15.460  0.3289  0.1436  0.3037
   30DOPE  H10R 3798   8.149   6.902  15.530 -2.2310  0.9187 -0.9041
   30DOPE  C211 3799   8.246   6.873  15.348 -0.8907 -0.2321 -0.1469
   30DOPE  H11R 3800   8.321   6.795  15.375  1.0518  2.0697  1.5717
   30DOPE  H11S 3801   8.296   6.933  15.269 -1.1945 -1.4500 -1.2976
   30DOPE  C212 3802   8.156   6.792  15.262  0.8631 -0.2766  0.8582
   30DOPE  H12R 3803   8.211   6.762  15.170 -0.3662 -0.5356  0.1726
   30DOPE  H12S 3804   8.063   6.838  15.220  0.2034 -3.0117 -0.9454
   30DOPE  C213 3805   8.116   6.667  15.333 -0.0271 -0.2911  0.1387
   30DOPE  H13R 3806   8.069   6.700  15.428  0.3818  0.5257  0.0663
   30DOPE  H13S 3807   8.206   6.606  15.356 -0.6477 -0.9442  0.9037
   30DOPE  C214 3808   8.013   6.572  15.264  0.6967  0.2203 -0.3653
   30DOPE  H14R 3809   7.917   6.626  15.253  0.6247  0.6761  2.0924
   30DOPE  H14S 3810   8.001   6.493  15.341  2.5988  1.6398  1.4990
   30DOPE  C215 3811   8.080   6.514  15.139  0.7531  1.1497  0.3429
   30DOPE  H15R 3812   8.187   6.491  15.158  1.3340  2.4161 -1.1347
   30DOPE  H15S 3813   8.097   6.591  15.060 -0.5962  0.5804 -0.5326
   30DOPE  C216 3814   8.006   6.390  15.083  0.7319 -0.1476  0.0782
   30DOPE  H16R 3815   7.992   6.309  15.158  1.0169 -1.3977 -1.1752
   30DOPE  H16S 3816   8.075   6.340  15.012  0.4095  0.0099 -0.3530
   30DOPE  C217 3817   7.879   6.413  14.998  0.2516 -0.6432 -0.0097
   30DOPE  H17R 3818   7.804   6.461  15.065 -0.1374  0.4451 -1.1885
   30DOPE  H17S 3819   7.841   6.312  14.974 -1.1247 -0.7251  2.2125
   30DOPE  C218 3820   7.898   6.509  14.881 -0.0813 -0.1809 -0.3651
   30DOPE  H18R 3821   7.960   6.598  14.906  0.2155 -0.4854  0.0041
   30DOPE  H18S 3822   7.798   6.542  14.848  0.3611 -0.6513 -2.3198
   30DOPE  H18T 3823   7.946   6.459  14.794 -2.2009 -2.2937 -0.4334
   30DOPE   C33 3824   8.037   8.201  15.576 -0.2097 -0.2477  0.2935
   30DOPE   H3X 3825   7.929   8.227  15.569 -0.0170  1.0911  1.9338
   30DOPE   H3Y 3826   8.055   8.105  15.522  2.0732  0.1332  0.2932
   30DOPE   C34 3827   8.118   8.323  15.530  0.3250  0.0466  0.4539
   30DOPE   H4X 3828   8.081   8.362  15.433 -1.8062 -1.0125  0.7901
   30DOPE   H4Y 3829   8.099   8.402  15.605  0.1493 -1.1775  1.7285
   30DOPE   C35 3830   8.269   8.289  15.524  0.6330  0.3144 -0.1916
   30DOPE   H5X 3831   8.272   8.184  15.488 -3.5630 -1.1180  2.7640
   30DOPE   H5Y 3832   8.312   8.282  15.626  0.5093  1.0339 -0.0850
   30DOPE   C36 3833   8.337   8.394  15.436  0.5035  0.2680 -0.7985
   30DOPE   H6X 3834   8.339   8.492  15.489  0.9431 -0.8004  1.2592
   30DOPE   H6Y 3835   8.295   8.409  15.334  5.0819  1.3770 -2.7843
   30DOPE   C37 3836   8.484   8.369  15.411  0.0253 -0.0953 -0.0683
   30DOPE   H7X 3837   8.536   8.446  15.350  0.8793 -0.0298  0.7181
   30DOPE   H7Y 3838   8.540   8.352  15.506  0.3060  0.6146 -0.0973
   30DOPE   C38 3839   8.492   8.238  15.332 -0.4567  0.0407  0.2853
   30DOPE   H8X 3840   8.445   8.147  15.373 -1.3194  0.4723  0.2692
   30DOPE   H8Y 3841   8.598   8.206  15.337 -0.0740  1.2933  0.9624
   30DOPE   C39 3842   8.446   8.261  15.184 -0.0201 -0.4252  0.3973
   30DOPE   H9X 3843   8.341   8.295  15.179  0.4320  0.9865  0.0625
   30DOPE  C310 3844   8.514   8.234  15.074 -0.8611 -0.1286 -0.0616
   30DOPE  H10X 3845   8.471   8.277  14.982  0.9257  3.1826  0.5129
   30DOPE  C311 3846   8.657   8.175  15.065 -0.2624  0.3657  0.5648
   30DOPE  H11X 3847   8.728   8.220  15.138  1.3371 -0.0155 -0.7132
   30DOPE  H11Y 3848   8.655   8.066  15.085  1.4586  0.3404  0.7297
   30DOPE  C312 3849   8.721   8.189  14.923  0.3630  0.1093  0.4814
   30DOPE  H12X 3850   8.658   8.118  14.866  2.9063 -3.0094  1.2308
   30DOPE  H12Y 3851   8.818   8.133  14.917  0.7546  0.5383  2.1216
   30DOPE  C313 3852   8.739   8.330  14.860 -0.3138 -1.1574 -0.0577
   30DOPE  H13X 3853   8.637   8.372  14.849  0.8498  1.6638 -0.7922
   30DOPE  H13Y 3854   8.790   8.392  14.937  0.7365 -2.0159 -0.0373
   30DOPE  C314 3855   8.832   8.339  14.737  0.7859 -0.3286 -0.5421
   30DOPE  H14X 3856   8.931   8.314  14.782  0.5179  3.7186  2.8427
   30DOPE  H14Y 3857   8.838   8.443  14.700  0.3820 -0.3871 -0.7791
   30DOPE  C315 3858   8.805   8.251  14.614  0.0185  0.2928  0.3515
   30DOPE  H15X 3859   8.703   8.267  14.573 -0.2918  0.7574  1.2913
   30DOPE  H15Y 3860   8.809   8.145  14.646 -0.3020 -0.2893 -1.4120
   30DOPE  C316 3861   8.910   8.255  14.507  0.4033 -0.0377  0.0436
   30DOPE  H16X 3862   8.927   8.358  14.468  0.8274 -0.6498 -1.4637
   30DOPE  H16Y 3863   8.877   8.199  14.418 -1.6683  1.0979  0.0297
   30DOPE  C317 3864   9.050   8.211  14.553  0.5869 -0.4023  0.6540
   30DOPE  H17X 3865   9.100   8.292  14.611 -0.4663  0.9354 -0.2188
   30DOPE  H17Y 3866   9.033   8.122  14.616  1.6525 -0.6907  0.5555
   30DOPE  C318 3867   9.127   8.173  14.425 -0.4301 -0.9148  0.3618
   30DOPE  H18X 3868   9.232   8.154  14.455  0.5711  0.0022 -2.2147
   30DOPE  H18Y 3869   9.080   8.091  14.366  1.1522 -0.8846 -1.0349
   30DOPE  H18Z 3870   9.131   8.262  14.358 -1.8394  0.6057  2.1850
   31DOPE     N 3871   2.676   3.383  13.096 -0.6873 -0.0386  0.4633
   31DOPE   HN1 3872   2.585   3.363  13.049  0.2033  1.0860 -1.8617
   31DOPE   HN2 3873   2.696   3.302  13.159  2.3473  0.6828  0.5551
   31DOPE   HN3 3874   2.668   3.467  13.156  0.8363 -1.0857  2.2465
   31DOPE   C12 3875   2.789   3.388  12.999  0.1715  0.2094 -0.3088
   31DOPE  H12A 3876   2.771   3.486  12.949 -2.2123 -0.2735 -0.5655
   31DOPE  H12B 3877   2.782   3.302  12.929  1.4776 -0.0139 -0.1893
   31DOPE   C11 3878   2.929   3.385  13.063  0.1890 -0.2343 -0.2771
   31DOPE  H11A 3879   2.944   3.478  13.122  2.4257  0.2419 -1.4706
   31DOPE  H11B 3880   2.996   3.398  12.975  1.5976 -2.2758  0.4310
   31DOPE     P 3881   3.053   3.246  13.246  0.2293 -0.3737 -0.0190
   31DOPE   O13 3882   3.174   3.325  13.225 -0.1035  0.3151  0.4020
   31DOPE   O14 3883   3.071   3.102  13.262 -0.5127  0.1322 -0.1718
   31DOPE   O11 3884   2.978   3.306  13.373 -0.4049 -0.0113 -0.8148
   31DOPE   O12 3885   2.953   3.261  13.129  0.0606 -0.0882  0.2120
   31DOPE    C1 3886   2.934   3.441  13.377 -0.6720  0.0264 -0.7707
   31DOPE    HA 3887   2.823   3.446  13.367 -0.9536 -0.5160  1.5357
   31DOPE    HB 3888   2.984   3.511  13.307  1.0227 -0.8902 -0.5207
   31DOPE    C2 3889   2.971   3.506  13.520  0.0155  0.0273  0.4325
   31DOPE    HS 3890   2.933   3.611  13.522  1.2072  0.4664  0.6111
   31DOPE   O21 3891   3.116   3.506  13.537 -0.3409 -0.7429  0.5543
   31DOPE   C21 3892   3.191   3.603  13.476 -0.0303 -0.4039 -0.0262
   31DOPE   O22 3893   3.139   3.692  13.401 -0.6712  0.5614 -0.2555
   31DOPE   C22 3894   3.334   3.590  13.512 -0.2946 -0.1023  0.4523
   31DOPE   H2R 3895   3.385   3.528  13.436 -2.0499 -1.3638  0.2455
   31DOPE   H2S 3896   3.341   3.529  13.605 -2.4913  0.3402  0.9879
   31DOPE    C3 3897   2.908   3.430  13.637  0.4678  0.1826 -0.8221
   31DOPE    HX 3898   2.964   3.334  13.645 -0.7147 -0.3634  2.1520
   31DOPE    HY 3899   2.810   3.402  13.592 -0.2303  1.6364 -0.2489
   31DOPE   O31 3900   2.911   3.512  13.753 -0.0101  0.2877  0.4217
   31DOPE   C31 3901   2.797   3.569  13.794  0.4364  1.0326 -0.1623
   31DOPE   O32 3902   2.686   3.548  13.748  0.5485 -0.6233 -0.3000
   31DOPE   C32 3903   2.832   3.658  13.910 -0.4558 -0.1282  0.6619
   31DOPE   H2X 3904   2.882   3.593  13.985  0.6556  1.3634  1.2490
   31DOPE   H2Y 3905   2.909   3.726  13.868 -0.0579 -0.0812  1.4470
   31DOPE   C23 3906   3.399   3.725  13.535 -0.3606  0.1516 -0.3087
   31DOPE   H3R 3907   3.398   3.782  13.440  1.8142  0.1604 -0.3676
   31DOPE   H3S 3908   3.508   3.714  13.548 -0.7476 -0.5365  3.6157
   31DOPE   C24 3909   3.336   3.806  13.651 -0.2777 -0.4640  0.8750
   31DOPE   H4R 3910   3.239   3.853  13.623  0.4872 -1.0625 -3.5315
   31DOPE   H4S 3911   3.403   3.891  13.676 -1.3885  1.5620 -2.3799
   31DOPE   C25 3912   3.323   3.723  13.783 -1.0240  0.6989  0.2461
   31DOPE   H5R 3913   3.421   3.676  13.803 -1.7860 -1.5394 -0.9472
   31DOPE   H5S 3914   3.252   3.638  13.769  0.4059 -0.0820 -3.1319
   31DOPE   C26 3915   3.278   3.814  13.896 -0.6098  0.5965 -0.3091
   31DOPE   H6R 3916   3.186   3.866  13.862 -0.2694  1.4225  0.0188
   31DOPE   H6S 3917   3.358   3.889  13.916  0.5423 -0.4543 -0.8239
   31DOPE   C27 3918   3.243   3.742  14.027 -0.2095  0.8168  0.2911
   31DOPE   H7R 3919   3.334   3.680  14.041 -0.6224 -0.2363 -1.4351
   31DOPE   H7S 3920   3.168   3.662  14.007  1.8294 -0.6393 -1.9768
   31DOPE   C28 3921   3.202   3.844  14.141 -0.3102  0.5390  0.1932
   31DOPE   H8R 3922   3.107   3.896  14.119  0.2007  0.7753 -1.5461
   31DOPE   H8S 3923   3.291   3.909  14.154 -0.3063 -0.0129  4.2763
   31DOPE   C29 3924   3.188   3.772  14.274 -0.5487 -0.2984  0.3448
   31DOPE   H9R 3925   3.279   3.722  14.311 -0.1548 -0.3365 -0.6334
   31DOPE  C210 3926   3.087   3.769  14.360  0.6230  0.5332  0.5928
   31DOPE  H10R 3927   3.100   3.719  14.457 -0.1343 -0.3305  0.2633
   31DOPE  C211 3928   2.954   3.840  14.342  0.1808 -0.1669  0.0202
   31DOPE  H11R 3929   2.948   3.898  14.248  0.9947  0.4115  0.3101
   31DOPE  H11S 3930   2.932   3.925  14.410  0.7433  0.4155 -0.5152
   31DOPE  C212 3931   2.839   3.736  14.345 -0.1867 -0.1553 -0.2433
   31DOPE  H12R 3932   2.873   3.648  14.285  4.0637 -0.6822  2.4965
   31DOPE  H12S 3933   2.748   3.785  14.305 -0.8027 -0.2971  0.9327
   31DOPE  C213 3934   2.815   3.668  14.486 -0.0682 -0.5023 -0.2408
   31DOPE  H13R 3935   2.764   3.726  14.565  2.8063  1.2280  0.4793
   31DOPE  H13S 3936   2.911   3.657  14.541  0.3358  0.2125 -0.7954
   31DOPE  C214 3937   2.740   3.540  14.464  0.8625 -0.0038  0.1791
   31DOPE  H14R 3938   2.811   3.463  14.426  2.2889  0.8038  1.0956
   31DOPE  H14S 3939   2.666   3.549  14.382  0.5428 -0.8193  0.3614
   31DOPE  C215 3940   2.673   3.477  14.587 -0.0712 -0.6778  0.7123
   31DOPE  H15R 3941   2.750   3.478  14.667 -0.4434 -0.6462  1.0718
   31DOPE  H15S 3942   2.637   3.373  14.574  2.1975 -1.5146  0.5764
   31DOPE  C216 3943   2.554   3.561  14.645  0.6007  0.2748 -1.0750
   31DOPE  H16R 3944   2.514   3.632  14.570  1.6485  2.1601  0.0652
   31DOPE  H16S 3945   2.598   3.627  14.722  2.5260 -1.1491 -0.8794
   31DOPE  C217 3946   2.428   3.487  14.708 -0.5406 -0.1090  0.8051
   31DOPE  H17R 3947   2.475   3.397  14.753  0.9396 -0.3774 -1.1243
   31DOPE  H17S 3948   2.372   3.442  14.624 -0.5009 -0.6210  1.0438
   31DOPE  C218 3949   2.353   3.573  14.811  0.0288  0.2415 -0.1769
   31DOPE  H18R 3950   2.252   3.529  14.825 -0.1531  0.2026 -1.5221
   31DOPE  H18S 3951   2.337   3.677  14.775  2.4506  0.6691 -0.1661
   31DOPE  H18T 3952   2.402   3.577  14.911  0.2832  2.0367 -0.3480
   31DOPE   C33 3953   2.714   3.746  13.964  0.5065 -0.1518  1.0329
   31DOPE   H3X 3954   2.653   3.796  13.886 -1.2376 -2.5515  0.7691
   31DOPE   H3Y 3955   2.758   3.826  14.027 -0.9183 -0.8947  3.0701
   31DOPE   C34 3956   2.623   3.665  14.041 -0.0539  0.5134  0.4819
   31DOPE   H4X 3957   2.580   3.586  13.976  2.1853 -0.0615 -0.3905
   31DOPE   H4Y 3958   2.681   3.617  14.122 -0.1851  1.8870  1.4121
   31DOPE   C35 3959   2.511   3.735  14.116 -0.1106  0.2419 -0.1022
   31DOPE   H5X 3960   2.447   3.771  14.032 -0.7020  0.0272  0.2590
   31DOPE   H5Y 3961   2.549   3.822  14.175 -0.7245 -0.7988  1.8973
   31DOPE   C36 3962   2.426   3.655  14.213  0.0379 -0.7259 -0.2047
   31DOPE   H6X 3963   2.496   3.619  14.291  2.1347  1.2016 -1.0977
   31DOPE   H6Y 3964   2.376   3.569  14.162 -1.0199  0.6826 -1.6322
   31DOPE   C37 3965   2.322   3.738  14.291  0.2785 -0.1446  0.4994
   31DOPE   H7X 3966   2.377   3.805  14.360 -1.1887  1.7105 -0.0145
   31DOPE   H7Y 3967   2.244   3.792  14.232 -2.5791  0.3610  4.3264
   31DOPE   C38 3968   2.242   3.646  14.383 -0.5103  0.2337 -1.1049
   31DOPE   H8X 3969   2.318   3.584  14.436  0.5108  1.2320 -1.3629
   31DOPE   H8Y 3970   2.167   3.585  14.329 -2.1189  1.6259 -0.5386
   31DOPE   C39 3971   2.187   3.709  14.511 -0.4566  0.5361 -0.0974
   31DOPE   H9X 3972   2.243   3.797  14.545 -0.8055  0.8883 -0.4189
   31DOPE  C310 3973   2.089   3.657  14.590 -0.0724  0.4764  0.1787
   31DOPE  H10X 3974   2.068   3.719  14.679  1.9607 -0.1306  1.1539
   31DOPE  C311 3975   2.005   3.535  14.587 -0.1816 -0.3117  0.2488
   31DOPE  H11X 3976   1.905   3.585  14.582  0.4278  0.8837 -0.7825
   31DOPE  H11Y 3977   2.028   3.478  14.494  2.4315  2.4415 -0.9510
   31DOPE  C312 3978   2.016   3.444  14.715 -0.3164  0.0817  0.1906
   31DOPE  H12X 3979   2.117   3.398  14.721 -0.2855 -0.1493 -1.4353
   31DOPE  H12Y 3980   1.948   3.356  14.709  1.0116 -0.9956  0.2408
   31DOPE  C313 3981   1.975   3.501  14.850  0.4267 -0.0683 -0.1505
   31DOPE  H13X 3982   2.017   3.603  14.863 -2.0424  0.8549  1.1630
   31DOPE  H13Y 3983   1.866   3.521  14.853  0.4487  0.1715 -0.7766
   31DOPE  C314 3984   2.018   3.409  14.967 -0.3383 -0.5878 -0.2849
   31DOPE  H14X 3985   1.986   3.471  15.054  0.2091 -1.8084  0.8265
   31DOPE  H14Y 3986   2.126   3.392  14.984 -0.4065  0.4016  1.3908
   31DOPE  C315 3987   1.954   3.269  14.960  0.4731  0.0412  0.1029
   31DOPE  H15X 3988   1.992   3.213  14.872 -0.2300 -0.7534  0.2904
   31DOPE  H15Y 3989   1.848   3.286  14.934  0.4974 -0.9076 -0.6599
   31DOPE  C316 3990   1.960   3.186  15.088  0.1886 -0.3679  0.8872
   31DOPE  H16X 3991   1.891   3.219  15.169 -0.6864  2.1994 -0.7608
   31DOPE  H16Y 3992   2.064   3.192  15.126  0.6831  0.0705 -0.4658
   31DOPE  C317 3993   1.927   3.035  15.059 -0.3757 -1.2419 -0.0377
   31DOPE  H17X 3994   2.001   3.010  14.980  0.3009  0.3202  0.0579
   31DOPE  H17Y 3995   1.955   2.982  15.153 -0.6348  0.4464  1.0294
   31DOPE  C318 3996   1.779   3.023  15.031  0.1148  0.1915 -0.0381
   31DOPE  H18X 3997   1.710   3.061  15.109 -0.5256 -0.1269 -0.4367
   31DOPE  H18Y 3998   1.748   3.083  14.943 -2.5551  0.6629  1.1140
   31DOPE  H18Z 3999   1.743   2.921  15.004  1.3769  0.2117 -1.9704
   32DOPE     N 4000   5.468   4.934  13.361  0.2116  0.2928  0.8257
   32DOPE   HN1 4001   5.421   4.949  13.269  1.2832 -0.7316  0.0720
   32DOPE   HN2 4002   5.399   4.925  13.438 -0.7155 -1.7899 -0.1457
   32DOPE   HN3 4003   5.528   5.017  13.382 -0.6655  0.5355  2.4647
   32DOPE   C12 4004   5.546   4.806  13.363  0.4453 -0.2991  0.4848
   32DOPE  H12A 4005   5.546   4.772  13.469  2.4155  4.0041  2.0924
   32DOPE  H12B 4006   5.650   4.817  13.325  0.3493 -2.0051 -0.3700
   32DOPE   C11 4007   5.457   4.701  13.295 -0.8786  0.6347 -0.0352
   32DOPE  H11A 4008   5.524   4.617  13.324 -0.0796  1.1784 -0.2964
   32DOPE  H11B 4009   5.464   4.701  13.184  0.0684 -3.1236 -0.1210
   32DOPE     P 4010   5.258   4.541  13.366  0.3941  0.0185 -0.2054
   32DOPE   O13 4011   5.357   4.448  13.431  0.4813 -0.2542 -0.2726
   32DOPE   O14 4012   5.206   4.508  13.230  0.0898  0.2249 -0.6144
   32DOPE   O11 4013   5.138   4.566  13.466  0.6385  0.5203  0.1016
   32DOPE   O12 4014   5.325   4.685  13.355 -0.5438  0.4869 -0.7048
   32DOPE    C1 4015   5.124   4.685  13.533  0.6061 -0.0049  0.5600
   32DOPE    HA 4016   5.015   4.706  13.547  0.7776  1.5189 -0.1179
   32DOPE    HB 4017   5.169   4.771  13.479  2.3839 -1.5333 -0.4886
   32DOPE    C2 4018   5.178   4.683  13.679 -0.2937  0.0673  0.3286
   32DOPE    HS 4019   5.289   4.690  13.679 -0.2589  0.1069 -1.4399
   32DOPE   O21 4020   5.136   4.553  13.728 -0.1395 -0.4366  0.4342
   32DOPE   C21 4021   5.213   4.499  13.815 -0.0149 -0.2278 -0.0185
   32DOPE   O22 4022   5.326   4.536  13.843  0.4300  0.4658 -0.4697
   32DOPE   C22 4023   5.140   4.379  13.878  0.9842 -0.5045 -0.0313
   32DOPE   H2R 4024   5.129   4.304  13.797  1.7062 -2.1449  1.3384
   32DOPE   H2S 4025   5.038   4.416  13.905  0.6273 -1.5432  0.1040
   32DOPE    C3 4026   5.112   4.792  13.773  0.1670 -0.1711  0.3523
   32DOPE    HX 4027   5.002   4.777  13.774  0.1872 -0.2980  0.8892
   32DOPE    HY 4028   5.120   4.894  13.728 -1.4799 -1.0169 -2.0671
   32DOPE   O31 4029   5.154   4.771  13.910  0.8714  0.0174 -0.1419
   32DOPE   C31 4030   5.257   4.848  13.948  0.7398  0.2682  0.0942
   32DOPE   O32 4031   5.292   4.939  13.884  0.0309  0.3834  0.6797
   32DOPE   C32 4032   5.308   4.799  14.078  0.6517 -0.6330 -0.7180
   32DOPE   H2X 4033   5.270   4.859  14.163  0.8459 -1.0493 -0.3359
   32DOPE   H2Y 4034   5.277   4.694  14.095  0.4093 -0.5219 -0.4665
   32DOPE   C23 4035   5.207   4.322  14.004 -0.6502  0.8517 -0.6603
   32DOPE   H3R 4036   5.203   4.403  14.079  1.4017  1.4816 -1.1777
   32DOPE   H3S 4037   5.312   4.296  13.976 -0.6276 -0.5736  0.6036
   32DOPE   C24 4038   5.135   4.201  14.054 -0.6103 -0.3167 -0.1083
   32DOPE   H4R 4039   5.112   4.151  13.958 -1.0384  0.2651 -0.3080
   32DOPE   H4S 4040   5.042   4.233  14.106  0.3607  0.0383  1.4856
   32DOPE   C25 4041   5.222   4.114  14.154  0.4820  0.1081 -0.2392
   32DOPE   H5R 4042   5.323   4.094  14.112  0.4709  1.5047 -0.9752
   32DOPE   H5S 4043   5.175   4.014  14.167  1.7377 -0.4081  0.5149
   32DOPE   C26 4044   5.245   4.185  14.288  0.4482  0.0827 -0.1834
   32DOPE   H6R 4045   5.153   4.212  14.345  1.6727  1.1719  1.3586
   32DOPE   H6S 4046   5.285   4.287  14.267 -1.1018  0.7412 -0.0585
   32DOPE   C27 4047   5.336   4.113  14.385  0.2778  0.8541  0.7763
   32DOPE   H7R 4048   5.440   4.116  14.346 -0.3440 -0.7300 -1.1715
   32DOPE   H7S 4049   5.304   4.007  14.389 -1.2249  1.2435 -0.1178
   32DOPE   C28 4050   5.346   4.156  14.534 -0.3346  0.1630 -0.5008
   32DOPE   H8R 4051   5.242   4.155  14.575 -0.1384 -2.4008  0.1335
   32DOPE   H8S 4052   5.380   4.261  14.523  0.7365 -0.0664  0.4422
   32DOPE   C29 4053   5.450   4.080  14.606 -0.9055  0.3222  0.2978
   32DOPE   H9R 4054   5.424   3.976  14.628  2.0162 -0.5460  0.1161
   32DOPE  C210 4055   5.568   4.126  14.657  0.2662 -0.7423 -0.5059
   32DOPE  H10R 4056   5.636   4.065  14.717 -0.0222  0.2963  0.9246
   32DOPE  C211 4057   5.619   4.272  14.636  0.1474 -0.5529 -1.0429
   32DOPE  H11R 4058   5.580   4.304  14.537  0.4689  2.2894 -0.3242
   32DOPE  H11S 4059   5.730   4.272  14.638  0.2113  1.2061  2.8689
   32DOPE  C212 4060   5.565   4.379  14.742  0.0138 -0.3309 -0.5593
   32DOPE  H12R 4061   5.457   4.364  14.762  0.0227  0.3690  0.0784
   32DOPE  H12S 4062   5.584   4.479  14.698 -0.2997 -0.1740 -0.3423
   32DOPE  C213 4063   5.649   4.359  14.876  0.0026  0.2647 -0.1807
   32DOPE  H13R 4064   5.754   4.382  14.849  0.0135  0.6996  0.2142
   32DOPE  H13S 4065   5.628   4.260  14.922  0.4364  0.2775  0.0469
   32DOPE  C214 4066   5.603   4.471  14.968  0.3828  0.0214  0.2900
   32DOPE  H14R 4067   5.619   4.570  14.919 -1.4775 -0.2349 -0.9116
   32DOPE  H14S 4068   5.671   4.466  15.056 -0.2627  0.5807  0.8297
   32DOPE  C215 4069   5.451   4.459  15.013 -0.1940  0.8368  0.8308
   32DOPE  H15R 4070   5.380   4.474  14.929 -0.1952  0.9240  0.8471
   32DOPE  H15S 4071   5.423   4.546  15.076  0.2048  1.2781  0.4024
   32DOPE  C216 4072   5.430   4.337  15.095  0.3464 -0.5226  0.1127
   32DOPE  H16R 4073   5.479   4.359  15.192 -0.1657 -0.4838  0.3642
   32DOPE  H16S 4074   5.474   4.246  15.048 -1.3866 -1.6313  0.5394
   32DOPE  C217 4075   5.281   4.312  15.133 -0.5038  0.4636  0.8417
   32DOPE  H17R 4076   5.237   4.385  15.204 -0.1759  1.5806 -0.0781
   32DOPE  H17S 4077   5.282   4.217  15.190  0.3454  0.4442  0.8078
   32DOPE  C218 4078   5.192   4.290  15.012  0.2568  0.5046 -0.7861
   32DOPE  H18R 4079   5.252   4.248  14.929  0.6774 -1.2253  0.3226
   32DOPE  H18S 4080   5.157   4.390  14.980  2.4344  0.8713 -2.2001
   32DOPE  H18T 4081   5.106   4.224  15.039  0.8442  0.0694  0.0765
   32DOPE   C33 4082   5.463   4.815  14.083  0.2538  0.9275 -0.1328
   32DOPE   H3X 4083   5.504   4.783  14.181  0.9410  0.0382 -0.6966
   32DOPE   H3Y 4084   5.507   4.914  14.057  2.7679 -0.0754  0.0304
   32DOPE   C34 4085   5.532   4.706  13.992 -0.1058  0.7266  0.7969
   32DOPE   H4X 4086   5.521   4.603  14.033  1.7074 -0.5187 -1.5930
   32DOPE   H4Y 4087   5.491   4.710  13.889  1.1810 -0.4482  0.1875
   32DOPE   C35 4088   5.681   4.725  13.983 -0.0533  0.3021 -0.8440
   32DOPE   H5X 4089   5.720   4.639  13.924 -0.3770 -1.2722  1.1362
   32DOPE   H5Y 4090   5.723   4.729  14.085  1.5558  1.4034 -1.5088
   32DOPE   C36 4091   5.722   4.852  13.915  0.2368 -0.0482 -0.1004
   32DOPE   H6X 4092   5.833   4.849  13.909  0.3669  0.7416  1.4481
   32DOPE   H6Y 4093   5.701   4.939  13.981  1.1732  2.4127 -2.8285
   32DOPE   C37 4094   5.658   4.870  13.775 -0.3074 -0.2371 -0.4641
   32DOPE   H7X 4095   5.647   4.772  13.724 -0.3849 -1.4885  1.8233
   32DOPE   H7Y 4096   5.552   4.904  13.786 -0.9088 -1.7211 -1.3662
   32DOPE   C38 4097   5.725   4.966  13.683  0.4460  0.8859 -0.3985
   32DOPE   H8X 4098   5.705   4.952  13.575  0.3621  0.1664 -0.2958
   32DOPE   H8Y 4099   5.835   4.950  13.693  0.4458  1.5226  0.9189
   32DOPE   C39 4100   5.688   5.109  13.721  0.0677 -0.1946  0.6277
   32DOPE   H9X 4101   5.582   5.133  13.704  0.7529  2.5817 -0.1383
   32DOPE  C310 4102   5.759   5.197  13.796 -0.6778  0.1762 -0.2476
   32DOPE  H10X 4103   5.735   5.303  13.815  1.4837  0.4655  1.3106
   32DOPE  C311 4104   5.891   5.163  13.843 -0.1330  0.1949 -0.1121
   32DOPE  H11X 4105   5.905   5.057  13.872  1.1573  0.4504  0.2834
   32DOPE  H11Y 4106   5.978   5.185  13.776  0.1000 -0.0388  0.1105
   32DOPE  C312 4107   5.920   5.244  13.972  0.0440  0.1690 -0.5414
   32DOPE  H12X 4108   5.850   5.220  14.054  0.5646 -1.3084 -0.5138
   32DOPE  H12Y 4109   5.910   5.354  13.956 -0.0811  0.2795  0.2615
   32DOPE  C313 4110   6.070   5.231  14.014 -0.2679 -0.8559  0.2617
   32DOPE  H13X 4111   6.089   5.121  14.021 -0.7268 -0.8785  1.4183
   32DOPE  H13Y 4112   6.133   5.274  13.933  0.3608 -1.4566  0.4127
   32DOPE  C314 4113   6.117   5.302  14.138  0.7406  0.0727 -0.4368
   32DOPE  H14X 4114   6.046   5.294  14.223  1.7975  2.7415  0.8329
   32DOPE  H14Y 4115   6.113   5.410  14.115 -0.6897  0.1247 -0.0122
   32DOPE  C315 4116   6.263   5.276  14.184  0.4675 -0.4890 -0.4970
   32DOPE  H15X 4117   6.339   5.285  14.103  2.7842 -0.5958  1.5424
   32DOPE  H15Y 4118   6.255   5.171  14.219 -2.1987 -0.4308 -0.7268
   32DOPE  C316 4119   6.299   5.372  14.299 -0.6347 -0.5259 -0.1395
   32DOPE  H16X 4120   6.223   5.370  14.380  0.9687  0.1930  1.4572
   32DOPE  H16Y 4121   6.302   5.481  14.277 -0.1752  0.1506  2.8596
   32DOPE  C317 4122   6.426   5.328  14.376 -0.5892 -0.0697  0.8590
   32DOPE  H17X 4123   6.405   5.231  14.426  0.0847 -1.8310 -2.0779
   32DOPE  H17Y 4124   6.497   5.308  14.293 -0.8929 -0.3055  0.6563
   32DOPE  C318 4125   6.481   5.430  14.469 -0.5689 -0.3402  0.4295
   32DOPE  H18X 4126   6.520   5.522  14.420  0.9860 -0.0922  2.0295
   32DOPE  H18Y 4127   6.401   5.448  14.544 -0.3050 -2.7545  1.3706
   32DOPE  H18Z 4128   6.559   5.379  14.529  0.9601  0.6602 -0.6212
   33DOPE     N 4129   4.482   2.870  13.420 -1.0881 -0.0586 -0.1064
   33DOPE   HN1 4130   4.460   2.776  13.458  1.9866 -0.7339  0.2280
   33DOPE   HN2 4131   4.450   2.866  13.321 -1.6579  0.0913  0.0680
   33DOPE   HN3 4132   4.584   2.890  13.422 -1.4293  1.8406  2.4383
   33DOPE   C12 4133   4.419   2.982  13.497  0.2832 -0.3880  0.4111
   33DOPE  H12A 4134   4.474   3.073  13.466  0.8668 -0.6286  0.7263
   33DOPE  H12B 4135   4.433   2.954  13.603 -0.3110  1.9840  1.1579
   33DOPE   C11 4136   4.263   2.995  13.470  0.0987  0.0432 -0.2402
   33DOPE  H11A 4137   4.223   3.088  13.515  1.0508  1.6419 -2.5172
   33DOPE  H11B 4138   4.206   2.914  13.520 -0.7740  1.0709  0.4780
   33DOPE     P 4139   4.244   3.134  13.249  0.1539 -0.4323 -0.1971
   33DOPE   O13 4140   4.177   3.111  13.120 -0.1145 -0.3494  0.1084
   33DOPE   O14 4141   4.383   3.179  13.250 -0.0846  0.2712 -0.2109
   33DOPE   O11 4142   4.154   3.230  13.331  0.4749 -0.1239 -0.0505
   33DOPE   O12 4143   4.235   3.002  13.335  0.2006 -0.0220 -0.2378
   33DOPE    C1 4144   4.009   3.206  13.329 -0.5665  0.1550 -0.3632
   33DOPE    HA 4145   3.987   3.098  13.337 -0.6653  0.1159 -1.1444
   33DOPE    HB 4146   3.962   3.225  13.230  0.1966 -1.4279 -1.0640
   33DOPE    C2 4147   3.925   3.290  13.425  0.3525  0.1250  0.2865
   33DOPE    HS 4148   3.934   3.396  13.393 -2.3556  0.7534  1.2963
   33DOPE   O21 4149   3.986   3.266  13.553 -0.2269 -0.2811  0.3513
   33DOPE   C21 4150   3.945   3.349  13.655  0.0261  0.1066  0.3645
   33DOPE   O22 4151   3.850   3.427  13.649  0.1858  0.4042  0.0888
   33DOPE   C22 4152   4.032   3.324  13.778 -0.0818 -0.5763  0.1408
   33DOPE   H2R 4153   4.137   3.321  13.741  0.1285  0.1313  0.6739
   33DOPE   H2S 4154   4.021   3.217  13.805  1.0724 -0.8272 -0.3301
   33DOPE    C3 4155   3.770   3.244  13.415 -0.2983 -0.5769  0.0281
   33DOPE    HX 4156   3.762   3.242  13.304  1.6452  3.2377 -0.3496
   33DOPE    HY 4157   3.711   3.326  13.461 -2.4055 -2.2729  0.4848
   33DOPE   O31 4158   3.739   3.120  13.486  0.1206  0.5368  0.1268
   33DOPE   C31 4159   3.692   3.019  13.417  0.2164  0.2165 -0.3816
   33DOPE   O32 4160   3.671   3.016  13.298 -0.0006  0.0087  0.1951
   33DOPE   C32 4161   3.648   2.908  13.515  0.4703 -0.3306  0.2203
   33DOPE   H2X 4162   3.593   2.964  13.594  1.3924 -0.0095  0.6473
   33DOPE   H2Y 4163   3.575   2.857  13.449  0.5356 -0.4674  0.2558
   33DOPE   C23 4164   4.012   3.428  13.891 -0.9541 -0.1369  0.4270
   33DOPE   H3R 4165   3.907   3.442  13.924 -1.8318 -0.1136 -2.1712
   33DOPE   H3S 4166   4.056   3.525  13.857 -1.7272  0.1954  0.3411
   33DOPE   C24 4167   4.080   3.384  14.020 -0.0168  0.4209 -0.3001
   33DOPE   H4R 4168   4.188   3.368  14.000  0.1417  1.6554 -0.5140
   33DOPE   H4S 4169   4.034   3.287  14.048  0.7562 -0.2569 -1.3148
   33DOPE   C25 4170   4.059   3.468  14.151  0.1951  0.2563 -0.2391
   33DOPE   H5R 4171   3.952   3.464  14.181  0.1749  0.0755 -0.3345
   33DOPE   H5S 4172   4.077   3.576  14.130 -0.6684  0.3182 -0.7244
   33DOPE   C26 4173   4.152   3.428  14.264 -0.4397  0.5693 -1.1730
   33DOPE   H6R 4174   4.255   3.445  14.229 -0.5176  1.6256 -0.9125
   33DOPE   H6S 4175   4.137   3.320  14.285 -0.6456  1.1548  2.3441
   33DOPE   C27 4176   4.140   3.509  14.396  0.4174  0.3406  0.0617
   33DOPE   H7R 4177   4.219   3.474  14.466  1.4261  1.1820 -0.6232
   33DOPE   H7S 4178   4.045   3.475  14.442  1.1138 -1.2772  0.3929
   33DOPE   C28 4179   4.138   3.658  14.381 -0.3385  0.1040 -0.8732
   33DOPE   H8R 4180   4.141   3.699  14.484  0.7897 -2.5731  0.2539
   33DOPE   H8S 4181   4.047   3.699  14.333 -2.6624  0.8081  3.6208
   33DOPE   C29 4182   4.261   3.718  14.313  0.4304 -0.0981  0.2364
   33DOPE   H9R 4183   4.256   3.724  14.203  0.9262 -2.3823  0.0284
   33DOPE  C210 4184   4.374   3.750  14.376  0.1156 -0.0077 -0.4720
   33DOPE  H10R 4185   4.458   3.791  14.318  0.7788 -0.4878  0.1354
   33DOPE  C211 4186   4.404   3.724  14.529 -0.3120 -0.4686  0.5317
   33DOPE  H11R 4187   4.509   3.698  14.552  0.2436  2.1032  1.2258
   33DOPE  H11S 4188   4.345   3.638  14.570 -1.8241  0.3126  0.0682
   33DOPE  C212 4189   4.372   3.846  14.618 -0.0348 -0.3938 -0.2688
   33DOPE  H12R 4190   4.398   3.804  14.718 -1.4979 -1.1672 -0.1820
   33DOPE  H12S 4191   4.264   3.870  14.623  0.1136  0.4925 -1.1619
   33DOPE  C213 4192   4.473   3.962  14.584 -0.4637 -0.1599 -0.1353
   33DOPE  H13R 4193   4.450   4.008  14.486 -0.3814  0.6243  0.2095
   33DOPE  H13S 4194   4.571   3.910  14.581 -1.5899 -2.4654  0.4456
   33DOPE  C214 4195   4.466   4.079  14.678  0.5379 -0.1749  0.3233
   33DOPE  H14R 4196   4.520   4.057  14.773  2.4005 -1.3706 -0.9534
   33DOPE  H14S 4197   4.360   4.111  14.687  0.4326  0.1078 -1.5548
   33DOPE  C215 4198   4.537   4.208  14.617 -0.0771  0.0917  0.5523
   33DOPE  H15R 4199   4.517   4.283  14.697 -2.0228  1.4052 -1.0554
   33DOPE  H15S 4200   4.480   4.230  14.524  1.2743 -1.8635 -0.8169
   33DOPE  C216 4201   4.686   4.193  14.588  0.0520 -0.6817  0.1611
   33DOPE  H16R 4202   4.711   4.256  14.500 -1.9298 -1.3351 -0.9198
   33DOPE  H16S 4203   4.710   4.092  14.548 -0.8129 -0.2664 -1.4969
   33DOPE  C217 4204   4.778   4.236  14.702  0.1240 -0.6833 -0.1002
   33DOPE  H17R 4205   4.761   4.171  14.790 -0.0569 -0.4331  0.0491
   33DOPE  H17S 4206   4.757   4.338  14.739 -0.9716 -1.2750  0.9869
   33DOPE  C218 4207   4.925   4.228  14.670 -0.1022  0.4791 -1.1487
   33DOPE  H18R 4208   4.980   4.243  14.765  0.9590 -0.7559 -1.5359
   33DOPE  H18S 4209   4.953   4.303  14.593  0.6659  0.7557 -0.6072
   33DOPE  H18T 4210   4.947   4.125  14.633 -2.8701 -1.0361  1.0541
   33DOPE   C33 4211   3.754   2.812  13.563 -0.1920 -0.0345 -0.0067
   33DOPE   H3X 4212   3.832   2.773  13.494 -0.3191 -1.6063  0.7026
   33DOPE   H3Y 4213   3.696   2.721  13.590  0.0795 -0.3829 -0.5703
   33DOPE   C34 4214   3.816   2.851  13.697 -0.6204 -0.2313  0.1560
   33DOPE   H4X 4215   3.748   2.925  13.745  0.6260  1.0475  0.0317
   33DOPE   H4Y 4216   3.821   2.759  13.760 -1.0997  0.0009  0.5434
   33DOPE   C35 4217   3.955   2.911  13.685  0.1849  0.1308 -0.1099
   33DOPE   H5X 4218   3.942   3.002  13.623 -0.0700  0.2575  0.1227
   33DOPE   H5Y 4219   4.016   2.837  13.629 -3.0919 -2.4791 -0.5898
   33DOPE   C36 4220   4.018   2.942  13.824  0.0251 -0.5119  0.0865
   33DOPE   H6X 4221   3.983   2.871  13.902 -0.6753 -0.2199  0.0450
   33DOPE   H6Y 4222   3.975   3.033  13.870  1.4474  1.2182 -1.8119
   33DOPE   C37 4223   4.170   2.955  13.834 -0.2922  0.6919  0.0223
   33DOPE   H7X 4224   4.215   2.870  13.779  0.5956  1.8730 -1.1243
   33DOPE   H7Y 4225   4.206   3.049  13.788  2.2536  0.1605  0.7618
   33DOPE   C38 4226   4.209   2.935  13.986  0.3726  0.0898 -0.2750
   33DOPE   H8X 4227   4.174   2.836  14.021  0.0928  1.0130  2.3089
   33DOPE   H8Y 4228   4.149   3.008  14.044  0.5448 -0.8392  1.1080
   33DOPE   C39 4229   4.354   2.956  14.010 -0.1504 -0.2849 -0.2600
   33DOPE   H9X 4230   4.420   2.898  13.945 -1.0165 -2.4944  0.7269
   33DOPE  C310 4231   4.402   3.048  14.098 -0.6703 -0.6490  0.5674
   33DOPE  H10X 4232   4.507   3.081  14.086 -0.9481 -0.2552 -1.0362
   33DOPE  C311 4233   4.322   3.137  14.184  0.1054  0.6291  0.2416
   33DOPE  H11X 4234   4.327   3.238  14.137  0.6918  0.7931  0.6502
   33DOPE  H11Y 4235   4.218   3.102  14.199  0.9048 -1.0626  2.2100
   33DOPE  C312 4236   4.375   3.168  14.325 -0.6226  0.5135  0.4853
   33DOPE  H12X 4237   4.320   3.251  14.373 -0.5853  2.6433 -2.8454
   33DOPE  H12Y 4238   4.474   3.216  14.316  0.2568 -1.3774 -0.5830
   33DOPE  C313 4239   4.365   3.043  14.410 -0.4269  0.1962 -0.2372
   33DOPE  H13X 4240   4.259   3.011  14.416 -1.0126  1.9977 -0.4765
   33DOPE  H13Y 4241   4.425   2.953  14.385  0.0613  0.8502 -1.5289
   33DOPE  C314 4242   4.420   3.073  14.552  0.6142 -0.4621 -0.2877
   33DOPE  H14X 4243   4.374   3.168  14.588  2.0466 -0.3497  1.3652
   33DOPE  H14Y 4244   4.529   3.094  14.554  0.5557 -0.2290  1.1656
   33DOPE  C315 4245   4.393   2.969  14.652  0.3736  0.3233  0.5067
   33DOPE  H15X 4246   4.430   2.867  14.629 -2.0153 -0.7968  1.3280
   33DOPE  H15Y 4247   4.285   2.948  14.667  0.5428 -0.4314  0.7141
   33DOPE  C316 4248   4.445   3.007  14.794 -0.4444  0.5450  0.0622
   33DOPE  H16X 4249   4.399   3.105  14.819 -0.7638 -0.0112  1.7962
   33DOPE  H16Y 4250   4.554   3.030  14.793 -0.1801 -0.5514  1.1018
   33DOPE  C317 4251   4.416   2.909  14.908 -0.9597  0.0329  0.3328
   33DOPE  H17X 4252   4.309   2.880  14.912 -1.0099  0.1983  0.1864
   33DOPE  H17Y 4253   4.475   2.816  14.890  0.5149  1.0859 -0.4170
   33DOPE  C318 4254   4.439   2.969  15.047 -0.3306 -0.1756 -0.1859
   33DOPE  H18X 4255   4.378   3.059  15.067  0.3673  0.2424  0.1158
   33DOPE  H18Y 4256   4.416   2.900  15.131 -0.3330  1.7406  1.4698
   33DOPE  H18Z 4257   4.547   2.994  15.051 -0.0254 -1.4742  0.2241
   34DOPE     N 4258   2.080   6.225  13.502  0.3333 -0.7186 -0.2076
   34DOPE   HN1 4259   2.019   6.299  13.541  0.8274 -0.1657 -0.4669
   34DOPE   HN2 4260   2.137   6.268  13.426 -0.9901  2.3840  0.3844
   34DOPE   HN3 4261   2.022   6.148  13.464  0.5401 -1.0826  0.2117
   34DOPE   C12 4262   2.164   6.165  13.618  0.5966  0.2938 -0.9695
   34DOPE  H12A 4263   2.103   6.165  13.711 -1.2725  0.0041 -2.1523
   34DOPE  H12B 4264   2.252   6.233  13.625  0.2714  0.7343 -1.0985
   34DOPE   C11 4265   2.228   6.026  13.584  0.2742  0.0329 -0.2528
   34DOPE  H11A 4266   2.152   5.955  13.544  1.4131 -1.0156 -0.6014
   34DOPE  H11B 4267   2.260   5.986  13.683 -2.9961  2.0047  1.7951
   34DOPE     P 4268   2.364   5.928  13.384 -0.2924  0.4094  0.3069
   34DOPE   O13 4269   2.509   5.952  13.360 -0.4448  0.2685  0.4478
   34DOPE   O14 4270   2.271   5.944  13.265 -0.0506 -0.0601 -0.8025
   34DOPE   O11 4271   2.327   5.797  13.473 -0.1875 -0.4211  0.2785
   34DOPE   O12 4272   2.336   6.037  13.490 -0.0052 -0.3398  0.3633
   34DOPE    C1 4273   2.430   5.744  13.562 -0.1434  0.5390  0.8259
   34DOPE    HA 4274   2.468   5.824  13.630 -1.2642  0.0364  2.0813
   34DOPE    HB 4275   2.515   5.703  13.504 -0.4140  0.0727  0.7552
   34DOPE    C2 4276   2.384   5.620  13.653  0.5721  0.0497  0.4494
   34DOPE    HS 4277   2.331   5.554  13.582  0.8593  0.2663  0.0301
   34DOPE   O21 4278   2.287   5.685  13.748 -0.0347  0.1302 -0.0564
   34DOPE   C21 4279   2.200   5.596  13.793  0.3095 -0.3036 -0.1091
   34DOPE   O22 4280   2.187   5.485  13.745 -0.5075 -0.1832 -0.7972
   34DOPE   C22 4281   2.099   5.653  13.890  0.5693  0.2634 -0.0553
   34DOPE   H2R 4282   2.002   5.601  13.875 -0.2893  2.0488 -1.0077
   34DOPE   H2S 4283   2.085   5.759  13.862 -0.8825 -0.1281 -0.9160
   34DOPE    C3 4284   2.492   5.547  13.735 -0.3592  0.5199 -0.1211
   34DOPE    HX 4285   2.570   5.504  13.667  0.7031 -1.4843  2.1865
   34DOPE    HY 4286   2.447   5.456  13.780 -0.1718 -0.6228 -2.1324
   34DOPE   O31 4287   2.552   5.628  13.830  0.1338 -0.2321 -0.2973
   34DOPE   C31 4288   2.510   5.621  13.955 -0.1984 -0.2101 -0.7143
   34DOPE   O32 4289   2.418   5.552  13.995  0.1998  0.1516  0.2574
   34DOPE   C32 4290   2.589   5.720  14.047  0.4501  0.2902 -0.0292
   34DOPE   H2X 4291   2.696   5.713  14.019  0.3210  1.8682 -1.0426
   34DOPE   H2Y 4292   2.557   5.822  14.018  0.7902  0.2974 -0.3930
   34DOPE   C23 4293   2.147   5.651  14.036 -0.4285 -0.6132 -0.5896
   34DOPE   H3R 4294   2.239   5.712  14.047 -1.1819  0.3379  0.6855
   34DOPE   H3S 4295   2.178   5.548  14.067  1.1033 -0.2515 -0.8448
   34DOPE   C24 4296   2.037   5.701  14.130 -0.2291  0.2084  0.4804
   34DOPE   H4R 4297   1.947   5.637  14.122  0.6816 -1.0927  0.3584
   34DOPE   H4S 4298   2.011   5.805  14.100  1.8627  1.1897  1.8093
   34DOPE   C25 4299   2.083   5.689  14.276 -0.4153  0.1600 -0.7460
   34DOPE   H5R 4300   2.179   5.744  14.282  0.7796 -1.5850 -2.4303
   34DOPE   H5S 4301   2.096   5.583  14.307 -1.0562  0.8320  2.0673
   34DOPE   C26 4302   1.990   5.758  14.379 -0.8591 -0.0134  0.2286
   34DOPE   H6R 4303   1.886   5.721  14.368 -1.5784  1.1069  2.5790
   34DOPE   H6S 4304   1.986   5.866  14.352 -0.5165  0.0306  0.3588
   34DOPE   C27 4305   2.035   5.745  14.524  0.1792 -0.1114 -0.1062
   34DOPE   H7R 4306   2.145   5.731  14.529  0.0221 -1.4476  0.0330
   34DOPE   H7S 4307   2.000   5.656  14.581  2.5432 -0.2842  1.2015
   34DOPE   C28 4308   2.002   5.873  14.602 -0.4323  0.3354  0.1552
   34DOPE   H8R 4309   2.056   5.950  14.544 -0.9744  0.1658 -0.5937
   34DOPE   H8S 4310   2.056   5.868  14.699  2.2817 -1.3536 -1.3383
   34DOPE   C29 4311   1.852   5.897  14.609 -1.4939  0.3607 -0.3910
   34DOPE   H9R 4312   1.806   5.879  14.511 -1.0829  1.0795 -0.7278
   34DOPE  C210 4313   1.779   5.924  14.717  0.1342  0.5049 -1.0855
   34DOPE  H10R 4314   1.670   5.930  14.705  0.0966 -1.9380 -2.4880
   34DOPE  C211 4315   1.841   5.944  14.856 -0.0068 -0.4874  0.1208
   34DOPE  H11R 4316   1.949   5.923  14.865  0.3078  0.8282 -0.2961
   34DOPE  H11S 4317   1.803   5.876  14.935 -0.3486 -0.5541 -0.0968
   34DOPE  C212 4318   1.821   6.089  14.899 -0.4276 -0.0980 -0.3587
   34DOPE  H12R 4319   1.887   6.148  14.831 -1.5783  0.4886 -0.9835
   34DOPE  H12S 4320   1.875   6.111  14.994  1.9469 -0.0493 -1.6356
   34DOPE  C213 4321   1.679   6.145  14.903  1.0907  0.3949 -0.0735
   34DOPE  H13R 4322   1.645   6.169  14.800 -0.2714 -0.9249  0.0339
   34DOPE  H13S 4323   1.678   6.233  14.969 -0.0621  0.0048  0.4450
   34DOPE  C214 4324   1.569   6.050  14.958 -0.2088  0.0451  0.3502
   34DOPE  H14R 4325   1.608   6.003  15.051  0.3934 -0.5821 -0.2088
   34DOPE  H14S 4326   1.555   5.968  14.885 -0.5411  1.2185 -0.9553
   34DOPE  C215 4327   1.437   6.113  14.987 -0.1581  0.3965  0.1579
   34DOPE  H15R 4328   1.462   6.221  14.994 -0.3658  0.6627 -2.2122
   34DOPE  H15S 4329   1.396   6.063  15.078  1.1456  1.0091  1.1071
   34DOPE  C216 4330   1.340   6.096  14.870  0.0757 -0.2688 -0.0442
   34DOPE  H16R 4331   1.251   6.137  14.922  0.4415  0.2886  0.1473
   34DOPE  H16S 4332   1.318   5.989  14.852  0.6292 -0.2465 -0.9380
   34DOPE  C217 4333   1.372   6.168  14.739  0.0594 -0.2367  0.0744
   34DOPE  H17R 4334   1.442   6.107  14.678 -1.6428 -2.0191 -0.2231
   34DOPE  H17S 4335   1.412   6.272  14.744  1.8309 -0.7990 -1.3435
   34DOPE  C218 4336   1.243   6.178  14.655 -0.2189  0.4315  0.1267
   34DOPE  H18R 4337   1.147   6.154  14.707  0.5500 -0.6327  1.1070
   34DOPE  H18S 4338   1.242   6.100  14.576 -0.7411 -0.1923  0.7387
   34DOPE  H18T 4339   1.234   6.279  14.610 -2.0271  1.1687  1.9491
   34DOPE   C33 4340   2.587   5.723  14.195  0.3607  0.1629 -0.3420
   34DOPE   H3X 4341   2.489   5.766  14.226  0.2164  0.0410 -0.6186
   34DOPE   H3Y 4342   2.654   5.800  14.237  1.2184 -0.1904 -1.0331
   34DOPE   C34 4343   2.623   5.582  14.264 -0.2523  0.0238  0.0055
   34DOPE   H4X 4344   2.554   5.501  14.232  0.0089  0.3221 -1.3946
   34DOPE   H4Y 4345   2.720   5.557  14.216  0.0163  0.9667  0.0404
   34DOPE   C35 4346   2.640   5.598  14.410  0.4993 -0.2830  0.1250
   34DOPE   H5X 4347   2.685   5.696  14.436  2.3220 -0.4350 -2.1082
   34DOPE   H5Y 4348   2.723   5.530  14.440  0.6513  0.9379  2.7152
   34DOPE   C36 4349   2.513   5.569  14.486  0.2122  0.3903  0.2517
   34DOPE   H6X 4350   2.429   5.600  14.420 -0.6072 -2.2319 -0.0233
   34DOPE   H6Y 4351   2.500   5.623  14.583 -3.9802 -0.0742  0.1163
   34DOPE   C37 4352   2.505   5.412  14.500  0.0342 -0.2230 -0.3699
   34DOPE   H7X 4353   2.558   5.363  14.416 -0.7868  1.3519 -1.8872
   34DOPE   H7Y 4354   2.555   5.387  14.595 -0.6863 -1.7119 -0.3641
   34DOPE   C38 4355   2.358   5.362  14.512  0.1306  0.0402 -0.5551
   34DOPE   H8X 4356   2.354   5.251  14.503  0.0765 -0.0920  0.9041
   34DOPE   H8Y 4357   2.297   5.414  14.435 -1.9469  1.1943  1.7291
   34DOPE   C39 4358   2.307   5.399  14.651  0.4369  0.3793  0.5611
   34DOPE   H9X 4359   2.306   5.506  14.673  0.5162  0.5379 -0.1866
   34DOPE  C310 4360   2.269   5.314  14.747 -0.4626 -0.3244 -0.2199
   34DOPE  H10X 4361   2.219   5.363  14.831  0.9332 -0.2867  0.6235
   34DOPE  C311 4362   2.258   5.166  14.753  0.1141  0.4131  0.4383
   34DOPE  H11X 4363   2.173   5.139  14.687  2.2714 -2.6612 -1.3962
   34DOPE  H11Y 4364   2.346   5.111  14.713 -0.5170 -0.0122 -0.4015
   34DOPE  C312 4365   2.227   5.107  14.891 -0.2642 -0.2876  0.0993
   34DOPE  H12X 4366   2.158   5.169  14.952  0.4867 -0.1358  0.8178
   34DOPE  H12Y 4367   2.315   5.086  14.956 -0.7735 -1.1770  0.5296
   34DOPE  C313 4368   2.143   4.970  14.872  0.4418 -0.2981  0.4451
   34DOPE  H13X 4369   2.109   4.940  14.973 -2.2054  1.3364  0.1402
   34DOPE  H13Y 4370   2.051   4.997  14.816  0.6075 -2.6946 -1.0978
   34DOPE  C314 4371   2.219   4.860  14.797 -0.5159  0.5457 -0.5792
   34DOPE  H14X 4372   2.325   4.852  14.832 -0.6808  0.6614 -0.0481
   34DOPE  H14Y 4373   2.219   4.881  14.687  0.8947 -2.3023 -1.2321
   34DOPE  C315 4374   2.154   4.724  14.820  0.1925 -0.1517  0.4772
   34DOPE  H15X 4375   2.056   4.721  14.768  0.9286 -1.7360 -0.9183
   34DOPE  H15Y 4376   2.120   4.720  14.926  1.5432  1.5193  1.0243
   34DOPE  C316 4377   2.241   4.608  14.794  0.1496 -0.0971 -0.2935
   34DOPE  H16X 4378   2.197   4.510  14.822  0.4429 -0.2148 -0.2405
   34DOPE  H16Y 4379   2.331   4.623  14.857 -0.4698  2.5148  0.0660
   34DOPE  C317 4380   2.278   4.582  14.651 -0.2271  0.1124 -0.9646
   34DOPE  H17X 4381   2.182   4.555  14.602 -0.8648 -0.1964  0.4024
   34DOPE  H17Y 4382   2.317   4.681  14.620  0.1911 -0.1081 -1.1547
   34DOPE  C318 4383   2.382   4.467  14.626  0.4458  0.4856 -0.2343
   34DOPE  H18X 4384   2.329   4.373  14.598  1.7487 -0.2536 -0.2951
   34DOPE  H18Y 4385   2.447   4.495  14.541  0.1525 -0.8152 -0.9072
   34DOPE  H18Z 4386   2.440   4.445  14.718 -0.9452 -2.5232  0.0547
   35DOPE     N 4387   6.360   3.813  12.687 -0.0881 -0.7637 -0.8455
   35DOPE   HN1 4388   6.393   3.818  12.589 -0.1510  2.7521 -0.7943
   35DOPE   HN2 4389   6.378   3.720  12.731  2.1593 -0.6925 -1.4989
   35DOPE   HN3 4390   6.257   3.822  12.697  0.1545 -0.2853  2.0159
   35DOPE   C12 4391   6.428   3.912  12.781 -0.3381  0.0789  0.4678
   35DOPE  H12A 4392   6.451   4.003  12.722 -2.8420  0.4574 -0.0327
   35DOPE  H12B 4393   6.516   3.857  12.821 -2.0668 -0.6344  3.6997
   35DOPE   C11 4394   6.344   3.952  12.895  0.7711 -0.6066  0.2555
   35DOPE  H11A 4395   6.260   4.013  12.856  0.9254  1.1445  2.5064
   35DOPE  H11B 4396   6.397   4.023  12.961 -1.6750 -1.1130  2.9808
   35DOPE     P 4397   6.160   3.815  13.027  0.2608 -0.1318  0.1628
   35DOPE   O13 4398   6.120   3.678  12.995  0.4806  0.4317  0.2335
   35DOPE   O14 4399   6.068   3.921  12.974 -0.3212  0.4386 -0.4625
   35DOPE   O11 4400   6.167   3.826  13.183  0.3273 -0.4583  0.2937
   35DOPE   O12 4401   6.304   3.846  12.976  0.0162  0.9970 -0.1713
   35DOPE    C1 4402   6.176   3.947  13.248  0.9870 -0.1038 -0.3053
   35DOPE    HA 4403   6.115   3.937  13.341  1.2928  0.9020  0.0123
   35DOPE    HB 4404   6.130   4.032  13.194  0.3012  0.3736  0.9753
   35DOPE    C2 4405   6.316   3.987  13.292 -0.2329 -0.2876 -0.2470
   35DOPE    HS 4406   6.380   3.982  13.201  0.2548 -0.5806  0.0985
   35DOPE   O21 4407   6.366   3.897  13.395 -0.0194 -0.6755 -0.2128
   35DOPE   C21 4408   6.501   3.886  13.416 -0.6496  0.5604  0.8116
   35DOPE   O22 4409   6.592   3.939  13.350 -0.1644 -0.2413 -0.5920
   35DOPE   C22 4410   6.519   3.789  13.528  0.1867  0.0179 -0.3626
   35DOPE   H2R 4411   6.482   3.689  13.499 -0.3423  0.6405 -1.9551
   35DOPE   H2S 4412   6.457   3.825  13.613  0.9634  0.8311 -0.1233
   35DOPE    C3 4413   6.318   4.133  13.346 -0.0265  0.4903 -0.5227
   35DOPE    HX 4414   6.281   4.197  13.263 -0.7702 -0.7109 -1.1483
   35DOPE    HY 4415   6.424   4.165  13.357 -0.8909  3.3520  0.4909
   35DOPE   O31 4416   6.264   4.157  13.478 -0.1977 -0.3050 -0.3395
   35DOPE   C31 4417   6.148   4.208  13.479  0.8679  0.2612  0.5616
   35DOPE   O32 4418   6.078   4.236  13.381 -0.1938  0.4475  0.4056
   35DOPE   C32 4419   6.111   4.238  13.629  0.9180  0.1111  0.0413
   35DOPE   H2X 4420   6.102   4.140  13.680 -1.4863  0.5786  0.6758
   35DOPE   H2Y 4421   6.192   4.288  13.686  0.6678  0.5464  0.0268
   35DOPE   C23 4422   6.664   3.750  13.555 -0.3589  0.3586  0.2335
   35DOPE   H3R 4423   6.717   3.843  13.585 -2.1209  0.8029  2.1418
   35DOPE   H3S 4424   6.709   3.709  13.461  0.1214  1.9538 -0.2724
   35DOPE   C24 4425   6.680   3.653  13.666 -0.4468  0.0338 -0.3936
   35DOPE   H4R 4426   6.611   3.566  13.659 -0.7909  0.1601  1.0823
   35DOPE   H4S 4427   6.648   3.699  13.761  0.2333 -0.6451  0.1828
   35DOPE   C25 4428   6.820   3.590  13.691 -0.3827 -0.4610  0.0584
   35DOPE   H5R 4429   6.885   3.680  13.700 -2.7637  1.3280  0.4968
   35DOPE   H5S 4430   6.852   3.529  13.604 -0.8606  1.6107 -1.6753
   35DOPE   C26 4431   6.833   3.511  13.819 -0.5037 -0.2298  0.6663
   35DOPE   H6R 4432   6.767   3.422  13.807 -0.6707 -0.0382  0.1268
   35DOPE   H6S 4433   6.794   3.574  13.902 -0.2760 -1.3464  1.6485
   35DOPE   C27 4434   6.973   3.454  13.841  0.2897 -0.0637 -0.3737
   35DOPE   H7R 4435   7.020   3.446  13.740 -1.8347 -2.0141 -1.3081
   35DOPE   H7S 4436   6.971   3.351  13.884 -0.5719  0.6921  1.5081
   35DOPE   C28 4437   7.071   3.545  13.926  0.3085 -0.6127 -0.4096
   35DOPE   H8R 4438   7.061   3.646  13.882  0.1752 -0.7727 -0.7467
   35DOPE   H8S 4439   7.173   3.509  13.902  0.6744  0.1655 -0.0394
   35DOPE   C29 4440   7.053   3.542  14.072 -0.6119 -0.1488 -0.2275
   35DOPE   H9R 4441   7.084   3.445  14.113 -0.2196  0.7619  1.7698
   35DOPE  C210 4442   7.025   3.646  14.155 -0.3694  0.1462  0.3374
   35DOPE  H10R 4443   7.039   3.625  14.262  3.3418  1.0541  0.1704
   35DOPE  C211 4444   7.024   3.791  14.133  0.2425 -0.7658 -0.3212
   35DOPE  H11R 4445   7.065   3.814  14.032  1.5827 -2.2267 -0.1461
   35DOPE  H11S 4446   7.098   3.833  14.204 -2.1322  0.1905  1.7396
   35DOPE  C212 4447   6.890   3.853  14.174  1.0205  0.6076  0.2266
   35DOPE  H12R 4448   6.893   3.964  14.177 -1.0191  0.6883  1.3761
   35DOPE  H12S 4449   6.886   3.836  14.284 -1.5510  4.3409  0.9043
   35DOPE  C213 4450   6.769   3.794  14.102 -0.0363 -0.2395 -0.1876
   35DOPE  H13R 4451   6.760   3.687  14.133 -3.0019 -0.1535 -0.5032
   35DOPE  H13S 4452   6.787   3.783  13.993  0.9421 -2.9193  0.1567
   35DOPE  C214 4453   6.635   3.861  14.119  0.3071  0.5527  0.3799
   35DOPE  H14R 4454   6.602   3.863  14.225 -1.6242 -0.4935 -0.1657
   35DOPE  H14S 4455   6.560   3.811  14.054  0.5464  0.5770  0.0810
   35DOPE  C215 4456   6.635   4.002  14.060  0.1109  0.1124  0.0340
   35DOPE  H15R 4457   6.733   4.051  14.081 -0.6571  0.8492  2.1666
   35DOPE  H15S 4458   6.557   4.064  14.109  0.4672  0.6568 -0.0682
   35DOPE  C216 4459   6.613   4.000  13.911  0.1236  0.0429  0.0240
   35DOPE  H16R 4460   6.520   3.940  13.907  0.3467 -0.3888  0.9847
   35DOPE  H16S 4461   6.700   3.963  13.853  0.6609  0.3006  0.6509
   35DOPE  C217 4462   6.580   4.138  13.849  0.8510  1.0084 -0.2035
   35DOPE  H17R 4463   6.661   4.210  13.873  0.7356  0.5179  1.7658
   35DOPE  H17S 4464   6.486   4.179  13.893 -0.0684 -0.3002 -0.8761
   35DOPE  C218 4465   6.565   4.141  13.692  0.2902 -0.1296  0.4306
   35DOPE  H18R 4466   6.637   4.074  13.641  1.6490  1.4809  0.1440
   35DOPE  H18S 4467   6.576   4.243  13.648 -0.1531 -0.2186  0.1093
   35DOPE  H18T 4468   6.467   4.095  13.669  0.1595 -1.1745  2.8327
   35DOPE   C33 4469   5.976   4.316  13.639 -0.0995 -0.8019 -0.0919
   35DOPE   H3X 4470   5.904   4.266  13.571 -0.0320 -1.4964  0.3314
   35DOPE   H3Y 4471   5.994   4.418  13.600 -1.2993  0.7249  2.9903
   35DOPE   C34 4472   5.919   4.332  13.784  0.3566 -0.1718  0.3875
   35DOPE   H4X 4473   5.917   4.224  13.809 -0.9185 -0.7541 -1.9155
   35DOPE   H4Y 4474   5.991   4.400  13.835 -0.7987  1.2062  0.2391
   35DOPE   C35 4475   5.777   4.388  13.798  0.7997  0.2334 -0.2086
   35DOPE   H5X 4476   5.708   4.364  13.714  0.2262  2.2543 -0.3746
   35DOPE   H5Y 4477   5.798   4.497  13.784  0.5302  0.1343 -1.5711
   35DOPE   C36 4478   5.721   4.362  13.935  0.3183  0.4822  0.2328
   35DOPE   H6X 4479   5.625   4.417  13.941 -0.6183 -0.7550 -1.9067
   35DOPE   H6Y 4480   5.774   4.410  14.020 -0.0507  0.4288  0.4919
   35DOPE   C37 4481   5.687   4.214  13.954 -0.0285  0.0893 -0.1248
   35DOPE   H7X 4482   5.638   4.194  13.857 -0.7756  0.1883  0.2253
   35DOPE   H7Y 4483   5.775   4.147  13.966 -2.0126 -2.3864  1.9879
   35DOPE   C38 4484   5.605   4.160  14.072  0.1358  0.2219 -0.4800
   35DOPE   H8X 4485   5.573   4.060  14.034 -1.8046  1.0706 -1.1990
   35DOPE   H8Y 4486   5.518   4.228  14.081 -0.5617 -0.7366  0.4210
   35DOPE   C39 4487   5.682   4.147  14.196  0.3561 -0.0899  0.1692
   35DOPE   H9X 4488   5.683   4.234  14.263  1.3589  1.1280 -1.3649
   35DOPE  C310 4489   5.734   4.034  14.249 -0.3657  0.1879 -0.1683
   35DOPE  H10X 4490   5.792   4.038  14.342  0.1329 -1.6298 -0.3609
   35DOPE  C311 4491   5.739   3.902  14.178 -0.1890 -0.4375 -1.0551
   35DOPE  H11X 4492   5.719   3.923  14.070  0.0034  0.0991 -0.9911
   35DOPE  H11Y 4493   5.843   3.861  14.180  0.6081  1.4761 -0.3564
   35DOPE  C312 4494   5.646   3.792  14.238  0.2245  0.2266  0.0982
   35DOPE  H12X 4495   5.627   3.711  14.164 -0.4534  0.1259  0.3745
   35DOPE  H12Y 4496   5.548   3.837  14.267 -0.5138  0.6404 -2.7297
   35DOPE  C313 4497   5.700   3.734  14.368 -0.0323  0.3653 -0.8194
   35DOPE  H13X 4498   5.798   3.782  14.392  0.9340 -1.1130 -1.6137
   35DOPE  H13Y 4499   5.637   3.748  14.458  0.1045 -2.5552 -0.1613
   35DOPE  C314 4500   5.719   3.581  14.354  0.3239  0.0574  0.4761
   35DOPE  H14X 4501   5.794   3.557  14.276 -2.4598 -0.5670 -2.1995
   35DOPE  H14Y 4502   5.623   3.535  14.324  1.8649 -1.7998 -2.0383
   35DOPE  C315 4503   5.768   3.515  14.486 -0.3111  0.5976  0.5309
   35DOPE  H15X 4504   5.869   3.560  14.504 -0.0031  0.1601 -0.0695
   35DOPE  H15Y 4505   5.787   3.407  14.468 -1.8570  0.4743 -0.4803
   35DOPE  C316 4506   5.681   3.524  14.612  0.0288 -0.8477  0.3021
   35DOPE  H16X 4507   5.578   3.524  14.571 -0.0272  0.1138  0.4193
   35DOPE  H16Y 4508   5.710   3.625  14.649  0.4323 -0.8654  0.0329
   35DOPE  C317 4509   5.708   3.411  14.704 -0.0039  0.2656 -0.0478
   35DOPE  H17X 4510   5.817   3.391  14.709  0.5570  1.2617 -4.2819
   35DOPE  H17Y 4511   5.674   3.449  14.803 -1.4519  2.6161 -1.3507
   35DOPE  C318 4512   5.623   3.287  14.685  0.4440 -0.4543  0.2072
   35DOPE  H18X 4513   5.648   3.205  14.757 -4.0840 -1.3674  1.0585
   35DOPE  H18Y 4514   5.515   3.300  14.703 -0.5247 -2.4575 -3.2081
   35DOPE  H18Z 4515   5.631   3.255  14.579  2.2004  1.4740 -0.2988
   36DOPE     N 4516   8.504   4.432  12.674  0.5723  0.0032  0.1667
   36DOPE   HN1 4517   8.517   4.353  12.741  0.4549  0.2721  0.5147
   36DOPE   HN2 4518   8.522   4.405  12.576  2.8163  2.1771 -0.1128
   36DOPE   HN3 4519   8.585   4.496  12.687  0.0315  0.6168  0.6157
   36DOPE   C12 4520   8.371   4.503  12.654  0.4426 -0.0683  0.0911
   36DOPE  H12A 4521   8.296   4.421  12.657  2.4673 -1.9665  1.5092
   36DOPE  H12B 4522   8.370   4.557  12.557  1.8945  0.5150  0.3746
   36DOPE   C11 4523   8.339   4.596  12.777 -0.3790 -0.1041 -0.0185
   36DOPE  H11A 4524   8.246   4.656  12.763  0.3778  0.9635 -0.6039
   36DOPE  H11B 4525   8.405   4.686  12.772 -1.0137  0.3370 -0.6862
   36DOPE     P 4526   8.237   4.468  12.971  0.0941 -0.1779  0.4290
   36DOPE   O13 4527   8.281   4.350  13.045 -0.6265  0.4586  0.0558
   36DOPE   O14 4528   8.132   4.448  12.872 -0.0704 -0.4726  0.9048
   36DOPE   O11 4529   8.178   4.571  13.072  0.1713  0.1290  0.3093
   36DOPE   O12 4530   8.366   4.536  12.901 -0.5606  0.0205 -0.3803
   36DOPE    C1 4531   8.270   4.594  13.180  0.2341  0.0438 -0.6941
   36DOPE    HA 4532   8.347   4.670  13.153 -1.3421  1.3860 -1.5517
   36DOPE    HB 4533   8.322   4.505  13.223 -0.9714  0.5939  2.0828
   36DOPE    C2 4534   8.184   4.668  13.292  0.5297  1.3397  0.1184
   36DOPE    HS 4535   8.137   4.759  13.248 -0.7783  0.9182  0.5842
   36DOPE   O21 4536   8.272   4.699  13.402  0.6942 -0.1881  0.5885
   36DOPE   C21 4537   8.254   4.821  13.456 -0.2385  0.4753  0.4422
   36DOPE   O22 4538   8.161   4.896  13.437  1.0010 -0.2049  0.3553
   36DOPE   C22 4539   8.381   4.852  13.547  0.4401  0.2650  0.5261
   36DOPE   H2R 4540   8.427   4.939  13.496 -0.2839 -0.7747 -2.0803
   36DOPE   H2S 4541   8.449   4.765  13.539  0.1250  0.0055  0.6855
   36DOPE    C3 4542   8.066   4.572  13.329 -0.1474 -0.0783 -0.1197
   36DOPE    HX 4543   8.120   4.482  13.366 -1.1165 -0.6258 -0.0115
   36DOPE    HY 4544   8.002   4.543  13.244  0.8966 -0.3912 -0.8098
   36DOPE   O31 4545   7.979   4.632  13.430 -0.1653  0.1076 -0.0234
   36DOPE   C31 4546   7.900   4.728  13.390 -0.3757  0.6133  0.1490
   36DOPE   O32 4547   7.896   4.777  13.279  0.1804  0.0312 -0.2169
   36DOPE   C32 4548   7.802   4.764  13.496  0.3170  0.5051 -1.0085
   36DOPE   H2X 4549   7.739   4.678  13.528 -0.1011  1.0975 -0.1834
   36DOPE   H2Y 4550   7.868   4.792  13.581 -1.3787  1.2472  0.1136
   36DOPE   C23 4551   8.354   4.877  13.694 -0.2978  0.5009  0.2740
   36DOPE   H3R 4552   8.454   4.870  13.742 -0.4322  0.6694  0.5766
   36DOPE   H3S 4553   8.283   4.806  13.741 -1.9171  2.3903  0.8168
   36DOPE   C24 4554   8.313   5.028  13.724 -0.0826  0.5981  0.0292
   36DOPE   H4R 4555   8.219   5.052  13.670 -0.5845  0.4169  0.8033
   36DOPE   H4S 4556   8.391   5.098  13.688  0.8486 -0.5988 -0.3453
   36DOPE   C25 4557   8.276   5.043  13.875  0.7220 -0.1981 -0.0348
   36DOPE   H5R 4558   8.377   5.042  13.921  1.2535 -0.8850 -1.1862
   36DOPE   H5S 4559   8.220   4.952  13.907 -0.4591  0.8389  0.9970
   36DOPE   C26 4560   8.206   5.177  13.918  0.7787  0.9280  0.8064
   36DOPE   H6R 4561   8.257   5.255  13.857  0.6227  0.4171 -0.0019
   36DOPE   H6S 4562   8.223   5.186  14.027 -1.5906  0.6491  1.2549
   36DOPE   C27 4563   8.059   5.186  13.898 -0.3878  0.4968 -0.4708
   36DOPE   H7R 4564   8.015   5.100  13.953 -4.1463  0.9038 -2.5723
   36DOPE   H7S 4565   8.038   5.175  13.790  0.0369  0.7453 -0.5793
   36DOPE   C28 4566   7.997   5.320  13.961  0.0001  0.7010 -0.2713
   36DOPE   H8R 4567   8.056   5.412  13.942  1.9717 -0.5891 -0.6903
   36DOPE   H8S 4568   8.008   5.298  14.070  1.0799 -1.0207 -0.6815
   36DOPE   C29 4569   7.853   5.349  13.924  0.4124 -0.6023 -0.3048
   36DOPE   H9R 4570   7.813   5.301  13.834  2.0855 -1.7089 -0.5045
   36DOPE  C210 4571   7.762   5.407  14.009 -0.3842  1.5660  0.2216
   36DOPE  H10R 4572   7.659   5.424  13.973  0.2732 -0.7278 -3.1939
   36DOPE  C211 4573   7.794   5.462  14.146 -0.0921  0.4028 -0.3459
   36DOPE  H11R 4574   7.904   5.459  14.155 -0.1760  0.7432  0.8706
   36DOPE  H11S 4575   7.766   5.395  14.230  1.5503 -0.2304 -0.2794
   36DOPE  C212 4576   7.728   5.599  14.173  0.3300 -0.1013  0.2094
   36DOPE  H12R 4577   7.633   5.577  14.227  1.2709  0.9078  2.4476
   36DOPE  H12S 4578   7.711   5.645  14.073 -1.1203 -1.2222 -0.0960
   36DOPE  C213 4579   7.812   5.684  14.273  0.0491  0.1434  0.1542
   36DOPE  H13R 4580   7.904   5.730  14.230 -0.2504  0.0575 -0.5890
   36DOPE  H13S 4581   7.835   5.604  14.347 -0.0246 -0.7357 -0.7487
   36DOPE  C214 4582   7.734   5.800  14.338  0.0005 -0.5446 -0.4789
   36DOPE  H14R 4583   7.628   5.773  14.358 -0.7588  0.6262 -2.5627
   36DOPE  H14S 4584   7.735   5.886  14.267  3.1215 -0.3685 -0.3371
   36DOPE  C215 4585   7.808   5.848  14.468  0.3120  0.0164 -0.9130
   36DOPE  H15R 4586   7.909   5.889  14.446 -0.2858  1.8562 -0.4069
   36DOPE  H15S 4587   7.804   5.759  14.535 -0.7188  1.0724  0.4959
   36DOPE  C216 4588   7.745   5.968  14.545 -0.8621  0.1040  0.4502
   36DOPE  H16R 4589   7.638   5.942  14.560 -1.1720  1.2954  0.4371
   36DOPE  H16S 4590   7.759   6.058  14.480  0.7580  0.5411  1.3541
   36DOPE  C217 4591   7.808   6.001  14.684  0.2367 -0.3155  0.1088
   36DOPE  H17R 4592   7.918   6.020  14.682  0.6409 -1.5698  3.8746
   36DOPE  H17S 4593   7.802   5.915  14.754  1.8485  0.7409  1.6393
   36DOPE  C218 4594   7.741   6.122  14.749  0.6688  0.2828 -0.3918
   36DOPE  H18R 4595   7.785   6.138  14.850 -0.4806 -2.0484  0.5421
   36DOPE  H18S 4596   7.630   6.126  14.755  0.6287  1.2798 -1.4094
   36DOPE  H18T 4597   7.760   6.211  14.684  1.4244  0.2015 -0.2928
   36DOPE   C33 4598   7.713   4.889  13.466  0.5573  0.2498 -0.2709
   36DOPE   H3X 4599   7.628   4.847  13.408 -0.8520  1.3542  0.9124
   36DOPE   H3Y 4600   7.781   4.961  13.416  2.3155 -2.6585 -2.3360
   36DOPE   C34 4601   7.650   4.930  13.604 -0.1074  0.2670 -0.0607
   36DOPE   H4X 4602   7.575   4.852  13.627  0.3550 -0.5092 -1.1119
   36DOPE   H4Y 4603   7.729   4.921  13.682  0.8911  0.3239 -1.0283
   36DOPE   C35 4604   7.593   5.069  13.589 -0.0116 -0.0880 -0.3526
   36DOPE   H5X 4605   7.532   5.072  13.496  1.5532 -1.7639 -1.5040
   36DOPE   H5Y 4606   7.678   5.140  13.592  0.0807 -0.2253  0.6242
   36DOPE   C36 4607   7.492   5.093  13.707 -0.5532  0.1026  0.3571
   36DOPE   H6X 4608   7.430   5.001  13.701  0.7598 -0.7349 -1.4864
   36DOPE   H6Y 4609   7.429   5.184  13.712 -1.4904 -0.5213  0.2988
   36DOPE   C37 4610   7.566   5.075  13.846 -0.6832 -0.1215 -0.3951
   36DOPE   H7X 4611   7.596   4.969  13.861  0.9522  0.6365  2.2755
   36DOPE   H7Y 4612   7.656   5.140  13.851 -1.6073  1.1120  0.5951
   36DOPE   C38 4613   7.479   5.115  13.956  0.8931 -0.5741 -0.1438
   36DOPE   H8X 4614   7.450   5.222  13.944  2.6504  0.2007  1.8382
   36DOPE   H8Y 4615   7.531   5.122  14.054 -0.3778 -1.6830  0.6472
   36DOPE   C39 4616   7.350   5.040  13.973 -0.0140  0.3713 -0.8529
   36DOPE   H9X 4617   7.293   5.038  13.878 -2.2716  1.4680  0.3907
   36DOPE  C310 4618   7.310   4.981  14.088  0.3956 -0.5037  0.0189
   36DOPE  H10X 4619   7.217   4.924  14.098  0.4378 -0.3413  1.7240
   36DOPE  C311 4620   7.380   4.973  14.221 -0.8036  0.4691  0.5565
   36DOPE  H11X 4621   7.429   4.873  14.227  1.2632  1.4452  0.8846
   36DOPE  H11Y 4622   7.462   5.048  14.225  1.0043 -1.1869 -2.1446
   36DOPE  C312 4623   7.293   4.992  14.355  0.4007 -0.0696 -0.0971
   36DOPE  H12X 4624   7.194   4.952  14.325  0.1899 -0.3954  0.9806
   36DOPE  H12Y 4625   7.275   5.101  14.372 -0.9324 -0.1172 -1.0933
   36DOPE  C313 4626   7.353   4.918  14.477  0.0538  0.3900  0.3875
   36DOPE  H13X 4627   7.323   4.811  14.469 -0.3276  0.4179  1.3609
   36DOPE  H13Y 4628   7.463   4.903  14.474 -0.1417 -1.3747  0.8667
   36DOPE  C314 4629   7.310   4.968  14.613 -0.1719  0.0890  0.5380
   36DOPE  H14X 4630   7.339   5.076  14.613  0.5642 -0.0981  0.9981
   36DOPE  H14Y 4631   7.365   4.911  14.692 -2.6857 -1.7445  1.0606
   36DOPE  C315 4632   7.160   4.944  14.637  0.2119  0.3209  0.5904
   36DOPE  H15X 4633   7.143   4.836  14.658  0.3038  0.3782  0.9810
   36DOPE  H15Y 4634   7.098   4.979  14.552 -0.0640 -0.1990  0.5790
   36DOPE  C316 4635   7.103   5.009  14.767  0.7262  0.3508  0.3472
   36DOPE  H16X 4636   7.156   4.958  14.851 -1.2489 -1.8266  0.3698
   36DOPE  H16Y 4637   6.996   4.981  14.760  0.7209 -0.5543  2.9185
   36DOPE  C317 4638   7.114   5.163  14.778  0.2919  0.7238  0.4694
   36DOPE  H17X 4639   7.217   5.204  14.779  0.1886  1.0123  1.9928
   36DOPE  H17Y 4640   7.053   5.209  14.697 -1.8369 -0.3412  1.3729
   36DOPE  C318 4641   7.050   5.202  14.914 -0.0935 -0.2823 -0.1171
   36DOPE  H18X 4642   7.033   5.310  14.930 -0.7603 -0.4069  0.0489
   36DOPE  H18Y 4643   6.953   5.148  14.922 -0.6252  0.1433 -2.8959
   36DOPE  H18Z 4644   7.108   5.166  15.002 -1.8854 -0.5341  1.0262
   37DOPE     N 4645   2.575   2.080  13.217  0.0350 -0.7816 -0.3166
   37DOPE   HN1 4646   2.602   1.981  13.202 -1.4257 -1.1757 -0.4800
   37DOPE   HN2 4647   2.653   2.148  13.204  0.6934 -0.2313  4.6144
   37DOPE   HN3 4648   2.554   2.082  13.319  0.6142 -0.0531 -0.2029
   37DOPE   C12 4649   2.466   2.113  13.122  0.3492 -0.4913 -0.1166
   37DOPE  H12A 4650   2.383   2.043  13.142 -0.3217  0.5894  0.9864
   37DOPE  H12B 4651   2.507   2.116  13.018  0.5425  0.0228 -0.0309
   37DOPE   C11 4652   2.417   2.261  13.143 -0.1237  0.2334 -0.4612
   37DOPE  H11A 4653   2.379   2.270  13.246  2.8983  0.5570  0.7276
   37DOPE  H11B 4654   2.334   2.284  13.072 -0.5619  3.5344  0.9527
   37DOPE     P 4655   2.507   2.505  13.166 -0.0845  0.1019 -0.0148
   37DOPE   O13 4656   2.385   2.543  13.096  0.0436  0.2431  0.7076
   37DOPE   O14 4657   2.634   2.574  13.131 -0.5014 -0.3682 -0.2107
   37DOPE   O11 4658   2.487   2.494  13.319  0.2307 -0.5609  0.4169
   37DOPE   O12 4659   2.531   2.354  13.130  0.0635 -0.6023  0.1371
   37DOPE    C1 4660   2.585   2.429  13.405  0.7360  0.3853  0.1583
   37DOPE    HA 4661   2.690   2.457  13.384 -0.2890  3.0692 -1.9930
   37DOPE    HB 4662   2.571   2.320  13.395 -2.1018  0.7077 -0.2948
   37DOPE    C2 4663   2.565   2.479  13.551 -0.1640  0.0611  0.4238
   37DOPE    HS 4664   2.460   2.454  13.577  0.7659 -2.7599  2.0245
   37DOPE   O21 4665   2.585   2.619  13.548 -0.3229  0.2310  0.2809
   37DOPE   C21 4666   2.528   2.702  13.640  0.6220  0.5159 -0.4751
   37DOPE   O22 4667   2.456   2.659  13.726  0.4445  0.1453  0.1838
   37DOPE   C22 4668   2.572   2.844  13.612 -0.2154 -0.1546  0.3144
   37DOPE   H2R 4669   2.486   2.891  13.560 -1.9963 -0.0554  3.1186
   37DOPE   H2S 4670   2.660   2.847  13.545  0.7671  1.8555  1.5915
   37DOPE    C3 4671   2.671   2.400  13.644  0.4215 -0.2881  0.5864
   37DOPE    HX 4672   2.766   2.438  13.602 -0.0181  0.8266  0.5786
   37DOPE    HY 4673   2.660   2.292  13.621  0.4764  0.1010 -1.4527
   37DOPE   O31 4674   2.648   2.426  13.785 -0.2644  0.6813 -0.0522
   37DOPE   C31 4675   2.545   2.363  13.844 -0.1645 -0.6747  0.0353
   37DOPE   O32 4676   2.478   2.268  13.797 -0.1513 -0.5802 -0.4064
   37DOPE   C32 4677   2.519   2.418  13.979 -1.1470  0.1958  0.3019
   37DOPE   H2X 4678   2.600   2.381  14.046 -1.2227  0.8345  0.7553
   37DOPE   H2Y 4679   2.530   2.528  13.965 -0.1201  0.0931  0.1949
   37DOPE   C23 4680   2.620   2.932  13.736  0.1156 -0.0151  0.3953
   37DOPE   H3R 4681   2.711   2.892  13.785 -1.4646 -0.7897  2.8339
   37DOPE   H3S 4682   2.536   2.935  13.808  2.6780 -0.7064  3.6627
   37DOPE   C24 4683   2.659   3.079  13.699  0.2004 -0.7351  0.6468
   37DOPE   H4R 4684   2.589   3.116  13.620  1.4781 -0.9685 -0.6457
   37DOPE   H4S 4685   2.758   3.071  13.648  0.2988 -0.6868  0.8317
   37DOPE   C25 4686   2.661   3.169  13.819  0.3685  0.2779 -0.3934
   37DOPE   H5R 4687   2.577   3.140  13.886  2.5253 -2.7252  1.2734
   37DOPE   H5S 4688   2.642   3.274  13.788  0.2098  1.0954  2.1922
   37DOPE   C26 4689   2.787   3.180  13.894 -0.1795  0.0163 -1.4580
   37DOPE   H6R 4690   2.866   3.208  13.822  0.9282  0.1751 -0.2204
   37DOPE   H6S 4691   2.811   3.078  13.932 -3.6651  0.0857  1.5622
   37DOPE   C27 4692   2.786   3.269  14.020 -0.3806  0.4884  0.4389
   37DOPE   H7R 4693   2.687   3.256  14.069 -1.7635 -2.0753 -2.6272
   37DOPE   H7S 4694   2.794   3.373  13.982  1.8356  0.2775  0.1795
   37DOPE   C28 4695   2.900   3.243  14.122  0.4768 -0.4207  0.5187
   37DOPE   H8R 4696   2.889   3.142  14.167 -0.4440 -1.0142 -0.9672
   37DOPE   H8S 4697   2.887   3.320  14.202 -1.8699 -0.0982 -0.1080
   37DOPE   C29 4698   3.034   3.272  14.062 -0.1528 -0.2507  0.4680
   37DOPE   H9R 4699   3.031   3.351  13.986 -1.3106 -0.6295  0.1004
   37DOPE  C210 4700   3.152   3.202  14.075 -0.1598  0.2837 -0.0241
   37DOPE  H10R 4701   3.239   3.240  14.019 -1.4836  0.1051 -2.3367
   37DOPE  C211 4702   3.152   3.068  14.150  0.1098 -0.0868 -0.2669
   37DOPE  H11R 4703   3.146   2.985  14.077  2.1317 -1.4367  0.9799
   37DOPE  H11S 4704   3.069   3.052  14.223  0.1269  1.6653  0.1864
   37DOPE  C212 4705   3.282   3.041  14.220 -0.7554 -0.5756  0.0020
   37DOPE  H12R 4706   3.368   3.055  14.151 -1.7762  1.5627 -0.9181
   37DOPE  H12S 4707   3.280   2.932  14.237  0.2598 -0.8957 -1.7215
   37DOPE  C213 4708   3.299   3.126  14.344 -0.2225  0.3319  0.2636
   37DOPE  H13R 4709   3.204   3.139  14.401  0.7873  0.9536  1.8761
   37DOPE  H13S 4710   3.325   3.227  14.307  0.2548  0.0045 -0.3152
   37DOPE  C214 4711   3.407   3.078  14.439 -0.2364  0.0424 -0.1303
   37DOPE  H14R 4712   3.422   3.163  14.509 -1.9549  2.8630 -2.8591
   37DOPE  H14S 4713   3.500   3.074  14.379 -0.3725  0.4398 -0.3806
   37DOPE  C215 4714   3.369   2.948  14.512 -0.4170  0.3694  0.0336
   37DOPE  H15R 4715   3.350   2.865  14.440 -1.8561 -0.3453  1.1809
   37DOPE  H15S 4716   3.269   2.963  14.558 -1.6563 -2.4073 -1.5325
   37DOPE  C216 4717   3.468   2.901  14.626  0.7014  0.1817  0.4791
   37DOPE  H16R 4718   3.481   2.995  14.683  0.4816  0.0687  0.7160
   37DOPE  H16S 4719   3.571   2.874  14.595  0.2773 -2.1009  0.8725
   37DOPE  C217 4720   3.417   2.772  14.684  0.2986 -0.9716  0.2165
   37DOPE  H17R 4721   3.406   2.696  14.604 -0.7176  0.6759 -1.2937
   37DOPE  H17S 4722   3.310   2.794  14.706  0.1858  0.5657 -1.6582
   37DOPE  C218 4723   3.485   2.708  14.799  0.2422  0.1363  0.1005
   37DOPE  H18R 4724   3.595   2.719  14.789  0.4015  0.1241  1.5886
   37DOPE  H18S 4725   3.460   2.599  14.804 -2.6673  0.6919 -0.6121
   37DOPE  H18T 4726   3.450   2.755  14.893 -1.6974  0.2186 -0.6279
   37DOPE   C33 4727   2.388   2.382  14.043  0.0095 -0.3880  0.0719
   37DOPE   H3X 4728   2.395   2.272  14.045 -0.1505 -0.3957  0.2684
   37DOPE   H3Y 4729   2.301   2.411  13.979 -1.4403 -2.2966  1.0922
   37DOPE   C34 4730   2.376   2.434  14.183 -0.1844  0.4128 -0.1593
   37DOPE   H4X 4731   2.474   2.427  14.235 -0.0389 -0.1488 -0.5030
   37DOPE   H4Y 4732   2.326   2.533  14.191 -0.9527 -0.0536  1.1173
   37DOPE   C35 4733   2.277   2.341  14.269  0.0821 -0.5798 -0.6479
   37DOPE   H5X 4734   2.311   2.235  14.268 -1.1565 -1.0016 -0.0660
   37DOPE   H5Y 4735   2.179   2.355  14.219  0.1290 -0.0554 -0.5890
   37DOPE   C36 4736   2.270   2.375  14.420  0.6173 -0.3140  0.4275
   37DOPE   H6X 4737   2.243   2.482  14.420  2.0365  0.0679  1.5141
   37DOPE   H6Y 4738   2.365   2.368  14.478 -1.3160  0.8214  4.0363
   37DOPE   C37 4739   2.164   2.303  14.511  0.3149 -1.0672 -0.1194
   37DOPE   H7X 4740   2.069   2.286  14.455 -0.5322  1.2974  0.4663
   37DOPE   H7Y 4741   2.193   2.199  14.534  1.5971 -0.3970  1.4468
   37DOPE   C38 4742   2.135   2.390  14.635  0.2391  0.6292  0.5981
   37DOPE   H8X 4743   2.075   2.328  14.704  1.5275 -1.6225 -0.1970
   37DOPE   H8Y 4744   2.067   2.469  14.595 -0.4186  0.3064  1.0630
   37DOPE   C39 4745   2.260   2.440  14.709  0.7086 -0.2279  0.0655
   37DOPE   H9X 4746   2.313   2.363  14.767 -0.6692 -0.7196  0.7287
   37DOPE  C310 4747   2.304   2.565  14.708 -0.4875 -0.1832 -0.3516
   37DOPE  H10X 4748   2.392   2.581  14.773 -0.6085  0.4011 -0.3233
   37DOPE  C311 4749   2.251   2.679  14.619 -0.3245  0.1771 -0.3074
   37DOPE  H11X 4750   2.156   2.647  14.570  0.7543 -2.3324 -0.9246
   37DOPE  H11Y 4751   2.225   2.763  14.688 -0.1473  0.7159 -0.8932
   37DOPE  C312 4752   2.355   2.721  14.522  0.2229 -0.1807  0.0484
   37DOPE  H12X 4753   2.309   2.783  14.443 -0.0679  0.1624  0.4800
   37DOPE  H12Y 4754   2.415   2.643  14.470 -1.4719 -1.6497  0.2089
   37DOPE  C313 4755   2.464   2.809  14.595 -0.6119 -0.6256 -0.8567
   37DOPE  H13X 4756   2.402   2.884  14.648 -1.2872  0.3289 -2.8740
   37DOPE  H13Y 4757   2.534   2.753  14.660 -0.6454  1.0526  0.7034
   37DOPE  C314 4758   2.542   2.890  14.494 -0.2016 -1.0430  0.2744
   37DOPE  H14X 4759   2.470   2.941  14.427 -0.4472  0.1719  1.4082
   37DOPE  H14Y 4760   2.600   2.822  14.429  0.0079 -1.7254  1.1614
   37DOPE  C315 4761   2.621   3.002  14.565 -0.5391 -0.7116  0.3584
   37DOPE  H15X 4762   2.570   3.034  14.658 -0.6230  1.9305 -0.5203
   37DOPE  H15Y 4763   2.637   3.090  14.500 -0.5686 -2.3639 -2.0436
   37DOPE  C316 4764   2.762   2.960  14.600 -0.3419 -0.1620  0.7690
   37DOPE  H16X 4765   2.811   2.933  14.504  0.7742  2.1081  0.6303
   37DOPE  H16Y 4766   2.774   2.869  14.662  2.7140 -0.2260  0.2434
   37DOPE  C317 4767   2.850   3.075  14.658  0.9794  0.0222 -0.2466
   37DOPE  H17X 4768   2.878   3.143  14.575  1.0412 -0.2473 -0.4462
   37DOPE  H17Y 4769   2.799   3.119  14.746 -0.6099 -0.0131 -1.1251
   37DOPE  C318 4770   2.988   3.015  14.705 -0.7106 -0.0165  0.0295
   37DOPE  H18X 4771   3.055   3.095  14.744  0.5483 -0.9880 -0.0744
   37DOPE  H18Y 4772   2.977   2.936  14.783 -1.9676 -0.8533 -0.9540
   37DOPE  H18Z 4773   3.034   2.960  14.620 -0.3232 -0.9186  0.8007
   38DOPE     N 4774   8.894   3.668  13.311  0.1720  0.4537 -0.0271
   38DOPE   HN1 4775   8.904   3.714  13.404  0.0438  0.1249  0.1513
   38DOPE   HN2 4776   8.795   3.677  13.281 -0.2486 -1.9018  0.4232
   38DOPE   HN3 4777   8.916   3.567  13.314  1.4177  0.6708 -1.0702
   38DOPE   C12 4778   8.985   3.737  13.218 -0.2500  0.1611  0.4241
   38DOPE  H12A 4779   8.965   3.693  13.118 -4.0779  0.4023  0.9492
   38DOPE  H12B 4780   9.090   3.714  13.248  0.2606  1.5098 -0.2401
   38DOPE   C11 4781   8.966   3.890  13.212 -0.3501 -0.9565 -0.0660
   38DOPE  H11A 4782   8.870   3.919  13.163 -0.2741  0.3385  0.4972
   38DOPE  H11B 4783   9.047   3.928  13.147 -0.1079 -1.5880 -0.1348
   38DOPE     P 4784   8.982   4.108  13.360 -0.0065  0.1722  0.4265
   38DOPE   O13 4785   8.946   4.174  13.227 -0.1981 -0.1087 -0.4494
   38DOPE   O14 4786   9.100   4.164  13.431 -0.6422 -0.6257 -0.0671
   38DOPE   O11 4787   8.860   4.126  13.452 -0.3255 -1.1652 -0.0382
   38DOPE   O12 4788   8.988   3.952  13.344 -0.3618  1.0715 -0.4733
   38DOPE    C1 4789   8.739   4.055  13.439  0.2530  0.1617  0.1078
   38DOPE    HA 4790   8.736   3.948  13.467  0.9310  0.2077  0.3745
   38DOPE    HB 4791   8.699   4.059  13.335 -2.1394 -1.8247  0.8679
   38DOPE    C2 4792   8.646   4.132  13.535 -0.6884  0.5645 -0.1578
   38DOPE    HS 4793   8.681   4.135  13.640 -2.3248  1.3030  0.3993
   38DOPE   O21 4794   8.517   4.066  13.543 -0.0742 -0.2193 -0.2246
   38DOPE   C21 4795   8.527   3.958  13.602  0.2102  0.5509 -0.0441
   38DOPE   O22 4796   8.621   3.917  13.670 -0.5892  0.2766 -0.2052
   38DOPE   C22 4797   8.385   3.890  13.605 -0.0769 -0.7362 -0.4654
   38DOPE   H2R 4798   8.396   3.813  13.684  1.9353 -1.6676 -1.5637
   38DOPE   H2S 4799   8.373   3.849  13.502  1.0766 -0.9844 -0.5182
   38DOPE    C3 4800   8.628   4.277  13.478  0.4903 -0.0798 -0.6966
   38DOPE    HX 4801   8.596   4.268  13.372  0.4409  0.2240 -0.7091
   38DOPE    HY 4802   8.731   4.320  13.474  0.7465 -0.7445 -2.2334
   38DOPE   O31 4803   8.545   4.362  13.553  0.3747  0.5671 -0.0213
   38DOPE   C31 4804   8.413   4.359  13.528  1.3097  0.3902  0.0711
   38DOPE   O32 4805   8.361   4.293  13.441  0.1279  0.0149  0.2486
   38DOPE   C32 4806   8.335   4.445  13.625  0.5595 -0.9275 -0.3628
   38DOPE   H2X 4807   8.389   4.528  13.675 -1.0563 -0.6383  1.0004
   38DOPE   H2Y 4808   8.257   4.501  13.567 -1.0101 -2.1913  0.4427
   38DOPE   C23 4809   8.277   3.991  13.670 -0.1469 -0.5675  0.6895
   38DOPE   H3R 4810   8.224   4.049  13.592  0.1857 -0.5147  0.5027
   38DOPE   H3S 4811   8.336   4.054  13.741  0.7651 -2.3240  1.5728
   38DOPE   C24 4812   8.175   3.915  13.750  0.3811  0.1184 -0.2150
   38DOPE   H4R 4813   8.121   3.834  13.695 -1.3958  0.6410  0.7031
   38DOPE   H4S 4814   8.102   3.995  13.772  1.2500  0.8636  0.0091
   38DOPE   C25 4815   8.224   3.876  13.887 -0.1443  0.5717 -0.1007
   38DOPE   H5R 4816   8.284   3.955  13.934  2.0400 -1.6207  1.0239
   38DOPE   H5S 4817   8.293   3.789  13.894  0.9416  1.4115 -0.1895
   38DOPE   C26 4818   8.106   3.828  13.980 -0.1305  0.0192 -0.1821
   38DOPE   H6R 4819   8.042   3.753  13.929 -0.1500 -1.3506  1.7508
   38DOPE   H6S 4820   8.042   3.912  14.013 -0.7053 -0.8266  0.9142
   38DOPE   C27 4821   8.161   3.779  14.110 -0.9404  0.2298  0.3287
   38DOPE   H7R 4822   8.263   3.821  14.125 -0.1279 -1.0999 -1.1708
   38DOPE   H7S 4823   8.180   3.670  14.098 -0.6784  0.3151 -0.0724
   38DOPE   C28 4824   8.082   3.809  14.240  0.0595  0.7845  0.4308
   38DOPE   H8R 4825   7.982   3.762  14.230  0.5583 -0.5834  1.5171
   38DOPE   H8S 4826   8.076   3.920  14.239 -2.4719  0.7233 -1.1197
   38DOPE   C29 4827   8.167   3.761  14.357 -0.3586  0.0795  0.3622
   38DOPE   H9R 4828   8.276   3.770  14.348 -0.5117  1.3118 -0.4429
   38DOPE  C210 4829   8.132   3.693  14.464  0.0656 -0.1536 -0.0277
   38DOPE  H10R 4830   8.206   3.683  14.545 -1.4176 -1.8074  1.1902
   38DOPE  C211 4831   7.990   3.657  14.513 -0.7777 -0.0859 -0.0234
   38DOPE  H11R 4832   7.917   3.691  14.437  0.2982  1.9560 -0.1934
   38DOPE  H11S 4833   7.970   3.710  14.608 -0.3538 -0.4998  0.3029
   38DOPE  C212 4834   7.984   3.505  14.546  0.1355 -0.5535 -0.1635
   38DOPE  H12R 4835   8.056   3.474  14.624  1.1062  2.1560  0.1091
   38DOPE  H12S 4836   8.017   3.440  14.462  2.9251 -0.3030  0.6303
   38DOPE  C213 4837   7.838   3.470  14.585  0.2407  0.4037  0.2179
   38DOPE  H13R 4838   7.816   3.368  14.547  0.0041  1.0894 -1.5672
   38DOPE  H13S 4839   7.774   3.545  14.535  0.8855  1.8017  1.4041
   38DOPE  C214 4840   7.807   3.479  14.738 -0.1455 -0.0895  0.4977
   38DOPE  H14R 4841   7.709   3.429  14.751 -0.6553  0.5135 -0.8433
   38DOPE  H14S 4842   7.805   3.588  14.761  0.7482  0.0084  0.1637
   38DOPE  C215 4843   7.915   3.428  14.836 -0.1292  0.6242 -0.2424
   38DOPE  H15R 4844   7.995   3.504  14.842  0.8575 -0.5078  1.8679
   38DOPE  H15S 4845   7.957   3.338  14.787  1.9305  1.3512  0.0931
   38DOPE  C216 4846   7.857   3.399  14.975  0.6923  0.4421 -0.8069
   38DOPE  H16R 4847   7.795   3.310  14.954  0.8086  0.2479 -0.3421
   38DOPE  H16S 4848   7.795   3.490  14.991  2.0721  1.4530 -0.9603
   38DOPE  C217 4849   7.970   3.376  15.083  0.1383 -0.1560 -0.5095
   38DOPE  H17R 4850   8.041   3.462  15.074 -0.0119 -0.1477 -1.7575
   38DOPE  H17S 4851   8.030   3.288  15.051 -2.7047 -2.3355 -0.2363
   38DOPE  C218 4852   7.909   3.348  15.217  0.1387 -0.3107 -0.3742
   38DOPE  H18R 4853   7.837   3.425  15.251  1.3646  0.6436  0.1197
   38DOPE  H18S 4854   7.989   3.330  15.293  0.5107  1.0041 -0.4361
   38DOPE  H18T 4855   7.840   3.261  15.210 -0.6699  0.2373  0.6123
   38DOPE   C33 4856   8.260   4.354  13.731  0.1755 -0.3055  0.1203
   38DOPE   H3X 4857   8.336   4.287  13.777  0.6660 -0.7936 -1.3407
   38DOPE   H3Y 4858   8.194   4.287  13.673 -3.0412  2.9102 -0.3068
   38DOPE   C34 4859   8.163   4.429  13.828 -0.0312  0.2571  0.3645
   38DOPE   H4X 4860   8.102   4.349  13.873 -0.6392  0.8299  0.5741
   38DOPE   H4Y 4861   8.223   4.471  13.912 -0.2975  0.0194  0.6692
   38DOPE   C35 4862   8.066   4.534  13.770 -0.9647  0.5003 -0.2923
   38DOPE   H5X 4863   8.012   4.492  13.683 -1.0134  0.0423 -0.0455
   38DOPE   H5Y 4864   8.122   4.619  13.727  0.8377  0.2080  1.3550
   38DOPE   C36 4865   7.969   4.599  13.876 -0.3902 -1.2634 -0.0897
   38DOPE   H6X 4866   7.934   4.521  13.947 -1.9064 -1.5384 -1.0833
   38DOPE   H6Y 4867   7.886   4.640  13.813  0.6387 -0.2784 -0.8439
   38DOPE   C37 4868   8.037   4.716  13.958  0.6785 -0.7034  0.1871
   38DOPE   H7X 4869   8.141   4.694  13.989  0.6944  0.6801  1.1986
   38DOPE   H7Y 4870   8.038   4.816  13.910  1.7481 -0.2594  1.0932
   38DOPE   C38 4871   7.959   4.739  14.092  0.4821  0.5194 -0.0193
   38DOPE   H8X 4872   8.023   4.799  14.160  3.0677 -0.2726 -1.6024
   38DOPE   H8Y 4873   7.962   4.638  14.138  2.1506  0.9088  0.8055
   38DOPE   C39 4874   7.814   4.788  14.060 -0.0803  0.4938  0.0298
   38DOPE   H9X 4875   7.800   4.885  14.010  1.1836 -0.6383 -2.7636
   38DOPE  C310 4876   7.707   4.715  14.092  0.1342 -0.2035  0.0843
   38DOPE  H10X 4877   7.604   4.744  14.068  0.0909 -0.1630  0.3106
   38DOPE  C311 4878   7.711   4.584  14.172  0.0717  0.5968 -1.0549
   38DOPE  H11X 4879   7.657   4.508  14.111  0.1110  2.8991 -4.2359
   38DOPE  H11Y 4880   7.813   4.544  14.189  0.8189  1.3981 -3.2039
   38DOPE  C312 4881   7.645   4.601  14.314  0.1206 -0.1657 -0.0246
   38DOPE  H12X 4882   7.622   4.499  14.353  1.1060 -0.6328 -0.6188
   38DOPE  H12Y 4883   7.548   4.651  14.297 -0.1074 -0.2290  1.0187
   38DOPE  C313 4884   7.730   4.673  14.416  0.4523 -0.4107  0.6405
   38DOPE  H13X 4885   7.838   4.650  14.406 -0.0133 -1.8601 -2.5055
   38DOPE  H13Y 4886   7.707   4.778  14.389 -1.4860 -1.4049 -2.0415
   38DOPE  C314 4887   7.679   4.651  14.556  0.4742 -0.4228  0.6706
   38DOPE  H14X 4888   7.703   4.550  14.595  0.8245 -0.5188  0.2154
   38DOPE  H14Y 4889   7.569   4.667  14.566  0.4881  0.4971 -0.4656
   38DOPE  C315 4890   7.743   4.741  14.663 -0.1197 -0.0399  0.4215
   38DOPE  H15X 4891   7.680   4.737  14.754 -0.4322 -2.6996  0.1460
   38DOPE  H15Y 4892   7.748   4.846  14.625  3.3366  0.2975  1.4630
   38DOPE  C316 4893   7.889   4.705  14.695  0.3069  0.2477  0.2398
   38DOPE  H16X 4894   7.925   4.782  14.766 -0.7968 -0.3697  1.4933
   38DOPE  H16Y 4895   7.946   4.706  14.599  3.1903  0.8535  1.8641
   38DOPE  C317 4896   7.920   4.575  14.763  0.3932 -0.1294 -0.3336
   38DOPE  H17X 4897   7.847   4.567  14.847 -0.1597 -2.0540 -0.9358
   38DOPE  H17Y 4898   7.908   4.487  14.697  1.5683 -1.9415  1.7427
   38DOPE  C318 4899   8.066   4.572  14.819 -0.0545  0.1531  0.2962
   38DOPE  H18X 4900   8.087   4.659  14.885 -1.0875 -0.4592  1.4918
   38DOPE  H18Y 4901   8.087   4.480  14.878 -2.1664 -0.0327  0.8505
   38DOPE  H18Z 4902   8.141   4.566  14.738 -0.3108  1.1432 -0.0279
   39DOPE     N 4903   2.191   4.703  13.135 -0.7009 -0.1025 -0.0796
   39DOPE   HN1 4904   2.199   4.682  13.034 -1.5896  1.0935 -0.4223
   39DOPE   HN2 4905   2.091   4.704  13.162 -1.2841  2.5026 -2.0259
   39DOPE   HN3 4906   2.228   4.800  13.138 -0.1769 -0.2580 -1.0489
   39DOPE   C12 4907   2.280   4.615  13.221  0.0098  0.6521  0.2372
   39DOPE  H12A 4908   2.362   4.578  13.156 -0.5305 -0.4684  0.1690
   39DOPE  H12B 4909   2.220   4.525  13.250 -0.3523  0.7615 -0.1643
   39DOPE   C11 4910   2.320   4.686  13.348 -0.2901  0.2720  0.7072
   39DOPE  H11A 4911   2.332   4.791  13.314  0.5050 -0.3418 -1.0080
   39DOPE  H11B 4912   2.416   4.657  13.395 -0.0075  1.4630  0.9017
   39DOPE     P 4913   2.127   4.790  13.510 -0.1629 -0.3515  0.4244
   39DOPE   O13 4914   2.063   4.759  13.632  0.2661  0.1346 -0.3618
   39DOPE   O14 4915   2.034   4.830  13.404  0.5148 -0.8866  0.0525
   39DOPE   O11 4916   2.233   4.905  13.529 -0.1991  0.8183 -0.4724
   39DOPE   O12 4917   2.223   4.667  13.450 -0.6456  0.0752  0.3998
   39DOPE    C1 4918   2.368   4.874  13.588  0.4373 -0.5816  0.5574
   39DOPE    HA 4919   2.446   4.925  13.527  0.1182 -0.3923  0.3017
   39DOPE    HB 4920   2.400   4.767  13.584  1.7344 -0.1978 -0.1209
   39DOPE    C2 4921   2.379   4.920  13.739 -0.2118 -0.7634 -0.6717
   39DOPE    HS 4922   2.476   4.880  13.775 -0.2457 -0.7435 -0.5551
   39DOPE   O21 4923   2.278   4.874  13.834 -0.0586 -0.3293 -0.6414
   39DOPE   C21 4924   2.288   4.741  13.859  0.2550  0.1978  0.2632
   39DOPE   O22 4925   2.381   4.668  13.824 -0.0412 -0.2392  0.5500
   39DOPE   C22 4926   2.174   4.696  13.954 -0.5168 -0.4415  0.1473
   39DOPE   H2R 4927   2.084   4.754  13.925  0.9622  1.7491 -0.3232
   39DOPE   H2S 4928   2.195   4.729  14.058 -1.0490  0.4857 -0.0303
   39DOPE    C3 4929   2.401   5.076  13.743 -0.0011  0.5010 -0.3505
   39DOPE    HX 4930   2.349   5.130  13.661 -1.7134 -1.4867 -0.6576
   39DOPE    HY 4931   2.508   5.103  13.728  0.5881 -1.5068 -0.0132
   39DOPE   O31 4932   2.360   5.129  13.869 -0.1763 -0.0767  0.2967
   39DOPE   C31 4933   2.235   5.160  13.887  0.7259  0.0046  0.2116
   39DOPE   O32 4934   2.141   5.126  13.813 -0.3509  0.8568  0.3547
   39DOPE   C32 4935   2.218   5.245  14.018  0.3099 -0.1972  0.2694
   39DOPE   H2X 4936   2.217   5.348  13.976  2.6339 -0.3631 -0.3393
   39DOPE   H2Y 4937   2.116   5.229  14.057 -0.5964 -0.0135 -1.9206
   39DOPE   C23 4938   2.162   4.546  13.968  0.0421  0.4845  0.6386
   39DOPE   H3R 4939   2.152   4.494  13.870  1.1928  1.6585 -0.1288
   39DOPE   H3S 4940   2.068   4.534  14.025  0.6578 -1.4176  1.3411
   39DOPE   C24 4941   2.282   4.468  14.041  0.0807  0.3980 -0.5391
   39DOPE   H4R 4942   2.280   4.512  14.143  2.2901  0.0555 -0.2931
   39DOPE   H4S 4943   2.377   4.509  13.999  0.0655  1.2111  0.1827
   39DOPE   C25 4944   2.269   4.317  14.035  0.4421  0.6249  0.0707
   39DOPE   H5R 4945   2.260   4.284  13.930  2.0068 -0.2507  0.1860
   39DOPE   H5S 4946   2.177   4.289  14.091  0.7769 -2.3308 -0.7055
   39DOPE   C26 4947   2.387   4.243  14.090  0.9526  0.1710  0.2999
   39DOPE   H6R 4948   2.466   4.235  14.013  0.1472 -1.9138 -0.3659
   39DOPE   H6S 4949   2.360   4.138  14.112  1.4056  0.0480  0.2692
   39DOPE   C27 4950   2.442   4.301  14.219  0.2315 -0.0600  0.0132
   39DOPE   H7R 4951   2.379   4.266  14.304 -0.3717  0.1214 -0.3580
   39DOPE   H7S 4952   2.434   4.411  14.225 -1.2637 -0.1924  0.8697
   39DOPE   C28 4953   2.587   4.267  14.262  0.6055 -0.1480 -0.0232
   39DOPE   H8R 4954   2.619   4.322  14.353 -1.8763  0.3050  0.6577
   39DOPE   H8S 4955   2.653   4.295  14.177 -0.4888  1.1698 -0.4715
   39DOPE   C29 4956   2.599   4.122  14.290  0.0969 -0.1190 -0.7182
   39DOPE   H9R 4957   2.611   4.054  14.204 -0.0120 -2.7351  1.2339
   39DOPE  C210 4958   2.591   4.061  14.412 -0.7174  0.2369 -0.0377
   39DOPE  H10R 4959   2.605   3.952  14.420 -0.0269  0.3164 -0.0861
   39DOPE  C211 4960   2.570   4.129  14.549  0.0962  0.9032 -0.4273
   39DOPE  H11R 4961   2.532   4.232  14.529  0.9227  1.5281  1.0734
   39DOPE  H11S 4962   2.666   4.138  14.604 -0.9362  1.4490  1.3551
   39DOPE  C212 4963   2.467   4.056  14.636  0.2946  0.1745 -0.5127
   39DOPE  H12R 4964   2.383   4.029  14.568  0.1114  1.5435 -0.8656
   39DOPE  H12S 4965   2.416   4.115  14.715 -1.4729 -1.8165 -0.0626
   39DOPE  C213 4966   2.516   3.933  14.718 -0.5292 -0.0510 -0.2196
   39DOPE  H13R 4967   2.563   3.865  14.644 -0.1091 -0.0036  0.0027
   39DOPE  H13S 4968   2.434   3.871  14.761  1.3732 -2.1703  0.5728
   39DOPE  C214 4969   2.624   3.968  14.829  0.1963  0.2430 -0.5855
   39DOPE  H14R 4970   2.693   4.050  14.801  0.6396 -0.9868 -3.5230
   39DOPE  H14S 4971   2.681   3.873  14.842  0.1504  0.3081  0.0967
   39DOPE  C215 4972   2.544   4.001  14.956 -0.0159  0.1520  0.1849
   39DOPE  H15R 4973   2.472   3.917  14.967  1.3178 -1.2157 -1.0049
   39DOPE  H15S 4974   2.483   4.094  14.951 -2.7723 -1.5999 -0.7588
   39DOPE  C216 4975   2.625   3.988  15.086 -0.2677 -0.1769 -0.2937
   39DOPE  H16R 4976   2.701   3.910  15.066 -0.7695 -0.1906 -2.4161
   39DOPE  H16S 4977   2.555   3.939  15.157  3.0395 -2.5029  1.5994
   39DOPE  C217 4978   2.680   4.121  15.149 -0.2396  0.4030 -0.0199
   39DOPE  H17R 4979   2.600   4.196  15.168 -0.6840 -0.1937  0.5071
   39DOPE  H17S 4980   2.747   4.175  15.078  2.2962  0.0170  1.9188
   39DOPE  C218 4981   2.760   4.085  15.280 -1.1396  0.5872 -0.4623
   39DOPE  H18R 4982   2.711   4.022  15.357  1.5373  0.8679  1.6100
   39DOPE  H18S 4983   2.816   4.167  15.331  2.1426 -1.8272  0.1647
   39DOPE  H18T 4984   2.852   4.030  15.249 -0.1889  1.6827  0.3273
   39DOPE   C33 4985   2.332   5.226  14.116 -0.1915  0.4056 -0.3116
   39DOPE   H3X 4986   2.320   5.288  14.208 -2.0762  0.3922 -0.5071
   39DOPE   H3Y 4987   2.426   5.249  14.062  1.7146 -0.3913  2.4311
   39DOPE   C34 4988   2.327   5.078  14.168  0.3779 -0.2330  0.6384
   39DOPE   H4X 4989   2.358   5.011  14.085  0.8602 -0.6247  1.1281
   39DOPE   H4Y 4990   2.402   5.077  14.250  1.6212 -1.4251 -0.4616
   39DOPE   C35 4991   2.203   5.031  14.228  0.7199  0.1256 -0.1185
   39DOPE   H5X 4992   2.129   4.999  14.151 -2.0969  0.7137  2.1529
   39DOPE   H5Y 4993   2.163   5.119  14.283  3.3558  1.5490 -0.3430
   39DOPE   C36 4994   2.227   4.914  14.325  0.0547 -0.0528 -0.1528
   39DOPE   H6X 4995   2.273   4.963  14.414 -0.0391  0.5730 -0.4427
   39DOPE   H6Y 4996   2.312   4.854  14.286  1.3874  0.6431  1.5395
   39DOPE   C37 4997   2.106   4.822  14.360  0.1610 -0.4155  0.5223
   39DOPE   H7X 4998   2.057   4.787  14.266 -0.6664 -0.3269  0.9102
   39DOPE   H7Y 4999   2.153   4.738  14.414  0.8438 -1.0631 -1.0333
   39DOPE   C38 5000   1.997   4.893  14.447 -0.1050 -0.1213 -0.0527
   39DOPE   H8X 5001   1.965   4.970  14.373  0.1734 -0.4074 -0.4762
   39DOPE   H8Y 5002   2.057   4.938  14.529 -0.2227 -3.2314  1.8677
   39DOPE   C39 5003   1.889   4.798  14.489  0.6395  0.1932  0.8697
   39DOPE   H9X 5004   1.895   4.738  14.581  0.5601  1.3900  1.6839
   39DOPE  C310 5005   1.766   4.796  14.429  0.2667 -0.3191  0.5634
   39DOPE  H10X 5006   1.684   4.731  14.462  0.0206 -0.7266 -0.8141
   39DOPE  C311 5007   1.733   4.874  14.300 -0.2104  0.2844 -0.0371
   39DOPE  H11X 5008   1.665   4.958  14.325 -1.3986 -0.0797 -1.8048
   39DOPE  H11Y 5009   1.818   4.920  14.245  1.2210 -0.6894  1.2672
   39DOPE  C312 5010   1.662   4.785  14.197 -0.2863 -1.0823  0.2041
   39DOPE  H12X 5011   1.712   4.688  14.175  1.0972 -0.1840 -0.7590
   39DOPE  H12Y 5012   1.658   4.845  14.104  1.3104  1.1786  1.4972
   39DOPE  C313 5013   1.528   4.737  14.258  0.4560 -0.2665  0.7611
   39DOPE  H13X 5014   1.544   4.645  14.318  0.5277 -0.4792  0.4175
   39DOPE  H13Y 5015   1.489   4.820  14.321  1.2181  1.6175 -1.1039
   39DOPE  C314 5016   1.418   4.705  14.149  0.0894 -0.9041  0.2634
   39DOPE  H14X 5017   1.474   4.635  14.083 -0.6608 -0.1509 -1.2334
   39DOPE  H14Y 5018   1.385   4.795  14.093  1.8120  0.4226  1.2415
   39DOPE  C315 5019   1.301   4.635  14.225  0.8373 -0.2618  0.0406
   39DOPE  H15X 5020   1.352   4.552  14.278 -2.5148 -2.6987 -0.1954
   39DOPE  H15Y 5021   1.233   4.591  14.148 -1.0237  3.8368 -0.9368
   39DOPE  C316 5022   1.216   4.728  14.312 -0.3118  0.5911 -0.4520
   39DOPE  H16X 5023   1.183   4.811  14.245 -0.8536  1.4153  0.8026
   39DOPE  H16Y 5024   1.281   4.765  14.394 -0.9726 -0.8032  0.7349
   39DOPE  C317 5025   1.078   4.664  14.357 -0.5071 -0.4028 -0.3018
   39DOPE  H17X 5026   1.022   4.745  14.409  0.3009 -0.7024  1.0762
   39DOPE  H17Y 5027   1.020   4.624  14.272 -0.4195 -0.2986 -0.4110
   39DOPE  C318 5028   1.097   4.545  14.458 -0.0393 -0.1428  0.1557
   39DOPE  H18X 5029   0.998   4.496  14.473  0.3994 -1.4293 -0.9971
   39DOPE  H18Y 5030   1.159   4.469  14.407  0.6001 -1.4917  2.7972
   39DOPE  H18Z 5031   1.145   4.578  14.552 -1.6373  2.1974  0.2429
   40DOPE     N 5032   4.184   6.168  13.135  0.1425  0.2441  0.2679
   40DOPE   HN1 5033   4.177   6.081  13.191 -0.3523  1.2113  1.7631
   40DOPE   HN2 5034   4.226   6.144  13.043  1.5450  0.4473  0.8310
   40DOPE   HN3 5035   4.246   6.235  13.185  2.2598 -1.5941  0.2703
   40DOPE   C12 5036   4.043   6.229  13.126 -0.4609 -0.4025  0.0409
   40DOPE  H12A 5037   3.974   6.176  13.056  0.3242  0.2435 -1.2496
   40DOPE  H12B 5038   4.046   6.335  13.094 -1.0036 -0.3403  0.1739
   40DOPE   C11 5039   3.995   6.226  13.272  0.5789 -0.3403  0.0545
   40DOPE  H11A 5040   3.923   6.310  13.270  1.0137  0.0416  0.2908
   40DOPE  H11B 5041   4.070   6.256  13.348  0.9243 -0.8798 -0.0698
   40DOPE     P 5042   4.011   6.007  13.416 -0.0359 -0.3709  0.2757
   40DOPE   O13 5043   4.155   6.021  13.391 -0.5105 -0.1443 -0.1332
   40DOPE   O14 5044   3.955   5.871  13.418 -0.6916  0.5604 -1.2515
   40DOPE   O11 5045   3.985   6.072  13.549 -0.2498  0.3703 -0.0329
   40DOPE   O12 5046   3.928   6.096  13.311  0.2865 -0.1743 -0.1265
   40DOPE    C1 5047   3.875   6.143  13.586 -0.0193  0.1910 -0.6246
   40DOPE    HA 5048   3.861   6.119  13.693  2.7480 -0.9162 -0.4476
   40DOPE    HB 5049   3.784   6.111  13.532  1.2785 -1.2315 -2.0665
   40DOPE    C2 5050   3.895   6.296  13.587 -0.0389 -0.0710  0.5474
   40DOPE    HS 5051   3.938   6.329  13.490  0.7550  0.4163  1.0494
   40DOPE   O21 5052   3.989   6.319  13.693  0.0372 -0.0172 -0.2294
   40DOPE   C21 5053   4.051   6.428  13.693  0.1571 -1.0862  0.1447
   40DOPE   O22 5054   4.040   6.517  13.607 -0.0262  0.1553 -0.0982
   40DOPE   C22 5055   4.156   6.428  13.806  0.7207  0.0739 -0.1762
   40DOPE   H2R 5056   4.255   6.429  13.755  0.4962 -1.2687 -0.6703
   40DOPE   H2S 5057   4.155   6.334  13.866 -0.7221 -0.1895 -0.5825
   40DOPE    C3 5058   3.767   6.377  13.621 -0.3227  0.2004 -0.2276
   40DOPE    HX 5059   3.690   6.333  13.553  0.2976  0.7302 -1.2915
   40DOPE    HY 5060   3.783   6.483  13.595 -1.1048  0.6799  1.1508
   40DOPE   O31 5061   3.723   6.375  13.758 -0.2477 -0.0826  0.2851
   40DOPE   C31 5062   3.617   6.295  13.787  0.2697 -0.7426  0.3997
   40DOPE   O32 5063   3.572   6.216  13.708  0.4381 -0.4078 -0.2066
   40DOPE   C32 5064   3.554   6.328  13.923  0.1016 -0.2590 -0.3987
   40DOPE   H2X 5065   3.622   6.383  13.991 -0.7338  3.6458 -2.4261
   40DOPE   H2Y 5066   3.468   6.398  13.912 -2.4731 -3.1544 -0.1597
   40DOPE   C23 5067   4.148   6.552  13.885 -0.2075 -0.2004  0.0056
   40DOPE   H3R 5068   4.137   6.636  13.813 -1.1337 -2.5203 -2.7580
   40DOPE   H3S 5069   4.244   6.579  13.935 -0.6599  0.0634  0.7392
   40DOPE   C24 5070   4.019   6.555  13.982  0.5403 -0.1984  0.0216
   40DOPE   H4R 5071   3.930   6.504  13.940  2.1774 -1.0179 -2.6739
   40DOPE   H4S 5072   3.990   6.661  13.998 -0.8381 -0.4996 -0.3518
   40DOPE   C25 5073   4.052   6.498  14.123 -0.0177 -0.1428 -0.0487
   40DOPE   H5R 5074   4.135   6.556  14.170 -1.1613  2.1938 -0.7404
   40DOPE   H5S 5075   4.076   6.390  14.115  0.8231  0.0554 -0.2485
   40DOPE   C26 5076   3.931   6.525  14.211  0.8421  0.5388 -0.5534
   40DOPE   H6R 5077   3.865   6.440  14.183  1.0832 -0.2746  1.2248
   40DOPE   H6S 5078   3.867   6.615  14.195 -2.0914 -1.2683  0.1782
   40DOPE   C27 5079   3.954   6.496  14.360 -0.6533  0.9513  0.3111
   40DOPE   H7R 5080   4.016   6.579  14.401  0.1428  0.3190  0.4236
   40DOPE   H7S 5081   4.010   6.400  14.372 -1.5951  0.5386  1.5895
   40DOPE   C28 5082   3.833   6.484  14.446 -0.3441 -0.0339 -0.0518
   40DOPE   H8R 5083   3.852   6.442  14.547 -1.6332  3.7762  1.9903
   40DOPE   H8S 5084   3.766   6.416  14.389  1.0519 -0.4428 -1.2674
   40DOPE   C29 5085   3.749   6.611  14.469 -0.0731 -0.3265  0.3936
   40DOPE   H9R 5086   3.776   6.689  14.397 -1.6818 -0.1363 -0.0230
   40DOPE  C210 5087   3.661   6.642  14.568  0.3676  0.9076  0.3914
   40DOPE  H10R 5088   3.603   6.735  14.570  1.7515  1.7874  1.9873
   40DOPE  C211 5089   3.619   6.535  14.663 -0.1074 -0.3615  0.1489
   40DOPE  H11R 5090   3.653   6.555  14.767 -1.2330 -1.0132  0.6679
   40DOPE  H11S 5091   3.651   6.437  14.625  2.2752  1.0694 -1.7839
   40DOPE  C212 5092   3.466   6.535  14.667  0.0075  0.0699 -0.2804
   40DOPE  H12R 5093   3.436   6.495  14.568  1.2261 -0.0677 -0.6092
   40DOPE  H12S 5094   3.424   6.635  14.690  0.1837  0.3540 -1.1518
   40DOPE  C213 5095   3.397   6.448  14.776  0.4027  0.2700  0.6380
   40DOPE  H13R 5096   3.416   6.340  14.756 -1.4338 -0.3467  1.9681
   40DOPE  H13S 5097   3.287   6.447  14.767  0.1121  1.5992  3.1970
   40DOPE  C214 5098   3.425   6.469  14.927  0.0623  0.2800  0.2957
   40DOPE  H14R 5099   3.365   6.559  14.954  0.4770  0.0409  2.1594
   40DOPE  H14S 5100   3.531   6.499  14.939  1.1012 -3.4070  1.5776
   40DOPE  C215 5101   3.387   6.341  15.003 -0.1672 -0.2111 -0.1460
   40DOPE  H15R 5102   3.456   6.255  14.987 -1.0781 -1.0609  0.3970
   40DOPE  H15S 5103   3.286   6.307  14.971 -1.4381  1.3622  1.9882
   40DOPE  C216 5104   3.384   6.374  15.152 -0.2881 -0.2634  0.1820
   40DOPE  H16R 5105   3.349   6.280  15.200  2.5550 -0.6234  1.7593
   40DOPE  H16S 5106   3.306   6.452  15.168  0.5992  0.7780 -0.4288
   40DOPE  C217 5107   3.511   6.422  15.218  0.5702  0.0433 -0.3744
   40DOPE  H17R 5108   3.485   6.467  15.316  1.2113  0.1066 -0.2274
   40DOPE  H17S 5109   3.554   6.497  15.149  1.8294 -0.5758 -0.2972
   40DOPE  C218 5110   3.626   6.323  15.259  0.3531 -0.2689  0.5321
   40DOPE  H18R 5111   3.686   6.367  15.341  1.5783 -0.6384 -0.1494
   40DOPE  H18S 5112   3.685   6.287  15.172  1.5451  3.6897 -0.4729
   40DOPE  H18T 5113   3.597   6.227  15.308  1.4361 -0.0984  1.5664
   40DOPE   C33 5114   3.486   6.200  13.987 -0.0937 -0.3182 -0.5934
   40DOPE   H3X 5115   3.544   6.107  14.003 -0.7711 -0.5639  0.5246
   40DOPE   H3Y 5116   3.401   6.185  13.918 -0.0924 -1.2101 -0.4067
   40DOPE   C34 5117   3.423   6.236  14.126 -0.3927 -0.0753  0.4596
   40DOPE   H4X 5118   3.357   6.325  14.122 -2.2589 -1.3852  0.4996
   40DOPE   H4Y 5119   3.363   6.144  14.145  1.1689 -1.4479 -0.9592
   40DOPE   C35 5120   3.524   6.265  14.239  0.9992 -0.1167  1.2377
   40DOPE   H5X 5121   3.465   6.272  14.333  1.0323 -1.5661  1.3855
   40DOPE   H5Y 5122   3.566   6.368  14.230  1.1005 -0.1241  1.6039
   40DOPE   C36 5123   3.647   6.170  14.255  1.0639 -0.2232  0.0023
   40DOPE   H6X 5124   3.707   6.195  14.345  1.1234 -1.4601  0.3254
   40DOPE   H6Y 5125   3.715   6.162  14.167  1.3290  0.0489  0.1773
   40DOPE   C37 5126   3.612   6.023  14.284  0.4314  0.0554  0.2137
   40DOPE   H7X 5127   3.551   6.015  14.376 -1.5491 -0.9085 -1.1075
   40DOPE   H7Y 5128   3.546   5.993  14.199  1.3633 -1.8395  0.1155
   40DOPE   C38 5129   3.733   5.932  14.300 -0.0625  0.2751 -0.4159
   40DOPE   H8X 5130   3.710   5.847  14.367  2.2438  0.7891  1.1329
   40DOPE   H8Y 5131   3.817   5.986  14.347 -1.4874  3.2795 -1.1261
   40DOPE   C39 5132   3.781   5.873  14.174 -0.0637  0.0533  0.2578
   40DOPE   H9X 5133   3.770   5.941  14.088 -0.5265  0.7195  0.8367
   40DOPE  C310 5134   3.868   5.771  14.168  0.0433  0.4518 -0.0165
   40DOPE  H10X 5135   3.887   5.729  14.068 -3.5129 -0.7596 -0.3090
   40DOPE  C311 5136   3.929   5.699  14.288  0.3820 -0.2227  0.1340
   40DOPE  H11X 5137   4.029   5.733  14.321 -0.4081  3.3695 -0.6968
   40DOPE  H11Y 5138   3.853   5.704  14.369 -1.6916 -0.4488 -1.6885
   40DOPE  C312 5139   3.941   5.545  14.267 -0.1523 -0.4543  0.1157
   40DOPE  H12X 5140   4.024   5.527  14.196  0.5436 -1.1680  1.0813
   40DOPE  H12Y 5141   3.853   5.519  14.204  0.8334 -2.4073 -0.5216
   40DOPE  C313 5142   3.944   5.468  14.393 -0.2859  0.9086 -0.5806
   40DOPE  H13X 5143   4.033   5.489  14.456 -0.0822 -3.7535  1.0265
   40DOPE  H13Y 5144   3.865   5.493  14.467  0.1341 -0.8280  0.4958
   40DOPE  C314 5145   3.910   5.317  14.361 -0.4576 -0.2916 -0.0377
   40DOPE  H14X 5146   3.831   5.313  14.284  1.0075 -2.0300 -1.5426
   40DOPE  H14Y 5147   3.876   5.273  14.457  1.2817 -2.4975 -0.3434
   40DOPE  C315 5148   4.021   5.228  14.318  0.2878 -0.5951 -0.3108
   40DOPE  H15X 5149   3.996   5.124  14.348  1.1153 -0.2781  1.6349
   40DOPE  H15Y 5150   4.111   5.259  14.376  0.0879 -0.1134 -0.2612
   40DOPE  C316 5151   4.054   5.226  14.170  0.5761  0.2876  0.1625
   40DOPE  H16X 5152   4.114   5.318  14.151  0.0097  0.9927  1.6402
   40DOPE  H16Y 5153   3.959   5.225  14.113  0.1957  2.1194  0.7201
   40DOPE  C317 5154   4.145   5.121  14.117  0.4763 -1.2473 -0.4481
   40DOPE  H17X 5155   4.243   5.142  14.166 -0.4715  2.1025  0.2907
   40DOPE  H17Y 5156   4.111   5.021  14.151 -0.1959 -0.2353  2.0926
   40DOPE  C318 5157   4.145   5.124  13.967  0.0306  0.1904  0.3164
   40DOPE  H18X 5158   4.047   5.102  13.920 -0.0031 -1.2743  1.0108
   40DOPE  H18Y 5159   4.179   5.222  13.927  1.5485  0.0069  1.1001
   40DOPE  H18Z 5160   4.218   5.054  13.922 -1.6096 -0.1908 -1.8963
   41DOPE     N 5161   2.635   6.181  13.463  0.0990 -0.1773  0.1024
   41DOPE   HN1 5162   2.570   6.132  13.398 -0.3903 -0.3652  0.7232
   41DOPE   HN2 5163   2.649   6.277  13.426  0.8709 -0.3700 -0.1111
   41DOPE   HN3 5164   2.731   6.145  13.448  0.6872  1.0375  0.7921
   41DOPE   C12 5165   2.592   6.182  13.608  0.0429  0.4623 -0.1348
   41DOPE  H12A 5166   2.574   6.077  13.640  1.2963  0.4354  0.5223
   41DOPE  H12B 5167   2.498   6.241  13.619  0.0561  0.1726  1.9624
   41DOPE   C11 5168   2.708   6.245  13.688 -0.1021 -0.1616  0.0258
   41DOPE  H11A 5169   2.797   6.177  13.682 -0.8056 -1.1816  0.8068
   41DOPE  H11B 5170   2.673   6.246  13.793  1.5882 -1.9126  0.6807
   41DOPE     P 5171   2.879   6.442  13.655 -0.5885 -0.5237  0.2294
   41DOPE   O13 5172   2.874   6.576  13.581 -0.5749  0.1865  0.1071
   41DOPE   O14 5173   2.992   6.349  13.603  0.0981 -0.3669 -0.5354
   41DOPE   O11 5174   2.903   6.485  13.811  0.0681  0.4585 -0.1645
   41DOPE   O12 5175   2.736   6.374  13.639 -0.3591  0.0917  0.0699
   41DOPE    C1 5176   2.802   6.536  13.893 -0.2737  0.0874  0.5171
   41DOPE    HA 5177   2.833   6.510  13.997  2.1588 -1.5046 -0.5224
   41DOPE    HB 5178   2.710   6.477  13.876 -0.0059 -0.3647  0.6092
   41DOPE    C2 5179   2.787   6.693  13.878  0.0151 -0.1125 -0.1342
   41DOPE    HS 5180   2.746   6.725  13.779 -2.4840  2.0346  1.4688
   41DOPE   O21 5181   2.916   6.749  13.888 -0.4318 -0.1207 -0.5865
   41DOPE   C21 5182   2.932   6.882  13.885  0.6499 -0.2041 -0.2064
   41DOPE   O22 5183   2.850   6.963  13.850  0.0907  0.2312  0.0483
   41DOPE   C22 5184   3.071   6.915  13.921 -0.3075  0.7144 -0.9833
   41DOPE   H2R 5185   3.141   6.903  13.836  0.9675 -0.3808  0.1588
   41DOPE   H2S 5186   3.108   6.838  13.993 -1.9299  0.5961 -0.2353
   41DOPE    C3 5187   2.686   6.752  13.980  0.1670  0.1510 -0.6723
   41DOPE    HX 5188   2.649   6.854  13.953 -1.0850 -0.1419 -0.1059
   41DOPE    HY 5189   2.730   6.747  14.082  2.6116 -1.5145 -1.7177
   41DOPE   O31 5190   2.575   6.655  13.996  0.0744  0.2305  0.1428
   41DOPE   C31 5191   2.470   6.685  13.931 -0.2833 -0.1352 -0.0410
   41DOPE   O32 5192   2.456   6.785  13.861  0.0204 -0.0371 -0.2632
   41DOPE   C32 5193   2.360   6.580  13.948 -0.3481 -0.2616  0.3565
   41DOPE   H2X 5194   2.264   6.611  13.901 -0.0209 -0.3774 -0.4107
   41DOPE   H2Y 5195   2.397   6.497  13.884 -1.2183 -0.1047 -0.3686
   41DOPE   C23 5196   3.104   7.059  13.978 -0.1139 -0.7405 -0.1987
   41DOPE   H3R 5197   3.124   7.122  13.889  1.7333  0.4068  0.9614
   41DOPE   H3S 5198   3.206   7.042  14.018  0.7564 -0.2205 -2.0672
   41DOPE   C24 5199   3.014   7.114  14.086  0.6236 -0.7034 -0.0627
   41DOPE   H4R 5200   2.912   7.094  14.048  0.5165  0.7262 -0.5962
   41DOPE   H4S 5201   3.025   7.223  14.102 -0.8040 -0.3799 -1.0667
   41DOPE   C25 5202   3.022   7.035  14.220 -0.4178 -0.8470 -0.5453
   41DOPE   H5R 5203   3.127   7.044  14.256 -0.9264  0.9671  0.5913
   41DOPE   H5S 5204   3.014   6.926  14.198  0.0893 -1.0690  0.3080
   41DOPE   C26 5205   2.929   7.086  14.334  0.2658  0.1859 -0.5068
   41DOPE   H6R 5206   2.836   7.128  14.289  0.6900  0.5182 -1.0762
   41DOPE   H6S 5207   2.979   7.154  14.406 -0.3910 -2.0691  2.2958
   41DOPE   C27 5208   2.878   6.968  14.417  0.2325 -0.2559 -0.0371
   41DOPE   H7R 5209   2.961   6.938  14.484  0.3072 -0.9956 -0.4441
   41DOPE   H7S 5210   2.852   6.888  14.344 -1.0394  1.9843 -2.2166
   41DOPE   C28 5211   2.756   6.998  14.505 -0.5269  0.0823 -0.4914
   41DOPE   H8R 5212   2.680   7.057  14.449 -0.5664  0.0193 -0.5040
   41DOPE   H8S 5213   2.792   7.065  14.587  1.2238 -1.5561  0.1514
   41DOPE   C29 5214   2.690   6.876  14.560  0.4813 -0.3393  0.0942
   41DOPE   H9R 5215   2.734   6.789  14.510 -1.8568 -0.0956 -2.6647
   41DOPE  C210 5216   2.581   6.876  14.638  0.2054  0.0737  0.5712
   41DOPE  H10R 5217   2.533   6.779  14.660  0.0150 -0.4628 -1.9131
   41DOPE  C211 5218   2.498   6.991  14.681 -0.5158  0.5725  0.0225
   41DOPE  H11R 5219   2.441   7.024  14.592 -0.1678  0.4172 -0.2605
   41DOPE  H11S 5220   2.569   7.069  14.715  0.6385 -0.5266  0.2482
   41DOPE  C212 5221   2.407   6.955  14.799  0.0080  0.2921  0.4285
   41DOPE  H12R 5222   2.467   6.920  14.886 -0.8124 -2.2168  0.0769
   41DOPE  H12S 5223   2.334   6.878  14.766 -1.9874  2.0136  0.5521
   41DOPE  C213 5224   2.329   7.082  14.853  0.5630 -0.1846 -0.1599
   41DOPE  H13R 5225   2.266   7.132  14.777  0.6353  1.4073  0.7796
   41DOPE  H13S 5226   2.399   7.160  14.891 -0.0604  0.1060  0.4138
   41DOPE  C214 5227   2.235   7.040  14.969 -0.2356  0.1663 -0.1641
   41DOPE  H14R 5228   2.179   7.131  15.000  0.2599  1.0223 -1.6622
   41DOPE  H14S 5229   2.295   7.014  15.058  0.8941  2.8688 -0.0369
   41DOPE  C215 5230   2.131   6.943  14.917  0.0805  0.2440  0.1342
   41DOPE  H15R 5231   2.057   6.933  14.999 -1.5103 -2.6243 -1.5068
   41DOPE  H15S 5232   2.173   6.843  14.894 -1.3284 -0.6539  1.2951
   41DOPE  C216 5233   2.044   6.982  14.804 -0.0692  0.2226  0.1395
   41DOPE  H16R 5234   2.111   6.986  14.716  0.5469  2.5844  0.6574
   41DOPE  H16S 5235   1.991   7.075  14.835 -0.9060 -0.8084  1.9564
   41DOPE  C217 5236   1.922   6.886  14.783  0.0541  0.3394 -0.4856
   41DOPE  H17R 5237   1.878   6.851  14.879 -1.9931  3.2163 -0.2706
   41DOPE  H17S 5238   1.955   6.795  14.727  0.8097  0.5363 -0.3817
   41DOPE  C218 5239   1.805   6.951  14.706  0.5795 -0.1489  0.8127
   41DOPE  H18R 5240   1.714   6.888  14.714  1.7480 -1.9431  0.3515
   41DOPE  H18S 5241   1.832   6.962  14.599  2.8675 -2.8596  1.0083
   41DOPE  H18T 5242   1.771   7.052  14.738  1.2511  0.8217 -1.3714
   41DOPE   C33 5243   2.342   6.542  14.093  0.5475 -0.7501 -0.0835
   41DOPE   H3X 5244   2.443   6.531  14.137  2.1377 -0.5811 -3.3627
   41DOPE   H3Y 5245   2.305   6.437  14.089 -0.4730 -0.4107  0.1056
   41DOPE   C34 5246   2.263   6.649  14.174  0.0987  0.8630  0.0455
   41DOPE   H4X 5247   2.256   6.601  14.274  0.5600  0.0891 -0.2864
   41DOPE   H4Y 5248   2.332   6.735  14.190  2.6743 -1.2469  0.9132
   41DOPE   C35 5249   2.120   6.676  14.121  0.2298 -0.3641 -0.8647
   41DOPE   H5X 5250   2.070   6.579  14.100  0.2790 -0.3712 -0.9544
   41DOPE   H5Y 5251   2.118   6.734  14.026 -0.2322 -2.4908 -2.2176
   41DOPE   C36 5252   2.044   6.757  14.229  0.4832  0.2693  0.2376
   41DOPE   H6X 5253   2.114   6.839  14.256  0.2172  0.1751  1.2865
   41DOPE   H6Y 5254   2.021   6.696  14.319  0.4863  1.1364  0.8361
   41DOPE   C37 5255   1.911   6.805  14.171 -0.1736  0.2268  0.2780
   41DOPE   H7X 5256   1.919   6.846  14.068 -2.9652  1.2842  0.3785
   41DOPE   H7Y 5257   1.846   6.720  14.142  1.1211 -0.1901 -1.5877
   41DOPE   C38 5258   1.825   6.894  14.249  0.0197 -0.1486  0.2973
   41DOPE   H8X 5259   1.759   6.952  14.180  2.2334 -1.5124 -3.2480
   41DOPE   H8Y 5260   1.896   6.969  14.292 -1.0806  0.9318  0.2798
   41DOPE   C39 5261   1.740   6.829  14.358 -0.1142 -0.2950 -0.1982
   41DOPE   H9X 5262   1.798   6.778  14.436  3.5834  0.8004 -2.0352
   41DOPE  C310 5263   1.604   6.840  14.377 -0.3469 -0.0114  0.2172
   41DOPE  H10X 5264   1.554   6.781  14.455 -1.9293  0.5750 -0.3075
   41DOPE  C311 5265   1.505   6.920  14.297 -0.2774 -0.1687  0.1298
   41DOPE  H11X 5266   1.463   6.999  14.363  0.5499  0.1437  0.3044
   41DOPE  H11Y 5267   1.551   6.976  14.213 -1.1558  1.6524  0.8073
   41DOPE  C312 5268   1.395   6.839  14.234  0.0909  0.0644 -0.2621
   41DOPE  H12X 5269   1.441   6.751  14.184 -2.0878  1.0664 -4.5538
   41DOPE  H12Y 5270   1.351   6.897  14.150  1.7748  1.0650 -0.5038
   41DOPE  C313 5271   1.285   6.809  14.340  0.2943  0.0135 -0.0355
   41DOPE  H13X 5272   1.339   6.785  14.434 -0.6496  0.6190  0.6657
   41DOPE  H13Y 5273   1.238   6.906  14.366 -0.3323 -0.1344 -0.5830
   41DOPE  C314 5274   1.188   6.699  14.288  0.8700 -0.3693 -0.5032
   41DOPE  H14X 5275   1.244   6.611  14.251  1.0970 -0.4674  0.0657
   41DOPE  H14Y 5276   1.126   6.749  14.211 -0.1252  1.9431  1.6633
   41DOPE  C315 5277   1.098   6.636  14.392 -0.2592  0.3457  0.2821
   41DOPE  H15X 5278   1.170   6.590  14.463  1.2553  1.7173 -0.3168
   41DOPE  H15Y 5279   1.047   6.551  14.340 -1.5741  0.0647  1.9432
   41DOPE  C316 5280   0.986   6.722  14.453 -0.1910  0.0080  0.3246
   41DOPE  H16X 5281   0.941   6.785  14.372  0.5021  0.3975  0.2354
   41DOPE  H16Y 5282   1.044   6.790  14.520  0.5095  0.5625 -0.8111
   41DOPE  C317 5283   0.881   6.643  14.522  0.0032  1.1961 -0.3443
   41DOPE  H17X 5284   0.844   6.561  14.457 -0.3462 -0.3453  1.6907
   41DOPE  H17Y 5285   0.934   6.583  14.598  0.8066 -1.6469 -2.9551
   41DOPE  C318 5286   0.765   6.725  14.572  0.2118 -0.1170 -0.4720
   41DOPE  H18X 5287   0.789   6.814  14.635 -0.4125  0.5544 -1.1586
   41DOPE  H18Y 5288   0.722   6.765  14.477  1.7170  2.2597 -0.2630
   41DOPE  H18Z 5289   0.698   6.662  14.634  1.0293 -0.6308 -0.0987
   42DOPE     N 5290   1.919   5.198  13.414  0.3225  0.0168  0.5513
   42DOPE   HN1 5291   1.957   5.150  13.330  1.3640  0.9060  0.4986
   42DOPE   HN2 5292   1.852   5.273  13.387 -0.3558 -0.6475  0.3406
   42DOPE   HN3 5293   2.003   5.243  13.455 -0.1553 -0.2672  1.8741
   42DOPE   C12 5294   1.868   5.103  13.515 -0.5301 -0.3820  0.1287
   42DOPE  H12A 5295   1.947   5.039  13.560 -0.7638 -0.5850  0.2506
   42DOPE  H12B 5296   1.796   5.038  13.462  0.9393 -2.0646  0.1070
   42DOPE   C11 5297   1.815   5.189  13.629 -0.0928  0.3231 -0.6041
   42DOPE  H11A 5298   1.902   5.245  13.668 -1.6468  1.6802  1.0396
   42DOPE  H11B 5299   1.781   5.117  13.707 -0.5118 -0.3239 -1.3655
   42DOPE     P 5300   1.571   5.239  13.558  0.2488 -0.2593  0.4725
   42DOPE   O13 5301   1.526   5.112  13.626 -0.3342 -0.5440  0.8765
   42DOPE   O14 5302   1.552   5.250  13.409  0.0828 -0.0535  0.0413
   42DOPE   O11 5303   1.479   5.358  13.608 -0.5225 -0.6219 -0.2181
   42DOPE   O12 5304   1.717   5.281  13.589  0.1266  0.4941  0.8415
   42DOPE    C1 5305   1.529   5.452  13.708  0.0455 -0.1991 -0.5518
   42DOPE    HA 5306   1.477   5.550  13.692 -2.1737 -1.3355 -0.7786
   42DOPE    HB 5307   1.636   5.478  13.700 -0.2281  0.6538 -1.8191
   42DOPE    C2 5308   1.497   5.411  13.851 -0.6701 -0.6297 -0.0178
   42DOPE    HS 5309   1.488   5.503  13.912 -3.1927  0.0955 -1.3567
   42DOPE   O21 5310   1.590   5.310  13.904 -0.3326 -0.2615  0.6815
   42DOPE   C21 5311   1.708   5.358  13.940  0.9364 -0.1775 -0.3521
   42DOPE   O22 5312   1.740   5.475  13.923 -0.0848  0.0993  0.1638
   42DOPE   C22 5313   1.803   5.250  14.001  0.1075  0.2249 -0.0233
   42DOPE   H2R 5314   1.905   5.274  13.964  0.5046  0.0822  0.9471
   42DOPE   H2S 5315   1.773   5.151  13.961  3.2510 -0.6428 -0.5054
   42DOPE    C3 5316   1.348   5.359  13.862 -0.6997  0.4249  0.3024
   42DOPE    HX 5317   1.341   5.269  13.797 -1.1606  0.8359 -0.2319
   42DOPE    HY 5318   1.289   5.445  13.823  0.8926  1.4751  0.0928
   42DOPE   O31 5319   1.323   5.337  14.004 -0.7167 -1.0201 -1.0024
   42DOPE   C31 5320   1.315   5.220  14.046  0.3137 -0.2280 -0.4581
   42DOPE   O32 5321   1.317   5.120  13.982  0.1763  0.6299  0.2010
   42DOPE   C32 5322   1.301   5.232  14.202 -0.2079 -0.2557  0.0634
   42DOPE   H2X 5323   1.307   5.336  14.240 -0.9725  0.5288 -1.8620
   42DOPE   H2Y 5324   1.203   5.182  14.216 -1.5769  1.7134 -1.8290
   42DOPE   C23 5325   1.799   5.237  14.152 -0.5539  0.2095  0.7938
   42DOPE   H3R 5326   1.852   5.141  14.171  1.4626  1.4212  1.6886
   42DOPE   H3S 5327   1.695   5.236  14.191  0.4101 -1.2218  3.5898
   42DOPE   C24 5328   1.885   5.351  14.211 -0.6824  0.7709 -0.0424
   42DOPE   H4R 5329   1.837   5.448  14.186  2.3290  2.2776 -0.4813
   42DOPE   H4S 5330   1.977   5.355  14.149 -0.9863  1.3870 -0.4649
   42DOPE   C25 5331   1.923   5.330  14.356  0.4907 -0.4572 -0.0016
   42DOPE   H5R 5332   2.014   5.391  14.374 -0.0230  0.3049  0.0873
   42DOPE   H5S 5333   1.934   5.221  14.375 -0.5604 -0.4882  0.5278
   42DOPE   C26 5334   1.809   5.368  14.454  0.1293  0.6001  0.3614
   42DOPE   H6R 5335   1.724   5.305  14.421 -1.1114  2.7686 -0.7895
   42DOPE   H6S 5336   1.781   5.475  14.449 -0.0732  0.6567  2.1437
   42DOPE   C27 5337   1.866   5.344  14.586  0.1015  0.3936 -0.5917
   42DOPE   H7R 5338   1.963   5.399  14.591 -0.6218  1.7199 -0.6293
   42DOPE   H7S 5339   1.883   5.234  14.591 -0.2148  0.3820  1.6370
   42DOPE   C28 5340   1.773   5.383  14.702 -0.1747 -0.0253  0.2629
   42DOPE   H8R 5341   1.669   5.356  14.674 -0.0859 -0.5892  0.4596
   42DOPE   H8S 5342   1.769   5.493  14.713 -0.3088  0.0191 -0.1799
   42DOPE   C29 5343   1.815   5.330  14.833 -0.4408 -0.8826 -0.1918
   42DOPE   H9R 5344   1.802   5.221  14.845  1.1151 -1.0024  0.5916
   42DOPE  C210 5345   1.889   5.398  14.919 -0.4501 -0.8345  0.6985
   42DOPE  H10R 5346   1.914   5.354  15.017 -2.6100 -0.5753  1.4184
   42DOPE  C211 5347   1.954   5.533  14.888 -0.1341  0.3550 -0.1677
   42DOPE  H11R 5348   1.881   5.615  14.874  0.7814  0.8576 -2.4153
   42DOPE  H11S 5349   2.015   5.514  14.798 -2.2550 -0.3054 -1.5187
   42DOPE  C212 5350   2.059   5.558  15.000 -0.4888  0.3678 -0.7272
   42DOPE  H12R 5351   2.136   5.479  15.015 -0.4792  0.5994  0.5525
   42DOPE  H12S 5352   2.001   5.567  15.094  2.0688 -1.4437  1.1464
   42DOPE  C213 5353   2.133   5.687  14.985 -0.6693  0.2918  0.6471
   42DOPE  H13R 5354   2.190   5.701  15.080 -0.2507  2.4051  0.1487
   42DOPE  H13S 5355   2.064   5.772  14.966 -0.7894  0.0781  0.1379
   42DOPE  C214 5356   2.231   5.691  14.865  0.3399  0.0194 -0.1442
   42DOPE  H14R 5357   2.177   5.670  14.770 -1.1154  1.4371  0.3313
   42DOPE  H14S 5358   2.310   5.617  14.891  0.0272  0.4077  2.1032
   42DOPE  C215 5359   2.292   5.835  14.846 -0.6643  0.1543 -0.2485
   42DOPE  H15R 5360   2.342   5.869  14.940  0.1194  1.8993 -1.2536
   42DOPE  H15S 5361   2.204   5.900  14.827 -0.7188  0.1332 -0.0766
   42DOPE  C216 5362   2.400   5.848  14.738  0.2046  0.5017  0.0300
   42DOPE  H16R 5363   2.393   5.951  14.697  0.8785  0.2564 -0.7176
   42DOPE  H16S 5364   2.370   5.779  14.656  0.2949 -0.8734  1.1228
   42DOPE  C217 5365   2.541   5.815  14.787 -0.0924 -0.4243  0.1804
   42DOPE  H17R 5366   2.551   5.705  14.801  0.6211 -0.4004 -0.0971
   42DOPE  H17S 5367   2.561   5.846  14.892 -0.1947  1.3596 -0.3087
   42DOPE  C218 5368   2.663   5.862  14.696  0.6334 -0.3435  0.3023
   42DOPE  H18R 5369   2.633   5.847  14.590  1.8636 -0.0499 -0.1027
   42DOPE  H18S 5370   2.754   5.800  14.713 -0.0011 -1.5619 -0.5735
   42DOPE  H18T 5371   2.698   5.968  14.703  0.5504 -0.3727  1.1834
   42DOPE   C33 5372   1.407   5.144  14.277  0.4097  0.0186  0.1914
   42DOPE   H3X 5373   1.506   5.140  14.225  1.1431 -0.8612  1.5868
   42DOPE   H3Y 5374   1.368   5.040  14.283 -2.8885  1.2028  1.6564
   42DOPE   C34 5375   1.454   5.199  14.417 -0.1408 -0.1438 -0.1433
   42DOPE   H4X 5376   1.550   5.158  14.456 -0.4632 -0.8923 -0.1323
   42DOPE   H4Y 5377   1.473   5.308  14.404  2.6057 -0.4040  0.9134
   42DOPE   C35 5378   1.351   5.178  14.533 -0.0227  0.3737 -0.2005
   42DOPE   H5X 5379   1.255   5.222  14.499  0.2573 -0.3495 -2.0526
   42DOPE   H5Y 5380   1.376   5.230  14.628 -2.9783  2.5947 -0.4989
   42DOPE   C36 5381   1.334   5.027  14.575 -0.4631  0.2341  0.2117
   42DOPE   H6X 5382   1.429   4.995  14.623 -0.9242 -0.5272  0.6443
   42DOPE   H6Y 5383   1.325   4.955  14.491 -0.2719  1.1162 -0.5798
   42DOPE   C37 5384   1.211   4.999  14.661 -0.0455 -0.1808 -0.6102
   42DOPE   H7X 5385   1.213   5.077  14.740 -1.7768 -2.5803  2.0515
   42DOPE   H7Y 5386   1.112   5.011  14.612  0.2195 -1.1388 -1.4152
   42DOPE   C38 5387   1.209   4.857  14.729  0.3318 -0.3041  0.0795
   42DOPE   H8X 5388   1.207   4.787  14.643  0.2991  0.1489 -0.2936
   42DOPE   H8Y 5389   1.115   4.846  14.787  0.0183  0.3069 -0.2957
   42DOPE   C39 5390   1.329   4.828  14.814  0.1253 -0.4388 -0.4765
   42DOPE   H9X 5391   1.356   4.904  14.889 -0.9038  0.7632 -1.2842
   42DOPE  C310 5392   1.433   4.751  14.783 -0.3997 -0.5970 -0.2161
   42DOPE  H10X 5393   1.515   4.737  14.855 -0.4260  0.3604  0.0116
   42DOPE  C311 5394   1.434   4.649  14.670 -0.6233  0.1277 -0.5464
   42DOPE  H11X 5395   1.336   4.661  14.620 -0.5322  4.1736 -0.1343
   42DOPE  H11Y 5396   1.514   4.677  14.597  0.9027 -0.9024  0.6642
   42DOPE  C312 5397   1.445   4.504  14.720  0.2080 -0.2884  0.0387
   42DOPE  H12X 5398   1.347   4.478  14.765 -0.4084  1.7170 -0.0330
   42DOPE  H12Y 5399   1.513   4.493  14.807 -0.8042 -0.3006  0.8560
   42DOPE  C313 5400   1.483   4.405  14.610  0.3061  0.7432  0.6218
   42DOPE  H13X 5401   1.455   4.302  14.641  1.0029  0.1393 -0.7000
   42DOPE  H13Y 5402   1.420   4.420  14.520 -0.7039 -0.4774  1.0910
   42DOPE  C314 5403   1.633   4.405  14.580 -0.4165 -0.0910 -0.1764
   42DOPE  H14X 5404   1.691   4.387  14.673 -0.4525  0.9276  0.0515
   42DOPE  H14Y 5405   1.664   4.507  14.550 -0.8784  0.2917  0.6279
   42DOPE  C315 5406   1.688   4.315  14.462  1.0333  0.2372 -0.3120
   42DOPE  H15X 5407   1.627   4.345  14.374 -0.9990  1.0512  1.2828
   42DOPE  H15Y 5408   1.657   4.211  14.483  0.7519  0.4855  0.5825
   42DOPE  C316 5409   1.840   4.334  14.445 -0.7523 -0.7862 -0.3837
   42DOPE  H16X 5410   1.890   4.282  14.530  0.7809  0.6868 -0.3201
   42DOPE  H16Y 5411   1.857   4.444  14.450 -0.8947 -0.6218 -2.6846
   42DOPE  C317 5412   1.894   4.273  14.319  0.3614  0.0714  0.0539
   42DOPE  H17X 5413   1.861   4.167  14.313  2.6835 -0.6189 -2.2461
   42DOPE  H17Y 5414   1.850   4.331  14.235 -0.0924 -0.4371 -0.0691
   42DOPE  C318 5415   2.043   4.273  14.313 -0.2456 -0.0922  0.5705
   42DOPE  H18X 5416   2.077   4.377  14.298 -3.0489  0.6337 -1.5743
   42DOPE  H18Y 5417   2.081   4.231  14.409 -0.4139 -2.4603 -0.3333
   42DOPE  H18Z 5418   2.074   4.200  14.235 -4.3075 -1.1566 -0.2476
   43DOPE     N 5419   0.604   3.297  13.477 -0.5637 -0.0171 -0.0718
   43DOPE   HN1 5420   0.562   3.334  13.565  1.9439  0.2296  1.1298
   43DOPE   HN2 5421   0.699   3.339  13.473 -0.1233 -0.9002  0.7453
   43DOPE   HN3 5422   0.559   3.316  13.386 -0.0037  3.0248  0.1710
   43DOPE   C12 5423   0.624   3.148  13.491 -0.0200 -0.0609 -0.0676
   43DOPE  H12A 5424   0.644   3.111  13.389  1.8802 -1.6329  0.8235
   43DOPE  H12B 5425   0.539   3.096  13.541  2.3071 -2.6960  1.3927
   43DOPE   C11 5426   0.736   3.111  13.591 -0.4585 -0.0270  0.0807
   43DOPE  H11A 5427   0.725   3.004  13.615  0.9864 -0.0345  0.7698
   43DOPE  H11B 5428   0.728   3.162  13.690  2.6048  2.3995 -0.7620
   43DOPE     P 5429   0.940   3.057  13.431  0.6210 -0.4786  0.0288
   43DOPE   O13 5430   1.081   3.032  13.457  0.4313 -0.2655 -0.5743
   43DOPE   O14 5431   0.895   3.119  13.300 -0.6647  0.5250 -0.0971
   43DOPE   O11 5432   0.858   2.911  13.446 -0.6924  0.2408  0.7961
   43DOPE   O12 5433   0.872   3.146  13.542 -0.1507  0.1663 -0.2685
   43DOPE    C1 5434   0.925   2.802  13.377 -0.5044 -0.5391 -0.3153
   43DOPE    HA 5435   1.021   2.830  13.328  1.3460 -0.3318  3.0964
   43DOPE    HB 5436   0.857   2.749  13.308  0.7864 -1.6590 -0.7751
   43DOPE    C2 5437   0.961   2.691  13.488  0.2088 -0.3206  0.3619
   43DOPE    HS 5438   0.864   2.649  13.521 -0.2552 -0.6665 -1.3734
   43DOPE   O21 5439   1.045   2.742  13.597  0.4965 -0.0064  0.2161
   43DOPE   C21 5440   0.977   2.765  13.706  0.9195 -0.3811  0.3277
   43DOPE   O22 5441   0.860   2.733  13.727 -0.1815  0.2912  0.7638
   43DOPE   C22 5442   1.051   2.858  13.809 -0.6205  0.3313 -0.2358
   43DOPE   H2R 5443   0.979   2.932  13.848 -0.9415 -1.1811  2.2531
   43DOPE   H2S 5444   1.127   2.917  13.754 -0.7119 -0.3920 -1.1791
   43DOPE    C3 5445   1.042   2.570  13.425  0.2737  0.5895  0.0418
   43DOPE    HX 5446   1.134   2.619  13.386  0.8648 -0.0297  0.6380
   43DOPE    HY 5447   0.976   2.537  13.341  0.0819 -0.9480  0.7596
   43DOPE   O31 5448   1.082   2.471  13.512 -0.3376  0.1576  0.7040
   43DOPE   C31 5449   0.990   2.375  13.528  0.2347 -0.3297 -0.0336
   43DOPE   O32 5450   0.885   2.368  13.464 -0.7035  0.5788 -0.6821
   43DOPE   C32 5451   1.043   2.267  13.617  0.8735  0.5233 -0.4073
   43DOPE   H2X 5452   1.053   2.176  13.555  1.5361 -0.9436  1.7361
   43DOPE   H2Y 5453   1.150   2.287  13.641  0.2495  3.9386  0.0247
   43DOPE   C23 5454   1.119   2.781  13.925 -0.8097 -0.2447  0.3020
   43DOPE   H3R 5455   1.160   2.685  13.888 -0.0548 -0.0587  0.6312
   43DOPE   H3S 5456   1.033   2.753  13.990 -0.7228 -1.1268  0.0493
   43DOPE   C24 5457   1.217   2.862  14.007  0.3029 -0.0039 -0.1786
   43DOPE   H4R 5458   1.149   2.936  14.056 -2.2573 -0.1041 -3.1876
   43DOPE   H4S 5459   1.273   2.915  13.927 -1.0662 -2.4512 -2.9638
   43DOPE   C25 5460   1.300   2.772  14.095  0.1661  0.5902 -0.4458
   43DOPE   H5R 5461   1.383   2.738  14.030 -0.1692  1.1523 -1.1882
   43DOPE   H5S 5462   1.237   2.685  14.127  0.0067  1.0208  0.4318
   43DOPE   C26 5463   1.358   2.844  14.219 -0.3293  0.0483  0.1179
   43DOPE   H6R 5464   1.269   2.875  14.278 -0.1438 -0.7327  0.8415
   43DOPE   H6S 5465   1.413   2.938  14.197  1.2490 -1.2772 -1.9674
   43DOPE   C27 5466   1.432   2.756  14.320  0.0154  0.4813  0.3096
   43DOPE   H7R 5467   1.538   2.752  14.288 -0.2015  0.7668 -0.4607
   43DOPE   H7S 5468   1.390   2.653  14.316 -0.2107  0.5961 -0.5541
   43DOPE   C28 5469   1.413   2.800  14.476 -0.4496  0.3566  0.1081
   43DOPE   H8R 5470   1.309   2.789  14.514  0.4311 -1.4071  2.2487
   43DOPE   H8S 5471   1.432   2.909  14.478 -2.4632  0.7907 -1.1947
   43DOPE   C29 5472   1.512   2.727  14.563  1.1632  0.6449  0.6134
   43DOPE   H9R 5473   1.483   2.626  14.595  1.6867  0.3880  0.2907
   43DOPE  C210 5474   1.627   2.770  14.617  0.2865 -0.0694 -0.2018
   43DOPE  H10R 5475   1.685   2.699  14.678  1.4219  0.3663 -0.7315
   43DOPE  C211 5476   1.690   2.903  14.594  0.4489 -1.0723 -0.1004
   43DOPE  H11R 5477   1.673   2.965  14.685 -0.5227 -1.8949  0.3019
   43DOPE  H11S 5478   1.634   2.954  14.513  1.8011 -1.0916 -1.0834
   43DOPE  C212 5479   1.838   2.900  14.564  0.4765 -0.0248  0.0773
   43DOPE  H12R 5480   1.866   2.859  14.465  0.7222  1.3700 -0.4661
   43DOPE  H12S 5481   1.880   2.839  14.647  1.1297  0.9616  0.5064
   43DOPE  C213 5482   1.900   3.043  14.573  0.2649  0.0587  0.3526
   43DOPE  H13R 5483   1.873   3.095  14.668 -1.3424  1.1525 -0.6449
   43DOPE  H13S 5484   1.856   3.102  14.490  0.9782 -1.8571 -1.4718
   43DOPE  C214 5485   2.058   3.030  14.575  0.5972  0.0422  0.2131
   43DOPE  H14R 5486   2.093   2.935  14.530  1.2924 -0.2026  1.2484
   43DOPE  H14S 5487   2.082   3.021  14.683 -3.6222 -2.3561  1.1996
   43DOPE  C215 5488   2.141   3.144  14.513  0.2206  0.2678 -0.3988
   43DOPE  H15R 5489   2.238   3.139  14.567 -0.3533 -1.0493  0.5590
   43DOPE  H15S 5490   2.103   3.246  14.537  0.2373 -0.2866  2.3032
   43DOPE  C216 5491   2.165   3.144  14.357  0.0365 -0.5220 -0.0991
   43DOPE  H16R 5492   2.066   3.146  14.307 -0.1056  0.7952  0.2109
   43DOPE  H16S 5493   2.216   3.047  14.337 -0.0266 -0.5967  0.0979
   43DOPE  C217 5494   2.244   3.262  14.296  0.3316 -0.3753  0.5258
   43DOPE  H17R 5495   2.183   3.351  14.320 -0.4166 -0.8496  0.4224
   43DOPE  H17S 5496   2.241   3.257  14.185 -0.8077 -1.7413  0.5817
   43DOPE  C218 5497   2.392   3.269  14.331  0.1647 -0.9300 -0.9579
   43DOPE  H18R 5498   2.410   3.230  14.434 -1.2761  0.2467 -0.2324
   43DOPE  H18S 5499   2.437   3.370  14.332  0.4573 -1.0610 -0.5992
   43DOPE  H18T 5500   2.459   3.210  14.264  3.3172 -0.1156  1.2557
   43DOPE   C33 5501   0.958   2.256  13.747 -0.6437 -0.1474  0.6559
   43DOPE   H3X 5502   0.993   2.162  13.795 -0.9180  0.2896  1.7474
   43DOPE   H3Y 5503   0.849   2.250  13.724 -0.6437  1.1190  0.2288
   43DOPE   C34 5504   0.979   2.374  13.842  0.0459 -0.7215  0.5077
   43DOPE   H4X 5505   1.082   2.379  13.882 -0.2279 -0.5753  1.2232
   43DOPE   H4Y 5506   0.961   2.462  13.776 -1.0626  1.0188  2.9342
   43DOPE   C35 5507   0.892   2.366  13.965 -0.1294  0.3481  0.4475
   43DOPE   H5X 5508   0.940   2.441  14.032  1.3091 -1.1818  1.1969
   43DOPE   H5Y 5509   0.897   2.268  14.015  1.8242  0.6317  0.8781
   43DOPE   C36 5510   0.750   2.402  13.930 -0.5741 -1.0099 -0.5773
   43DOPE   H6X 5511   0.685   2.317  13.901 -2.0620 -0.9535  2.1837
   43DOPE   H6Y 5512   0.751   2.477  13.848  0.3851 -0.5711 -0.1864
   43DOPE   C37 5513   0.677   2.473  14.050 -0.2783  0.1801 -0.2317
   43DOPE   H7X 5514   0.750   2.542  14.096  2.3026 -1.4437 -1.6412
   43DOPE   H7Y 5515   0.589   2.529  14.011 -0.4221 -0.5587 -0.9955
   43DOPE   C38 5516   0.630   2.362  14.156  0.4674  0.7601  0.6325
   43DOPE   H8X 5517   0.720   2.302  14.182  0.9191  0.6164 -1.0966
   43DOPE   H8Y 5518   0.554   2.297  14.107  0.2249  1.3464  0.2138
   43DOPE   C39 5519   0.563   2.407  14.284  0.2993 -0.0046 -0.0242
   43DOPE   H9X 5520   0.481   2.480  14.275  0.9599  0.7174 -0.3180
   43DOPE  C310 5521   0.604   2.379  14.415  0.2093  0.0795 -0.1788
   43DOPE  H10X 5522   0.537   2.424  14.489 -0.6594 -0.6886 -0.4752
   43DOPE  C311 5523   0.725   2.304  14.471  0.5217  0.6695 -0.3367
   43DOPE  H11X 5524   0.807   2.288  14.398 -0.3292  2.0599 -1.6822
   43DOPE  H11Y 5525   0.761   2.380  14.543  1.3709 -0.0913  0.0487
   43DOPE  C312 5526   0.686   2.168  14.542  0.4509  0.6284 -0.3719
   43DOPE  H12X 5527   0.773   2.123  14.593 -0.7609 -0.5304  0.7395
   43DOPE  H12Y 5528   0.649   2.111  14.454 -0.8734  2.8692 -1.3745
   43DOPE  C313 5529   0.565   2.169  14.634  0.1174  1.1418 -0.4548
   43DOPE  H13X 5530   0.581   2.231  14.725 -0.1899 -0.6130  0.8374
   43DOPE  H13Y 5531   0.475   2.212  14.586 -0.9832 -1.3286 -0.7676
   43DOPE  C314 5532   0.518   2.028  14.685  0.0260  0.3773  0.0497
   43DOPE  H14X 5533   0.609   1.991  14.738 -0.1344  1.2060  0.9341
   43DOPE  H14Y 5534   0.504   1.956  14.602  0.1490  1.0755 -0.5875
   43DOPE  C315 5535   0.405   2.017  14.782 -0.7707 -0.7869  0.9493
   43DOPE  H15X 5536   0.311   2.004  14.724 -0.6991  1.4261  0.2102
   43DOPE  H15Y 5537   0.395   2.120  14.823  1.5689  0.2974 -0.9651
   43DOPE  C316 5538   0.414   1.920  14.898  0.6451 -0.3680 -0.3055
   43DOPE  H16X 5539   0.427   1.814  14.868  0.0747 -0.5285 -0.0025
   43DOPE  H16Y 5540   0.314   1.911  14.944 -0.3873 -0.7075 -2.4853
   43DOPE  C317 5541   0.525   1.958  14.989 -0.0094  0.3598 -0.1015
   43DOPE  H17X 5542   0.625   1.926  14.953 -0.6505 -1.6017 -0.2590
   43DOPE  H17Y 5543   0.522   2.068  15.002 -1.1566  0.1771  1.4921
   43DOPE  C318 5544   0.518   1.895  15.127  0.1080 -0.2392  0.7190
   43DOPE  H18X 5545   0.416   1.905  15.171 -0.7668 -1.2827 -0.9863
   43DOPE  H18Y 5546   0.533   1.786  15.117 -0.3039 -0.5906  3.2081
   43DOPE  H18Z 5547   0.582   1.938  15.207  1.5989 -1.1513  0.0441
   44DOPE     N 5548   3.615   1.147  13.294 -0.5342 -0.6784 -0.1597
   44DOPE   HN1 5549   3.613   1.243  13.256 -0.3480 -0.6721 -0.1534
   44DOPE   HN2 5550   3.545   1.092  13.240 -2.0450  1.2755 -0.2817
   44DOPE   HN3 5551   3.580   1.162  13.391 -0.7521  0.0486 -0.3529
   44DOPE   C12 5552   3.741   1.071  13.305 -0.2332  0.5432 -0.9598
   44DOPE  H12A 5553   3.728   0.988  13.233  0.4001  1.1070 -1.7437
   44DOPE  H12B 5554   3.766   1.025  13.404  0.6079 -0.3890 -1.5791
   44DOPE   C11 5555   3.865   1.155  13.260  0.0852 -1.0763  0.0362
   44DOPE  H11A 5556   3.854   1.199  13.158  0.6533 -0.6996  0.1331
   44DOPE  H11B 5557   3.942   1.075  13.258 -1.1644 -2.3559  1.1747
   44DOPE     P 5558   3.930   1.244  13.498  0.1081  0.1124 -0.3061
   44DOPE   O13 5559   3.804   1.207  13.565 -0.3331 -0.5696 -0.3174
   44DOPE   O14 5560   4.006   1.364  13.541  0.3668  0.3616 -0.4463
   44DOPE   O11 5561   4.028   1.121  13.484  0.2213 -0.2987 -0.4719
   44DOPE   O12 5562   3.899   1.269  13.348  0.1948  0.6301  0.1458
   44DOPE    C1 5563   4.021   1.002  13.565 -0.3402 -0.1749 -0.3100
   44DOPE    HA 5564   4.065   0.921  13.502  1.9942  0.6886  0.1155
   44DOPE    HB 5565   3.917   0.963  13.573 -0.2879 -0.3019 -0.2443
   44DOPE    C2 5566   4.109   0.999  13.694  0.4368 -0.1761  0.3152
   44DOPE    HS 5567   4.099   0.898  13.740  0.5981  0.2285  1.2748
   44DOPE   O21 5568   4.072   1.101  13.790 -0.2480  0.1189  0.3921
   44DOPE   C21 5569   3.950   1.072  13.842  0.0790 -0.2140 -0.0107
   44DOPE   O22 5570   3.879   0.977  13.815 -0.3942 -0.2044  0.1467
   44DOPE   C22 5571   3.915   1.190  13.924  0.0885  0.1406 -0.2681
   44DOPE   H2R 5572   3.964   1.274  13.870  0.9199  0.2605  0.6617
   44DOPE   H2S 5573   3.960   1.181  14.025  0.4471  1.5168 -0.2885
   44DOPE    C3 5574   4.255   1.020  13.655 -0.5082  0.0627  0.1680
   44DOPE    HX 5575   4.271   1.105  13.586 -1.8178  1.0886  1.0966
   44DOPE    HY 5576   4.288   0.933  13.593 -0.8209  0.9477 -1.2782
   44DOPE   O31 5577   4.351   1.025  13.769 -0.6164 -0.8282 -0.0140
   44DOPE   C31 5578   4.466   1.090  13.762 -0.2299 -0.0933 -0.2407
   44DOPE   O32 5579   4.510   1.151  13.665 -0.1697 -0.1459  0.2710
   44DOPE   C32 5580   4.545   1.089  13.901  0.1474  0.7507  0.2073
   44DOPE   H2X 5581   4.520   1.184  13.952  0.7481  1.5421 -0.9321
   44DOPE   H2Y 5582   4.518   0.997  13.958  0.8659  1.0352  1.0376
   44DOPE   C23 5583   3.760   1.212  13.937  0.2419 -0.5055  0.7329
   44DOPE   H3R 5584   3.706   1.134  13.996  1.6340 -0.1255  2.5739
   44DOPE   H3S 5585   3.717   1.220  13.835  1.3803 -1.2869  0.1684
   44DOPE   C24 5586   3.733   1.341  14.005  0.6479 -0.2172 -0.0038
   44DOPE   H4R 5587   3.779   1.424  13.947 -0.0005  1.8596  2.2969
   44DOPE   H4S 5588   3.790   1.347  14.100  1.7359  0.8934 -0.6841
   44DOPE   C25 5589   3.582   1.369  14.016 -0.6840 -0.0726 -0.1669
   44DOPE   H5R 5590   3.530   1.314  14.097 -1.0384  1.8146  0.9559
   44DOPE   H5S 5591   3.530   1.346  13.921  0.4470 -1.2051 -0.5435
   44DOPE   C26 5592   3.546   1.510  14.050 -0.1147  1.2791 -0.0107
   44DOPE   H6R 5593   3.554   1.565  13.953  0.0353  1.5603  0.1607
   44DOPE   H6S 5594   3.608   1.549  14.133  0.0896  0.7187  0.1034
   44DOPE   C27 5595   3.407   1.512  14.113  0.0237 -0.3644  0.4058
   44DOPE   H7R 5596   3.423   1.490  14.220  1.3845  0.7930  0.4699
   44DOPE   H7S 5597   3.345   1.430  14.072 -2.5956  1.3872  0.5705
   44DOPE   C28 5598   3.334   1.646  14.094  0.1455 -0.0682  0.4014
   44DOPE   H8R 5599   3.315   1.650  13.984  1.2668 -0.5441  0.1817
   44DOPE   H8S 5600   3.396   1.737  14.109  0.9582 -0.3717 -0.9530
   44DOPE   C29 5601   3.210   1.656  14.180  0.1800  0.5673  0.2171
   44DOPE   H9R 5602   3.131   1.586  14.149  1.4110 -1.0320  0.5540
   44DOPE  C210 5603   3.189   1.743  14.278  0.1064  0.6657  0.1679
   44DOPE  H10R 5604   3.093   1.728  14.330 -0.4165 -1.1761 -1.2257
   44DOPE  C211 5605   3.280   1.851  14.337  0.0364  0.3143  0.0229
   44DOPE  H11R 5606   3.219   1.936  14.373  0.3500 -0.4316  2.4487
   44DOPE  H11S 5607   3.353   1.888  14.261  1.5736 -2.6632 -0.0924
   44DOPE  C212 5608   3.367   1.801  14.450 -0.1026 -0.5903 -0.5862
   44DOPE  H12R 5609   3.430   1.716  14.415  1.4680  0.7333 -1.1077
   44DOPE  H12S 5610   3.306   1.762  14.533  0.4852 -0.2913 -0.0033
   44DOPE  C213 5611   3.460   1.913  14.486 -0.3152 -0.4654 -0.0277
   44DOPE  H13R 5612   3.399   2.005  14.489 -2.6018 -1.9069 -0.0118
   44DOPE  H13S 5613   3.536   1.921  14.405  0.0905 -1.4021  0.2420
   44DOPE  C214 5614   3.542   1.890  14.616 -0.0755  0.0085  0.4110
   44DOPE  H14R 5615   3.471   1.876  14.700 -0.5747 -1.5572 -0.2383
   44DOPE  H14S 5616   3.605   1.981  14.626  1.1503 -0.5535 -1.5562
   44DOPE  C215 5617   3.626   1.768  14.612 -1.3216  0.2774 -0.1272
   44DOPE  H15R 5618   3.563   1.678  14.602 -2.3302  0.8892  0.5426
   44DOPE  H15S 5619   3.682   1.761  14.708  2.8769  1.3480 -2.2528
   44DOPE  C216 5620   3.722   1.764  14.487  0.2331 -0.2358  0.1475
   44DOPE  H16R 5621   3.740   1.861  14.436  2.6998 -1.3354 -1.2744
   44DOPE  H16S 5622   3.671   1.698  14.414  0.0764  0.7672 -0.6557
   44DOPE  C217 5623   3.860   1.704  14.524 -0.8120 -0.0509  0.1278
   44DOPE  H17R 5624   3.836   1.602  14.561  3.2918 -1.6848 -1.1712
   44DOPE  H17S 5625   3.907   1.762  14.606  0.4526  2.0508 -1.9669
   44DOPE  C218 5626   3.960   1.669  14.410  1.4045  0.4818 -0.1405
   44DOPE  H18R 5627   3.915   1.597  14.340  0.0593  2.3688 -1.3160
   44DOPE  H18S 5628   4.053   1.624  14.451  1.3822  1.1057  0.6174
   44DOPE  H18T 5629   3.984   1.762  14.354 -3.3725  0.5459 -2.5785
   44DOPE   C33 5630   4.702   1.112  13.890  0.2312 -0.0179 -1.1557
   44DOPE   H3X 5631   4.710   1.214  13.847  0.0150  1.4980  2.1646
   44DOPE   H3Y 5632   4.754   1.028  13.839 -1.0164 -2.2960  1.1131
   44DOPE   C34 5633   4.796   1.125  14.018 -0.1551  0.2337  0.8620
   44DOPE   H4X 5634   4.787   1.029  14.072 -0.9549  1.5860  3.2614
   44DOPE   H4Y 5635   4.901   1.132  13.981 -0.7554 -0.5515 -1.1242
   44DOPE   C35 5636   4.748   1.234  14.106  0.1426 -0.8259 -0.3419
   44DOPE   H5X 5637   4.646   1.216  14.144  0.9933 -2.2021  1.4126
   44DOPE   H5Y 5638   4.747   1.331  14.051 -0.9872 -1.2024 -1.0250
   44DOPE   C36 5639   4.832   1.239  14.228 -0.4798  0.1976  0.1436
   44DOPE   H6X 5640   4.940   1.252  14.204 -0.3759  3.9058  1.7995
   44DOPE   H6Y 5641   4.825   1.145  14.286  1.3456  1.4934  2.7152
   44DOPE   C37 5642   4.800   1.367  14.310 -0.5328 -0.0386  0.6067
   44DOPE   H7X 5643   4.782   1.445  14.234  0.3367 -2.0805 -1.8336
   44DOPE   H7Y 5644   4.700   1.352  14.357 -0.1584 -0.8445  1.1849
   44DOPE   C38 5645   4.917   1.408  14.406  0.2937  0.8792  0.5935
   44DOPE   H8X 5646   4.878   1.499  14.456 -1.3019 -0.0426  1.0958
   44DOPE   H8Y 5647   5.014   1.432  14.358  1.2934  1.5228  2.8137
   44DOPE   C39 5648   4.937   1.279  14.496  0.0294 -0.3685 -0.8009
   44DOPE   H9X 5649   5.010   1.204  14.463  1.2955 -0.1228  1.2660
   44DOPE  C310 5650   4.882   1.266  14.615 -0.7250  0.0608  0.0825
   44DOPE  H10X 5651   4.905   1.174  14.671  0.2984 -1.9827 -3.3711
   44DOPE  C311 5652   4.791   1.366  14.679 -0.1702 -0.3041 -0.4315
   44DOPE  H11X 5653   4.822   1.380  14.784 -1.0525 -0.9036 -0.0869
   44DOPE  H11Y 5654   4.792   1.468  14.633 -0.7687 -0.2985 -0.4339
   44DOPE  C312 5655   4.646   1.328  14.669 -0.6776  0.0789 -0.0093
   44DOPE  H12X 5656   4.631   1.229  14.717 -2.2077  1.0907  1.7545
   44DOPE  H12Y 5657   4.613   1.329  14.563  1.2713  3.6391 -0.7542
   44DOPE  C313 5658   4.551   1.427  14.736 -0.6056  0.2216 -0.5257
   44DOPE  H13X 5659   4.586   1.453  14.838  0.0749  1.5469 -1.0602
   44DOPE  H13Y 5660   4.555   1.525  14.683  0.3198  1.3598  1.5102
   44DOPE  C314 5661   4.406   1.374  14.738  0.5108  0.7330 -0.2037
   44DOPE  H14X 5662   4.399   1.273  14.783 -0.0124  1.1691  0.7098
   44DOPE  H14Y 5663   4.380   1.364  14.631 -0.1179 -3.2021  0.1667
   44DOPE  C315 5664   4.306   1.455  14.814  0.1382 -0.5657 -0.6333
   44DOPE  H15X 5665   4.328   1.564  14.820  1.5370 -0.9047  1.2139
   44DOPE  H15Y 5666   4.287   1.411  14.914 -1.7594 -1.2400 -1.2386
   44DOPE  C316 5667   4.164   1.458  14.757  1.3549  0.1058  0.7854
   44DOPE  H16X 5668   4.164   1.526  14.668 -1.5056  1.2435  1.5322
   44DOPE  H16Y 5669   4.103   1.509  14.835  2.6674  1.4969  0.9592
   44DOPE  C317 5670   4.105   1.321  14.716 -0.2338 -0.7096 -0.9187
   44DOPE  H17X 5671   4.014   1.325  14.652  0.3330 -2.6147 -1.9068
   44DOPE  H17Y 5672   4.183   1.268  14.657  0.1238 -0.2906 -0.8259
   44DOPE  C318 5673   4.073   1.231  14.830  0.5621  0.3591 -0.1432
   44DOPE  H18X 5674   4.027   1.134  14.801 -1.3230  0.8822  0.8924
   44DOPE  H18Y 5675   4.166   1.209  14.887  1.7688 -0.9532 -2.4597
   44DOPE  H18Z 5676   4.002   1.280  14.901  0.7033 -0.8586  0.8741
   45DOPE     N 5677   5.323   2.200  12.772 -0.7241  0.4694  0.0832
   45DOPE   HN1 5678   5.380   2.142  12.706  1.0288  1.2865  0.8107
   45DOPE   HN2 5679   5.274   2.267  12.710 -1.6996  0.2864  0.6490
   45DOPE   HN3 5680   5.387   2.257  12.831 -0.7747  0.8390 -0.2147
   45DOPE   C12 5681   5.228   2.116  12.854  0.2592  0.7159  0.0304
   45DOPE  H12A 5682   5.290   2.061  12.928 -0.2615  1.5873  1.1453
   45DOPE  H12B 5683   5.176   2.047  12.784  0.2481  0.3955  0.3511
   45DOPE   C11 5684   5.124   2.203  12.938 -0.3507  0.2996  0.3273
   45DOPE  H11A 5685   5.080   2.273  12.864 -0.9751 -0.1989  0.2195
   45DOPE  H11B 5686   5.177   2.259  13.018  1.0868 -0.7865  0.1693
   45DOPE     P 5687   4.911   2.165  13.095 -0.2768 -0.2441 -0.0662
   45DOPE   O13 5688   4.802   2.070  13.099  0.0596 -0.4154 -0.1805
   45DOPE   O14 5689   4.883   2.309  13.075 -0.3810  0.0914 -0.0209
   45DOPE   O11 5690   4.986   2.148  13.227 -0.2785  0.1158  0.3354
   45DOPE   O12 5691   5.024   2.115  12.982 -0.3079  0.2111  0.7026
   45DOPE    C1 5692   4.965   2.029  13.307  0.1067 -0.9403  0.2896
   45DOPE    HA 5693   4.951   1.938  13.245  0.6130 -0.6719 -0.2302
   45DOPE    HB 5694   4.877   2.035  13.374  1.0156 -0.3863  1.4725
   45DOPE    C2 5695   5.091   1.993  13.391  0.4185  0.1833 -0.0397
   45DOPE    HS 5696   5.066   1.901  13.449 -2.2423  1.8339  1.6574
   45DOPE   O21 5697   5.122   2.101  13.476 -0.7118  0.2321  0.0053
   45DOPE   C21 5698   5.048   2.107  13.582 -0.2849  0.4494 -0.0421
   45DOPE   O22 5699   4.965   2.023  13.615  0.0860 -0.2468 -0.4997
   45DOPE   C22 5700   5.071   2.243  13.650 -0.1402  0.4489  0.0863
   45DOPE   H2R 5701   5.004   2.316  13.599 -0.8734 -0.4405 -0.2406
   45DOPE   H2S 5702   5.173   2.273  13.618  0.5142 -0.9335  0.8187
   45DOPE    C3 5703   5.223   1.953  13.319 -0.1997  0.4041 -0.6183
   45DOPE    HX 5704   5.251   2.040  13.255  0.8074 -0.0925 -0.8730
   45DOPE    HY 5705   5.206   1.860  13.261  1.0932  0.0882 -0.5345
   45DOPE   O31 5706   5.330   1.929  13.420 -0.1076  0.0975 -0.0554
   45DOPE   C31 5707   5.356   1.807  13.465  0.6040 -0.1049  0.2680
   45DOPE   O32 5708   5.307   1.703  13.426 -0.1155 -0.2242  0.5616
   45DOPE   C32 5709   5.458   1.812  13.573 -0.3241  0.4393  0.5830
   45DOPE   H2X 5710   5.488   1.707  13.592  0.3765  0.4220 -0.4925
   45DOPE   H2Y 5711   5.544   1.877  13.544  1.3677 -1.3811  1.2891
   45DOPE   C23 5712   5.064   2.230  13.800 -0.4398  0.0451 -0.1172
   45DOPE   H3R 5713   5.117   2.323  13.831 -1.0252  0.1671  0.5426
   45DOPE   H3S 5714   5.122   2.142  13.835 -0.6682 -0.5655 -1.2417
   45DOPE   C24 5715   4.913   2.231  13.852 -0.0665  0.2825  0.2829
   45DOPE   H4R 5716   4.861   2.138  13.819 -1.1018  0.5561  1.0794
   45DOPE   H4S 5717   4.876   2.323  13.803 -1.4923  0.2588  1.2645
   45DOPE   C25 5718   4.900   2.244  14.006 -0.2615 -0.1290 -0.4487
   45DOPE   H5R 5719   4.869   2.349  14.026 -0.3784 -0.4109  0.9239
   45DOPE   H5S 5720   4.998   2.212  14.045 -0.3595 -0.6635 -0.6221
   45DOPE   C26 5721   4.788   2.153  14.066 -0.5782  0.1108 -0.4188
   45DOPE   H6R 5722   4.806   2.044  14.070 -2.0425 -0.1508 -0.7130
   45DOPE   H6S 5723   4.693   2.170  14.012 -0.4175 -0.4561 -0.8882
   45DOPE   C27 5724   4.756   2.200  14.211  0.2006 -0.0901 -0.3052
   45DOPE   H7R 5725   4.745   2.310  14.227  3.9417  0.1838  1.5514
   45DOPE   H7S 5726   4.848   2.162  14.261 -0.6265 -2.5478 -0.5109
   45DOPE   C28 5727   4.641   2.124  14.275  0.4402 -0.2929 -0.1769
   45DOPE   H8R 5728   4.642   2.022  14.232 -0.9065  0.1279 -1.2667
   45DOPE   H8S 5729   4.556   2.183  14.235  2.4205  2.2367 -0.9365
   45DOPE   C29 5730   4.647   2.127  14.433 -0.1561 -0.2632  0.2987
   45DOPE   H9R 5731   4.659   2.228  14.474 -0.2317 -0.3885  0.6252
   45DOPE  C210 5732   4.656   2.025  14.517  0.6022  0.1220  0.4722
   45DOPE  H10R 5733   4.663   2.041  14.626  0.7813  2.1845  0.1934
   45DOPE  C211 5734   4.648   1.880  14.471 -0.7392  0.4743 -0.5096
   45DOPE  H11R 5735   4.629   1.868  14.363 -0.0992  3.5145 -1.0527
   45DOPE  H11S 5736   4.558   1.839  14.523 -1.7181  2.7418 -0.3015
   45DOPE  C212 5737   4.776   1.802  14.498  0.1761 -0.4127  0.7218
   45DOPE  H12R 5738   4.762   1.698  14.461 -2.0874  0.1118 -0.0153
   45DOPE  H12S 5739   4.805   1.794  14.605 -0.9333  2.1688  1.2798
   45DOPE  C213 5740   4.895   1.878  14.426 -0.8823  0.1538 -0.6310
   45DOPE  H13R 5741   4.892   1.987  14.448  0.2776  0.4664 -1.8840
   45DOPE  H13S 5742   4.891   1.863  14.316 -1.0477 -2.8614 -0.2914
   45DOPE  C214 5743   5.035   1.831  14.484 -0.1648  0.1939  0.0904
   45DOPE  H14R 5744   5.052   1.724  14.460  0.2684 -0.0938  1.5954
   45DOPE  H14S 5745   5.026   1.831  14.594 -1.1654  0.0625  0.0167
   45DOPE  C215 5746   5.147   1.927  14.436  0.4145 -0.0188  0.1040
   45DOPE  H15R 5747   5.121   2.023  14.485  0.6384  0.1518 -0.1108
   45DOPE  H15S 5748   5.130   1.944  14.327 -2.7059 -0.2808  0.4508
   45DOPE  C216 5749   5.289   1.881  14.466 -0.3669  0.1104 -0.3358
   45DOPE  H16R 5750   5.306   1.777  14.430  0.5645 -0.0499  0.5207
   45DOPE  H16S 5751   5.296   1.884  14.577  0.8447  1.0211 -0.4217
   45DOPE  C217 5752   5.388   1.982  14.408  0.4358 -0.0778  0.1472
   45DOPE  H17R 5753   5.416   2.060  14.482  2.5045  0.7460 -1.4076
   45DOPE  H17S 5754   5.343   2.026  14.316  2.3637  0.2494 -0.6888
   45DOPE  C218 5755   5.507   1.896  14.363  0.2827  1.1982 -0.2036
   45DOPE  H18R 5756   5.469   1.830  14.283  0.6998  0.2000  0.4056
   45DOPE  H18S 5757   5.542   1.827  14.442  0.6704  0.5610 -0.9255
   45DOPE  H18T 5758   5.592   1.959  14.328 -0.1727  3.2052  2.0365
   45DOPE   C33 5759   5.398   1.854  13.708  0.5433  0.6797 -0.0095
   45DOPE   H3X 5760   5.361   1.958  13.713 -0.7153  0.3292 -1.4580
   45DOPE   H3Y 5761   5.480   1.832  13.781 -1.6196 -0.3268  2.2883
   45DOPE   C34 5762   5.284   1.752  13.743 -0.7610 -0.7363  0.6272
   45DOPE   H4X 5763   5.196   1.777  13.681  0.9320  2.8392 -0.5970
   45DOPE   H4Y 5764   5.317   1.648  13.721 -0.9515 -0.4335 -1.1833
   45DOPE   C35 5765   5.228   1.777  13.880  0.1316  0.4330 -0.1065
   45DOPE   H5X 5766   5.205   1.885  13.897  0.4574  0.6106 -0.7835
   45DOPE   H5Y 5767   5.312   1.751  13.948  1.6883  0.9982 -1.7661
   45DOPE   C36 5768   5.095   1.699  13.911  0.4109 -0.5366 -0.0027
   45DOPE   H6X 5769   5.105   1.593  13.879 -1.8150 -0.4371 -1.1983
   45DOPE   H6Y 5770   5.019   1.748  13.847  0.9295 -0.5858 -0.6697
   45DOPE   C37 5771   5.039   1.708  14.058  0.0871 -0.3907  0.3669
   45DOPE   H7X 5772   5.134   1.694  14.115 -0.9459 -4.0832  1.5166
   45DOPE   H7Y 5773   5.002   1.808  14.087 -0.0243 -0.5301  0.7166
   45DOPE   C38 5774   4.951   1.596  14.100 -0.2159 -0.9559  0.0871
   45DOPE   H8X 5775   4.894   1.630  14.190 -1.2946  1.5107 -1.4113
   45DOPE   H8Y 5776   5.006   1.503  14.126 -0.3203 -1.7940 -2.3835
   45DOPE   C39 5777   4.846   1.566  13.998 -0.2216 -0.7438  1.0816
   45DOPE   H9X 5778   4.869   1.486  13.926 -1.8690  0.8416 -1.3901
   45DOPE  C310 5779   4.724   1.633  13.984  0.5949  0.3448 -0.2656
   45DOPE  H10X 5780   4.651   1.606  13.907  2.5588  2.9676 -3.2663
   45DOPE  C311 5781   4.682   1.753  14.071 -0.3269 -0.0704  0.0930
   45DOPE  H11X 5782   4.732   1.764  14.169 -0.2366  0.3712  0.0032
   45DOPE  H11Y 5783   4.699   1.849  14.017  0.9402  0.0449  0.6664
   45DOPE  C312 5784   4.530   1.756  14.114 -0.2066 -0.1125  0.5666
   45DOPE  H12X 5785   4.460   1.743  14.028 -2.1510  1.6373  1.7802
   45DOPE  H12Y 5786   4.502   1.855  14.155 -2.5243  0.0541 -1.2039
   45DOPE  C313 5787   4.501   1.640  14.212  0.4175  0.3073 -0.0576
   45DOPE  H13X 5788   4.518   1.542  14.163 -0.0224 -0.1268  0.6426
   45DOPE  H13Y 5789   4.570   1.642  14.298  1.3476 -2.2280 -0.6672
   45DOPE  C314 5790   4.356   1.627  14.254  0.3119  0.4515  0.4866
   45DOPE  H14X 5791   4.314   1.721  14.295 -0.4905  0.2593  0.1253
   45DOPE  H14Y 5792   4.351   1.554  14.338 -1.5398 -1.4806 -1.1605
   45DOPE  C315 5793   4.238   1.584  14.154  0.8472 -0.2996 -0.3680
   45DOPE  H15X 5794   4.253   1.661  14.076  0.6636  0.7075  0.5807
   45DOPE  H15Y 5795   4.138   1.595  14.199  1.2645  0.7398  0.3329
   45DOPE  C316 5796   4.250   1.456  14.077 -0.8948 -0.0668 -0.0698
   45DOPE  H16X 5797   4.342   1.451  14.015 -1.2332 -0.9480 -0.5214
   45DOPE  H16Y 5798   4.169   1.443  14.002  0.2631 -2.6290 -1.0363
   45DOPE  C317 5799   4.246   1.328  14.164  0.5605  0.5629 -1.1310
   45DOPE  H17X 5800   4.235   1.245  14.090  1.4196 -1.2892  0.7295
   45DOPE  H17Y 5801   4.343   1.316  14.215 -0.3402 -0.3801  0.4387
   45DOPE  C318 5802   4.126   1.318  14.267  0.4441 -0.2959 -0.5153
   45DOPE  H18X 5803   4.133   1.399  14.342  3.5872 -0.9520  0.0376
   45DOPE  H18Y 5804   4.036   1.343  14.206  0.7864 -0.1128 -0.9572
   45DOPE  H18Z 5805   4.129   1.219  14.316  1.0405 -0.2195 -0.3938
   46DOPE     N 5806   5.626   8.077  12.580  0.1565  0.3063 -0.2817
   46DOPE   HN1 5807   5.636   8.066  12.477 -2.2450 -2.7838 -0.3533
   46DOPE   HN2 5808   5.563   7.997  12.602 -0.6209  1.2792  1.1533
   46DOPE   HN3 5809   5.580   8.166  12.605 -0.7517 -0.2921  0.2464
   46DOPE   C12 5810   5.767   8.072  12.636  0.3638  0.8553 -0.3605
   46DOPE  H12A 5811   5.817   8.163  12.594  0.9528  0.4131 -0.6295
   46DOPE  H12B 5812   5.824   7.981  12.608  2.0585  0.8775  2.5750
   46DOPE   C11 5813   5.777   8.084  12.794  0.3471 -0.2866 -1.2446
   46DOPE  H11A 5814   5.726   8.178  12.823 -0.0704 -0.8734 -0.0095
   46DOPE  H11B 5815   5.885   8.097  12.820  0.7734 -1.3066 -2.4004
   46DOPE     P 5816   5.787   7.851  12.927 -0.0801  0.3581  0.1581
   46DOPE   O13 5817   5.874   7.785  12.819 -0.5661  0.2964 -0.1118
   46DOPE   O14 5818   5.690   7.760  13.000  0.2091  0.2763  0.9617
   46DOPE   O11 5819   5.885   7.917  13.029  0.0879 -0.3173  0.2647
   46DOPE   O12 5820   5.712   7.975  12.856  0.3321  0.3243 -0.7575
   46DOPE    C1 5821   5.842   7.994  13.140 -0.2334 -0.5667  0.2787
   46DOPE    HA 5822   5.789   8.087  13.110  1.3735  0.3196  0.0735
   46DOPE    HB 5823   5.935   8.033  13.187 -1.0156  2.2869 -0.3543
   46DOPE    C2 5824   5.764   7.925  13.254  0.1833  0.0096 -0.3386
   46DOPE    HS 5825   5.660   7.907  13.220  0.0436 -1.6805  0.8375
   46DOPE   O21 5826   5.779   8.025  13.362 -0.5143 -0.7430 -0.0236
   46DOPE   C21 5827   5.681   8.028  13.452 -0.2639 -0.1205  0.6123
   46DOPE   O22 5828   5.575   7.969  13.437 -0.0775 -0.3391 -0.2063
   46DOPE   C22 5829   5.728   8.111  13.574  0.7644  0.2206  0.1810
   46DOPE   H2R 5830   5.711   8.215  13.538  0.6232 -0.0973 -0.6979
   46DOPE   H2S 5831   5.837   8.095  13.591  0.3635  0.3893  3.3589
   46DOPE    C3 5832   5.821   7.791  13.302  0.1243  0.5801 -0.2172
   46DOPE    HX 5833   5.826   7.722  13.216 -0.6269  0.8734 -0.5059
   46DOPE    HY 5834   5.752   7.745  13.376 -0.8914  0.1554 -1.4119
   46DOPE   O31 5835   5.953   7.807  13.362 -0.3138  0.8174 -0.1525
   46DOPE   C31 5836   5.981   7.706  13.454  0.8592  0.1514  0.2584
   46DOPE   O32 5837   5.918   7.602  13.471 -0.4217  0.0035  1.2031
   46DOPE   C32 5838   6.095   7.743  13.536 -0.0916 -0.1532 -0.4621
   46DOPE   H2X 5839   6.089   7.854  13.548  0.4418  0.1876 -2.9360
   46DOPE   H2Y 5840   6.103   7.691  13.634 -2.0148 -0.8461 -0.6269
   46DOPE   C23 5841   5.658   8.088  13.708 -0.0620  0.1777  0.3249
   46DOPE   H3R 5842   5.550   8.106  13.689 -0.0105 -1.1895 -1.6703
   46DOPE   H3S 5843   5.696   8.165  13.777  4.3559 -0.8792 -0.6140
   46DOPE   C24 5844   5.684   7.950  13.765  0.1875  0.0849 -0.2395
   46DOPE   H4R 5845   5.790   7.940  13.798  0.4150  1.4848 -0.4762
   46DOPE   H4S 5846   5.662   7.859  13.706 -1.2774 -0.2930  0.8417
   46DOPE   C25 5847   5.596   7.922  13.889 -0.0154  0.6901  0.1090
   46DOPE   H5R 5848   5.621   7.997  13.966  0.3793  1.0444 -0.3618
   46DOPE   H5S 5849   5.625   7.821  13.923  0.8974  0.2859 -1.7234
   46DOPE   C26 5850   5.445   7.940  13.865 -0.1659  0.6243  0.1413
   46DOPE   H6R 5851   5.433   7.878  13.773 -1.5375  2.0693 -0.6933
   46DOPE   H6S 5852   5.414   8.043  13.838 -1.2941  0.2792  0.0634
   46DOPE   C27 5853   5.371   7.865  13.978  0.2063 -0.4244 -0.0945
   46DOPE   H7R 5854   5.408   7.761  13.966  0.7533 -0.2486  0.0393
   46DOPE   H7S 5855   5.261   7.861  13.958  0.4048 -2.1695 -1.0431
   46DOPE   C28 5856   5.397   7.910  14.119  0.3596 -0.1915 -0.2975
   46DOPE   H8R 5857   5.506   7.899  14.133  0.3059 -1.5638 -0.8627
   46DOPE   H8S 5858   5.348   7.840  14.190  0.1079  0.8831  0.6128
   46DOPE   C29 5859   5.337   8.046  14.140  0.1655 -0.2235  0.1849
   46DOPE   H9R 5860   5.237   8.071  14.101  1.4449  2.2567 -1.8278
   46DOPE  C210 5861   5.408   8.141  14.196  0.2227  0.1541 -0.3323
   46DOPE  H10R 5862   5.365   8.242  14.203 -0.0610 -0.0309  0.7059
   46DOPE  C211 5863   5.538   8.126  14.272 -0.0918  0.1885 -0.4078
   46DOPE  H11R 5864   5.558   8.018  14.292 -0.7101  0.3114  0.9635
   46DOPE  H11S 5865   5.518   8.165  14.374 -2.7618 -1.3180 -0.2731
   46DOPE  C212 5866   5.657   8.189  14.202 -0.2677 -0.0076 -0.3909
   46DOPE  H12R 5867   5.651   8.160  14.095 -0.8815 -1.7247  0.0665
   46DOPE  H12S 5868   5.745   8.138  14.247 -1.3340 -1.6805 -0.1050
   46DOPE  C213 5869   5.654   8.345  14.235  0.0717  0.3199  0.0828
   46DOPE  H13R 5870   5.634   8.358  14.344 -1.5752 -2.3289  0.1690
   46DOPE  H13S 5871   5.565   8.378  14.178  1.1760  2.1756 -0.6664
   46DOPE  C214 5872   5.777   8.416  14.186 -0.1423  0.2681  0.6245
   46DOPE  H14R 5873   5.771   8.524  14.158  4.0732  0.1172 -1.7640
   46DOPE  H14S 5874   5.809   8.370  14.090  0.4794 -2.5399  2.0584
   46DOPE  C215 5875   5.895   8.413  14.287  0.2304  0.5523  0.3399
   46DOPE  H15R 5876   5.905   8.304  14.308 -0.2889 -0.3920 -3.4769
   46DOPE  H15S 5877   5.851   8.463  14.375 -1.7023 -2.6758  1.4060
   46DOPE  C216 5878   6.033   8.468  14.243  0.3725 -0.0132  0.1967
   46DOPE  H16R 5879   6.086   8.394  14.180  0.6828 -1.7579  2.4024
   46DOPE  H16S 5880   6.105   8.483  14.326  0.2050  0.3418  0.2813
   46DOPE  C217 5881   6.008   8.601  14.171 -0.6062 -0.0842 -0.8163
   46DOPE  H17R 5882   5.956   8.671  14.239  1.2925 -0.7845  1.4712
   46DOPE  H17S 5883   5.939   8.585  14.084  0.3675 -1.1798 -1.4094
   46DOPE  C218 5884   6.134   8.661  14.102  0.0789  0.5125  0.2370
   46DOPE  H18R 5885   6.213   8.684  14.175  0.8886  0.4740 -0.6111
   46DOPE  H18S 5886   6.102   8.748  14.041 -0.2535 -0.3675 -0.8915
   46DOPE  H18T 5887   6.183   8.588  14.035 -2.1533  1.4136 -2.5941
   46DOPE   C33 5888   6.231   7.704  13.471 -0.3051 -0.5548  0.1291
   46DOPE   H3X 5889   6.234   7.756  13.372 -2.9828  1.7942  1.1360
   46DOPE   H3Y 5890   6.238   7.596  13.448  0.2728 -0.8003  1.3591
   46DOPE   C34 5891   6.361   7.742  13.535  0.3446  0.6362 -0.0708
   46DOPE   H4X 5892   6.375   7.850  13.513 -3.2431  0.9472 -1.4635
   46DOPE   H4Y 5893   6.368   7.727  13.645  1.2476  1.5805  0.0156
   46DOPE   C35 5894   6.479   7.656  13.471 -0.3779 -0.2236 -0.1556
   46DOPE   H5X 5895   6.486   7.692  13.366  1.2952 -0.0595 -0.0119
   46DOPE   H5Y 5896   6.443   7.551  13.477 -2.9975  0.6104  0.0863
   46DOPE   C36 5897   6.609   7.676  13.543  0.1238 -0.2884 -0.8132
   46DOPE   H6X 5898   6.604   7.639  13.647  1.5715  1.2736 -0.1343
   46DOPE   H6Y 5899   6.628   7.785  13.550 -1.0949 -0.1456  1.2867
   46DOPE   C37 5900   6.734   7.610  13.473  0.2567 -0.1473  0.0234
   46DOPE   H7X 5901   6.701   7.506  13.452  0.1657  0.1006 -1.1090
   46DOPE   H7Y 5902   6.735   7.660  13.374 -2.0793 -1.2361 -0.6099
   46DOPE   C38 5903   6.860   7.621  13.565 -0.6206  0.1356  0.1128
   46DOPE   H8X 5904   6.844   7.550  13.649 -0.0630  0.7165  0.7242
   46DOPE   H8Y 5905   6.862   7.722  13.612 -1.6835  0.0971  0.2630
   46DOPE   C39 5906   6.990   7.582  13.494  0.7233  0.6892 -0.0235
   46DOPE   H9X 5907   6.979   7.492  13.432  3.6420 -1.0675  1.7600
   46DOPE  C310 5908   7.113   7.637  13.512 -0.6220 -0.2139 -0.4952
   46DOPE  H10X 5909   7.199   7.586  13.466 -1.0300 -1.4847  0.1039
   46DOPE  C311 5910   7.150   7.755  13.608  0.1942  0.1029  0.2492
   46DOPE  H11X 5911   7.216   7.821  13.547 -1.1530  1.7599  0.4948
   46DOPE  H11Y 5912   7.060   7.816  13.634  0.5820  0.7220  0.1619
   46DOPE  C312 5913   7.215   7.712  13.743  0.4937 -0.4557  0.7449
   46DOPE  H12X 5914   7.263   7.613  13.727 -1.7112 -1.3240 -1.0809
   46DOPE  H12Y 5915   7.127   7.693  13.809  0.3112  0.4462  0.7783
   46DOPE  C313 5916   7.310   7.823  13.793 -0.1656 -1.0407  0.5933
   46DOPE  H13X 5917   7.391   7.833  13.718 -1.3258  1.5696 -0.4320
   46DOPE  H13Y 5918   7.249   7.915  13.790  1.1223 -0.1741 -1.2632
   46DOPE  C314 5919   7.361   7.804  13.939  0.1179  0.1734  0.4030
   46DOPE  H14X 5920   7.277   7.794  14.012  0.1959 -1.0637  0.3510
   46DOPE  H14Y 5921   7.422   7.892  13.967 -0.0063  0.2052  0.5751
   46DOPE  C315 5922   7.447   7.675  13.959 -0.0482 -0.2080 -0.4760
   46DOPE  H15X 5923   7.516   7.672  13.873 -2.2919 -0.1209 -2.3831
   46DOPE  H15Y 5924   7.387   7.582  13.956  0.6691 -0.6598 -0.9323
   46DOPE  C316 5925   7.519   7.676  14.094  0.1397 -0.0994  0.0153
   46DOPE  H16X 5926   7.450   7.716  14.171  1.4150  0.1499  1.0733
   46DOPE  H16Y 5927   7.605   7.746  14.099  0.6410 -0.7104  0.1514
   46DOPE  C317 5928   7.574   7.544  14.144  0.1262  0.0851  0.7267
   46DOPE  H17X 5929   7.644   7.495  14.072 -2.3464 -3.2278  0.3567
   46DOPE  H17Y 5930   7.642   7.549  14.232  0.7537  1.0267  0.2081
   46DOPE  C318 5931   7.460   7.446  14.183 -0.3557  0.0310  0.0466
   46DOPE  H18X 5932   7.403   7.402  14.098 -1.8277  1.4737  0.2555
   46DOPE  H18Y 5933   7.511   7.356  14.224  0.6387 -0.5415 -2.2488
   46DOPE  H18Z 5934   7.392   7.485  14.261  0.9698  0.0804  1.2110
   47DOPE     N 5935   3.129   7.629  13.440 -0.6673  0.5556 -0.0521
   47DOPE   HN1 5936   3.113   7.675  13.348  0.0418  0.2900 -0.3213
   47DOPE   HN2 5937   3.220   7.579  13.433 -0.7126  0.2226  1.4312
   47DOPE   HN3 5938   3.053   7.560  13.451 -0.1575  0.0297  0.2543
   47DOPE   C12 5939   3.132   7.718  13.565 -0.1963  0.0157  0.1216
   47DOPE  H12A 5940   3.206   7.796  13.537  0.3434 -0.8231 -0.8115
   47DOPE  H12B 5941   3.169   7.651  13.646  1.6618  2.2922  1.2874
   47DOPE   C11 5942   2.991   7.770  13.613  0.7867  0.1597  0.1087
   47DOPE  H11A 5943   2.991   7.823  13.711 -0.2891 -0.2717  0.3580
   47DOPE  H11B 5944   2.929   7.680  13.632 -0.1072  0.3692 -1.5811
   47DOPE     P 5945   2.790   7.833  13.465 -0.2076  0.1190 -0.1195
   47DOPE   O13 5946   2.770   7.685  13.444  0.4121  0.0506 -0.3827
   47DOPE   O14 5947   2.771   7.916  13.342  0.3782  0.3765 -0.3606
   47DOPE   O11 5948   2.692   7.898  13.570 -0.1361 -0.0540  0.0390
   47DOPE   O12 5949   2.938   7.861  13.521 -0.2177  0.2538  0.5325
   47DOPE    C1 5950   2.736   8.016  13.640 -0.3832 -0.1697  0.6374
   47DOPE    HA 5951   2.763   8.092  13.565  0.2961 -0.7143  0.3165
   47DOPE    HB 5952   2.832   7.994  13.692 -0.3070  3.4455  2.3518
   47DOPE    C2 5953   2.633   8.068  13.742 -0.5197 -0.5255 -0.4307
   47DOPE    HS 5954   2.691   8.144  13.798 -1.1797  0.6926 -1.3702
   47DOPE   O21 5955   2.591   7.967  13.836  0.5855  0.4224 -0.1008
   47DOPE   C21 5956   2.693   7.919  13.908 -0.3202  0.4282 -0.0892
   47DOPE   O22 5957   2.805   7.960  13.902 -0.4405 -0.2951  0.1469
   47DOPE   C22 5958   2.654   7.800  13.992  0.2348 -0.0322 -0.2121
   47DOPE   H2R 5959   2.550   7.767  13.972  0.6853 -3.4401  2.1774
   47DOPE   H2S 5960   2.672   7.836  14.095  1.1900  0.2689 -0.4722
   47DOPE    C3 5961   2.502   8.127  13.674  0.4192 -0.5477 -0.0638
   47DOPE    HX 5962   2.434   8.042  13.650 -0.0696 -0.4723  0.9548
   47DOPE    HY 5963   2.529   8.170  13.576  2.6222  0.8972  1.0827
   47DOPE   O31 5964   2.437   8.228  13.762 -0.0829 -0.1936  0.0045
   47DOPE   C31 5965   2.491   8.348  13.756  0.4143  0.9594 -0.6425
   47DOPE   O32 5966   2.587   8.379  13.691 -0.4626 -0.6985  0.2442
   47DOPE   C32 5967   2.431   8.432  13.871  0.2276 -0.0064 -0.3766
   47DOPE   H2X 5968   2.322   8.417  13.853  0.1774 -0.0255 -0.0700
   47DOPE   H2Y 5969   2.461   8.378  13.964  0.1375  0.8584  0.1646
   47DOPE   C23 5970   2.745   7.677  13.977 -0.3288 -0.3619 -0.1466
   47DOPE   H3R 5971   2.851   7.708  13.962 -0.4208  0.1377  0.1858
   47DOPE   H3S 5972   2.715   7.620  13.887  0.0199 -0.5083 -0.1720
   47DOPE   C24 5973   2.742   7.587  14.103 -0.2881 -0.2133  0.2575
   47DOPE   H4R 5974   2.728   7.657  14.188  2.8154  2.2849 -1.1050
   47DOPE   H4S 5975   2.848   7.554  14.110  0.7086  2.8807  0.9316
   47DOPE   C25 5976   2.642   7.464  14.086  0.0632 -0.8229  0.0621
   47DOPE   H5R 5977   2.546   7.514  14.061 -0.4669 -1.1789  1.3043
   47DOPE   H5S 5978   2.639   7.422  14.189 -0.6077  1.0420  0.8624
   47DOPE   C26 5979   2.671   7.357  13.984 -0.4196  0.0481  0.6986
   47DOPE   H6R 5980   2.772   7.316  14.004  0.1547  0.7045 -0.6959
   47DOPE   H6S 5981   2.681   7.412  13.888  0.3483  1.5489  1.5936
   47DOPE   C27 5982   2.578   7.236  13.978 -0.4525  0.2063  0.9207
   47DOPE   H7R 5983   2.624   7.173  13.900 -1.8053  0.4338 -0.0990
   47DOPE   H7S 5984   2.482   7.275  13.937  0.4194  1.0977 -0.3432
   47DOPE   C28 5985   2.549   7.163  14.109 -0.3785 -0.9034 -0.6732
   47DOPE   H8R 5986   2.500   7.239  14.174 -1.3480  0.3821 -2.7780
   47DOPE   H8S 5987   2.644   7.124  14.150  0.3827 -1.0784 -2.5406
   47DOPE   C29 5988   2.441   7.061  14.074  0.2497 -0.2216 -0.0866
   47DOPE   H9R 5989   2.445   7.010  13.976 -0.2812 -0.9676  0.2721
   47DOPE  C210 5990   2.340   7.031  14.157  0.0231  0.8723  0.4643
   47DOPE  H10R 5991   2.267   6.960  14.116  0.5543  1.3198 -1.3345
   47DOPE  C211 5992   2.327   7.064  14.300 -0.2929  1.2206 -0.3053
   47DOPE  H11R 5993   2.428   7.058  14.345  0.1596 -1.8856 -1.4400
   47DOPE  H11S 5994   2.264   6.986  14.347  1.8388 -0.2029  0.3214
   47DOPE  C212 5995   2.273   7.197  14.331 -0.2771 -0.0618  0.1185
   47DOPE  H12R 5996   2.188   7.228  14.267  1.6726  0.6922 -2.2644
   47DOPE  H12S 5997   2.344   7.280  14.313  0.3940 -0.9349 -1.4759
   47DOPE  C213 5998   2.216   7.199  14.476  0.0508 -0.4495  0.6251
   47DOPE  H13R 5999   2.294   7.166  14.549 -0.5319  2.0254  2.4999
   47DOPE  H13S 6000   2.139   7.122  14.496  0.7102 -1.1274  0.6077
   47DOPE  C214 6001   2.168   7.336  14.506 -0.0951 -0.0238  0.4063
   47DOPE  H14R 6002   2.103   7.356  14.418  0.1741  0.3480  0.2910
   47DOPE  H14S 6003   2.240   7.420  14.505 -0.7385  0.5339  0.0601
   47DOPE  C215 6004   2.086   7.345  14.641 -0.4137  0.1467 -0.3596
   47DOPE  H15R 6005   2.150   7.379  14.726 -0.1874 -1.0233 -0.0296
   47DOPE  H15S 6006   2.040   7.245  14.656  1.6058 -1.0451 -1.5947
   47DOPE  C216 6007   1.976   7.450  14.634  0.4256  0.4350 -0.2465
   47DOPE  H16R 6008   1.906   7.421  14.553 -1.5890 -1.0658  1.9249
   47DOPE  H16S 6009   2.018   7.553  14.629 -0.5859  0.9999  1.9969
   47DOPE  C217 6010   1.876   7.452  14.759 -0.3192  0.1877  0.6413
   47DOPE  H17R 6011   1.838   7.349  14.772 -0.3235  0.2139  0.8480
   47DOPE  H17S 6012   1.800   7.532  14.746  0.4179  0.9309  0.8062
   47DOPE  C218 6013   1.949   7.492  14.893 -0.4351 -0.0635 -0.2136
   47DOPE  H18R 6014   2.016   7.580  14.883 -1.1561  0.4401 -0.7164
   47DOPE  H18S 6015   2.014   7.406  14.920 -1.1776  0.0331  2.1546
   47DOPE  H18T 6016   1.867   7.501  14.968 -2.2582 -0.0169 -2.1099
   47DOPE   C33 6017   2.467   8.579  13.869  0.5560 -0.5358  0.0750
   47DOPE   H3X 6018   2.429   8.641  13.785 -0.7511 -2.2522 -0.6628
   47DOPE   H3Y 6019   2.577   8.586  13.865  0.4247  3.0455 -3.1302
   47DOPE   C34 6020   2.426   8.639  14.006  0.3966  0.2006 -0.2680
   47DOPE   H4X 6021   2.320   8.607  14.021  0.3413  0.8932  0.9812
   47DOPE   H4Y 6022   2.468   8.578  14.089 -2.3628 -1.7249 -0.1378
   47DOPE   C35 6023   2.439   8.789  14.031  0.5394  0.2960  0.1724
   47DOPE   H5X 6024   2.377   8.814  14.120  0.6136 -0.4479  0.4424
   47DOPE   H5Y 6025   2.396   8.839  13.942 -1.5673 -0.7455  0.5276
   47DOPE   C36 6026   2.589   8.827  14.047 -0.8634  0.4302 -0.6865
   47DOPE   H6X 6027   2.634   8.837  13.946  1.5863 -0.3251  0.2473
   47DOPE   H6Y 6028   2.633   8.740  14.102 -2.8467  0.9301  1.8475
   47DOPE   C37 6029   2.613   8.961  14.120  0.0783  0.3617 -0.0496
   47DOPE   H7X 6030   2.536   9.036  14.091 -0.2860 -0.8719 -2.6063
   47DOPE   H7Y 6031   2.592   8.951  14.228 -1.2950 -0.1198 -0.3330
   47DOPE   C38 6032   2.754   9.020  14.095  0.4716 -0.7533  0.2059
   47DOPE   H8X 6033   2.774   9.124  14.127 -0.1500 -0.3169 -0.7949
   47DOPE   H8Y 6034   2.755   9.024  13.984 -0.2510  0.0946  0.2206
   47DOPE   C39 6035   2.866   8.937  14.149  0.3156  0.8993 -0.1010
   47DOPE   H9X 6036   2.863   8.928  14.259 -0.9830 -0.1527 -0.1867
   47DOPE  C310 6037   2.972   8.878  14.087 -0.5773  0.7386  0.1128
   47DOPE  H10X 6038   3.057   8.835  14.143 -0.7045  1.6119  1.0017
   47DOPE  C311 6039   2.993   8.870  13.933 -0.5070 -0.5113 -0.2087
   47DOPE  H11X 6040   2.931   8.948  13.884  2.7502  1.2284 -1.8669
   47DOPE  H11Y 6041   3.091   8.915  13.906  0.6539 -0.5985  3.3525
   47DOPE  C312 6042   2.989   8.727  13.868 -0.0704 -1.1959 -0.1336
   47DOPE  H12X 6043   3.091   8.684  13.874  0.7410  0.5969 -0.4707
   47DOPE  H12Y 6044   2.970   8.730  13.759  1.7264  0.1659 -0.4556
   47DOPE  C313 6045   2.903   8.620  13.945  1.1639  0.0255  0.2649
   47DOPE  H13X 6046   2.920   8.630  14.054  3.8872 -1.8980  0.1191
   47DOPE  H13Y 6047   2.799   8.641  13.911  1.4193  0.2500 -0.4052
   47DOPE  C314 6048   2.928   8.470  13.915  0.2003  0.7470  0.5046
   47DOPE  H14X 6049   3.030   8.442  13.949  0.5043  2.1067  0.7724
   47DOPE  H14Y 6050   2.937   8.472  13.804  0.7640  0.3508  0.5336
   47DOPE  C315 6051   2.822   8.369  13.964  0.3834 -0.4546 -0.7667
   47DOPE  H15X 6052   2.834   8.265  13.926  0.6679 -0.5301 -0.4746
   47DOPE  H15Y 6053   2.726   8.407  13.922 -0.1772 -2.5175 -1.4471
   47DOPE  C316 6054   2.797   8.364  14.119 -0.2734  0.2834 -0.0981
   47DOPE  H16X 6055   2.746   8.457  14.150 -1.5626 -0.7848  1.1039
   47DOPE  H16Y 6056   2.891   8.343  14.173 -0.7328 -2.8047 -0.2921
   47DOPE  C317 6057   2.701   8.243  14.151 -0.2834 -0.0563 -0.1969
   47DOPE  H17X 6058   2.614   8.247  14.082 -0.7272  0.4307  0.3792
   47DOPE  H17Y 6059   2.760   8.154  14.122 -2.3646 -0.7079 -2.9464
   47DOPE  C318 6060   2.636   8.238  14.290 -1.4021  0.4919 -0.7972
   47DOPE  H18X 6061   2.607   8.134  14.317  0.3116  0.4085  0.9722
   47DOPE  H18Y 6062   2.709   8.272  14.367  0.2311  1.2749 -2.6061
   47DOPE  H18Z 6063   2.552   8.307  14.308  0.4543  2.4253  1.0411
   48DOPE     N 6064   6.780   2.319  12.909 -0.1282  0.0460  0.8250
   48DOPE   HN1 6065   6.705   2.327  12.838  0.6510 -1.1143 -0.1581
   48DOPE   HN2 6066   6.790   2.404  12.968  0.2741  0.3117  0.3797
   48DOPE   HN3 6067   6.864   2.288  12.856 -2.2221 -3.4305 -0.8823
   48DOPE   C12 6068   6.733   2.220  13.002 -0.1735 -0.1281 -0.0528
   48DOPE  H12A 6069   6.654   2.274  13.058  1.0612  0.5415  1.1094
   48DOPE  H12B 6070   6.810   2.187  13.076  0.8387 -0.7027 -1.3256
   48DOPE   C11 6071   6.671   2.102  12.928 -0.2694  0.6700  0.2726
   48DOPE  H11A 6072   6.578   2.133  12.878 -0.5795  2.9540  2.0920
   48DOPE  H11B 6073   6.656   2.017  12.998  1.3748 -0.4828 -0.7009
   48DOPE     P 6074   6.865   1.938  12.863  0.0674 -0.1881 -0.0000
   48DOPE   O13 6075   6.963   2.004  12.943  0.3165 -0.0322 -0.2562
   48DOPE   O14 6076   6.906   1.868  12.740 -0.0633 -0.8313 -0.1995
   48DOPE   O11 6077   6.801   1.833  12.967 -0.1867 -0.1424  0.4173
   48DOPE   O12 6078   6.752   2.042  12.823 -0.3467  0.2722  0.1645
   48DOPE    C1 6079   6.885   1.757  13.062  0.1551  0.4943 -0.0734
   48DOPE    HA 6080   6.943   1.825  13.128  0.3860 -1.9666  2.4175
   48DOPE    HB 6081   6.952   1.691  13.003  1.5808  2.5834 -0.9049
   48DOPE    C2 6082   6.803   1.683  13.173 -1.2200  0.1085  0.0563
   48DOPE    HS 6083   6.742   1.600  13.132  2.1100 -1.3749 -2.3484
   48DOPE   O21 6084   6.733   1.782  13.238  0.2971 -0.6158 -0.4166
   48DOPE   C21 6085   6.622   1.747  13.301 -0.0482  0.2998  0.0104
   48DOPE   O22 6086   6.576   1.635  13.302 -0.2788 -0.5083  0.0693
   48DOPE   C22 6087   6.563   1.874  13.381  0.3711  0.1053  0.2783
   48DOPE   H2R 6088   6.485   1.836  13.451  0.9160 -0.1311  0.7654
   48DOPE   H2S 6089   6.516   1.945  13.309 -1.5842 -1.2951  0.1121
   48DOPE    C3 6090   6.895   1.615  13.279 -0.6781 -0.2179  0.7072
   48DOPE    HX 6091   6.965   1.696  13.310  0.8794 -1.0738 -0.4519
   48DOPE    HY 6092   6.956   1.534  13.234 -2.2163 -0.8852 -0.2960
   48DOPE   O31 6093   6.827   1.565  13.391 -0.5523 -0.1152 -0.4505
   48DOPE   C31 6094   6.799   1.436  13.374 -0.0428 -0.2296  0.1776
   48DOPE   O32 6095   6.813   1.363  13.276 -0.1901 -0.7148 -0.0061
   48DOPE   C32 6096   6.730   1.390  13.507 -1.1019 -0.3617 -0.6316
   48DOPE   H2X 6097   6.784   1.423  13.598 -2.3286  0.1640 -0.0826
   48DOPE   H2Y 6098   6.635   1.446  13.510 -1.3254 -0.7377 -0.6663
   48DOPE   C23 6099   6.668   1.954  13.459  0.4136  0.5915  0.2882
   48DOPE   H3R 6100   6.609   2.032  13.512 -0.0258 -0.1161  0.8594
   48DOPE   H3S 6101   6.733   2.000  13.381  1.5225  1.6185  1.7773
   48DOPE   C24 6102   6.735   1.864  13.570  0.3262  0.6321  1.7039
   48DOPE   H4R 6103   6.798   1.930  13.634 -2.5801  3.5966  1.7558
   48DOPE   H4S 6104   6.797   1.794  13.510 -1.1178 -0.0771  0.9978
   48DOPE   C25 6105   6.643   1.776  13.652 -0.4713  0.2132 -0.2780
   48DOPE   H5R 6106   6.712   1.729  13.725 -2.0610  0.6874  1.6060
   48DOPE   H5S 6107   6.593   1.692  13.599 -0.8459 -1.5633  2.6453
   48DOPE   C26 6108   6.538   1.855  13.731  0.0678  0.0429 -0.5029
   48DOPE   H6R 6109   6.474   1.915  13.663 -0.4190  0.8062  0.6073
   48DOPE   H6S 6110   6.588   1.935  13.790 -2.8910  1.1935  0.6110
   48DOPE   C27 6111   6.460   1.775  13.833  0.6691 -0.5266 -0.3737
   48DOPE   H7R 6112   6.403   1.855  13.884 -0.7149 -2.6085  1.5202
   48DOPE   H7S 6113   6.520   1.730  13.914  0.6819  0.8754  0.4336
   48DOPE   C28 6114   6.370   1.670  13.759  0.4803  0.5294  0.1665
   48DOPE   H8R 6115   6.302   1.635  13.840  1.7805 -0.8432  0.7131
   48DOPE   H8S 6116   6.438   1.588  13.727  0.2221  0.5881 -0.5714
   48DOPE   C29 6117   6.299   1.710  13.634  0.2284  0.0799 -0.1890
   48DOPE   H9R 6118   6.371   1.737  13.556  0.3373 -0.9525 -0.4575
   48DOPE  C210 6119   6.166   1.709  13.612  0.1933 -0.4399 -0.0167
   48DOPE  H10R 6120   6.128   1.752  13.518 -0.7460 -0.9734  0.1102
   48DOPE  C211 6121   6.061   1.671  13.713  0.3431  0.3119  0.3709
   48DOPE  H11R 6122   6.105   1.644  13.811  0.7536 -2.5740 -0.4998
   48DOPE  H11S 6123   6.011   1.572  13.704  1.3440 -0.3199  1.4834
   48DOPE  C212 6124   5.958   1.792  13.737  0.4686  0.3261 -0.1402
   48DOPE  H12R 6125   5.878   1.758  13.806  0.3838 -0.6365 -0.6898
   48DOPE  H12S 6126   5.909   1.817  13.640 -2.8225 -2.0690  0.7216
   48DOPE  C213 6127   6.023   1.918  13.793 -0.0529  0.2697  0.1812
   48DOPE  H13R 6128   6.084   1.984  13.727  0.9377  1.0088  1.7651
   48DOPE  H13S 6129   6.096   1.903  13.876 -0.6457  2.5779  1.2158
   48DOPE  C214 6130   5.915   2.023  13.843 -0.3149  0.3996  0.7066
   48DOPE  H14R 6131   5.830   1.980  13.901 -0.1888 -0.6549  0.1361
   48DOPE  H14S 6132   5.869   2.067  13.752  0.6518 -0.5341 -0.2621
   48DOPE  C215 6133   5.977   2.134  13.927 -0.6746 -0.3096 -0.1104
   48DOPE  H15R 6134   6.007   2.213  13.856  1.1148 -0.8224  0.0367
   48DOPE  H15S 6135   6.062   2.101  13.991 -0.4282 -0.3464 -0.4583
   48DOPE  C216 6136   5.860   2.196  14.013 -0.3097 -0.1831 -0.2655
   48DOPE  H16R 6137   5.777   2.198  13.940 -0.1039 -3.1251 -0.6779
   48DOPE  H16S 6138   5.898   2.296  14.044  0.5036 -0.1104 -1.4426
   48DOPE  C217 6139   5.826   2.113  14.136 -0.9253 -0.5835 -0.1005
   48DOPE  H17R 6140   5.780   2.015  14.110  0.7534 -1.1776 -1.0025
   48DOPE  H17S 6141   5.750   2.168  14.195 -0.0671 -0.0293  0.5281
   48DOPE  C218 6142   5.939   2.077  14.237  0.9217 -0.1993 -0.1855
   48DOPE  H18R 6143   5.990   2.170  14.269  1.8875 -1.1751  1.2274
   48DOPE  H18S 6144   6.000   1.999  14.187  3.2131  0.8080  0.8806
   48DOPE  H18T 6145   5.900   2.032  14.331 -1.0019  2.1576  0.2431
   48DOPE   C33 6146   6.702   1.237  13.520  0.2854 -0.2928  0.3396
   48DOPE   H3X 6147   6.659   1.197  13.425 -1.4832  2.6823 -0.2697
   48DOPE   H3Y 6148   6.619   1.233  13.594  0.9402 -1.8180  1.0104
   48DOPE   C34 6149   6.827   1.172  13.574 -0.6257 -0.0676 -0.1835
   48DOPE   H4X 6150   6.887   1.146  13.485 -1.7086 -0.4296 -0.8287
   48DOPE   H4Y 6151   6.889   1.228  13.647 -2.8128  0.8183  1.1072
   48DOPE   C35 6152   6.795   1.043  13.652  0.2963  0.0264 -0.1890
   48DOPE   H5X 6153   6.892   0.990  13.659  1.2043  1.2163 -2.6027
   48DOPE   H5Y 6154   6.714   0.981  13.607 -0.0643  2.0277 -2.5041
   48DOPE   C36 6155   6.741   1.065  13.797  0.1607 -0.5095  0.4557
   48DOPE   H6X 6156   6.710   0.968  13.843  0.5811 -0.8547  0.0171
   48DOPE   H6Y 6157   6.654   1.135  13.795 -0.2646 -1.0344 -0.2520
   48DOPE   C37 6158   6.831   1.130  13.905 -0.0418 -0.1737 -0.0441
   48DOPE   H7X 6159   6.882   1.045  13.955  1.0460  0.7253  0.4140
   48DOPE   H7Y 6160   6.906   1.201  13.864  0.6606 -1.0146 -0.2518
   48DOPE   C38 6161   6.757   1.226  14.009  0.2380  0.5531 -0.5126
   48DOPE   H8X 6162   6.821   1.231  14.100 -2.2087 -0.1394  1.3466
   48DOPE   H8Y 6163   6.663   1.183  14.050  0.1589  2.2335  1.1712
   48DOPE   C39 6164   6.727   1.360  13.952 -0.6035 -0.5776  0.0245
   48DOPE   H9X 6165   6.766   1.385  13.852 -0.7076  1.5162  0.4546
   48DOPE  C310 6166   6.661   1.462  14.016 -0.2406  0.1636 -0.1326
   48DOPE  H10X 6167   6.657   1.561  13.968  1.8514 -1.0418 -3.1223
   48DOPE  C311 6168   6.600   1.467  14.155  0.6188  0.2448 -0.2963
   48DOPE  H11X 6169   6.512   1.534  14.165  0.0345 -0.5627  0.0860
   48DOPE  H11Y 6170   6.561   1.366  14.183  1.1449  0.4030  1.1314
   48DOPE  C312 6171   6.704   1.516  14.259 -0.5429  0.5839 -0.4023
   48DOPE  H12X 6172   6.729   1.620  14.231  1.3928  0.4570  0.6842
   48DOPE  H12Y 6173   6.803   1.467  14.245 -0.6374  0.2893 -0.0656
   48DOPE  C313 6174   6.672   1.498  14.405  0.4789  0.4928  0.4211
   48DOPE  H13X 6175   6.729   1.581  14.453  1.3864 -0.4556  1.0041
   48DOPE  H13Y 6176   6.566   1.530  14.419  0.4972  0.5756  0.3761
   48DOPE  C314 6177   6.704   1.360  14.467  0.0108  0.3910  0.1690
   48DOPE  H14X 6178   6.804   1.322  14.437  0.2646  0.8507  0.4243
   48DOPE  H14Y 6179   6.634   1.283  14.428  1.5641 -0.1688 -1.7259
   48DOPE  C315 6180   6.688   1.357  14.618 -0.1156  0.1972 -0.0275
   48DOPE  H15X 6181   6.580   1.367  14.641 -0.4068 -0.5746 -1.0053
   48DOPE  H15Y 6182   6.748   1.435  14.669  0.5677 -0.4200  0.1298
   48DOPE  C316 6183   6.708   1.218  14.681 -0.4007 -0.2145 -0.0568
   48DOPE  H16X 6184   6.651   1.149  14.615  0.9555 -1.0813 -0.3741
   48DOPE  H16Y 6185   6.671   1.214  14.785 -1.7794  0.7165 -0.4942
   48DOPE  C317 6186   6.858   1.193  14.690  0.5884  0.4762 -0.2970
   48DOPE  H17X 6187   6.897   1.186  14.586  2.1492  0.5104  0.2532
   48DOPE  H17Y 6188   6.912   1.278  14.736 -0.2734  0.1288  1.4321
   48DOPE  C318 6189   6.886   1.068  14.769  0.1240 -0.5862 -0.3910
   48DOPE  H18X 6190   6.825   0.982  14.733  0.3509 -0.9471  0.0793
   48DOPE  H18Y 6191   6.992   1.035  14.770  0.5499  0.7214  0.7151
   48DOPE  H18Z 6192   6.846   1.084  14.872 -0.0467 -0.7246 -0.4361
   49DOPE     N 6193   3.079   7.018  13.458  0.1799 -0.3799  0.6902
   49DOPE   HN1 6194   3.110   6.939  13.518  2.0464 -1.1887 -1.1837
   49DOPE   HN2 6195   2.981   7.042  13.483  0.4449 -1.1497  2.5541
   49DOPE   HN3 6196   3.066   6.999  13.356 -0.0736  0.6197  0.5226
   49DOPE   C12 6197   3.162   7.144  13.471  0.4929 -0.0087  0.0202
   49DOPE  H12A 6198   3.125   7.217  13.396 -0.2015  1.8898  2.1218
   49DOPE  H12B 6199   3.264   7.124  13.430  0.2167  0.7966 -1.0850
   49DOPE   C11 6200   3.158   7.203  13.615  0.6839 -1.3451 -0.1304
   49DOPE  H11A 6201   3.219   7.295  13.625 -0.6544 -0.3920 -0.5026
   49DOPE  H11B 6202   3.208   7.142  13.694 -0.5222  0.4987  2.2028
   49DOPE     P 6203   2.949   7.353  13.620  0.4142 -0.2014 -0.5367
   49DOPE   O13 6204   2.809   7.338  13.658  0.0455 -0.4275  0.1866
   49DOPE   O14 6205   2.974   7.401  13.479 -0.8650 -0.7762 -0.4122
   49DOPE   O11 6206   3.010   7.464  13.716  0.3044 -0.2758 -0.5788
   49DOPE   O12 6207   3.023   7.217  13.650  0.3920  0.1574 -0.3417
   49DOPE    C1 6208   3.005   7.446  13.855  0.1224  0.3009 -0.3790
   49DOPE    HA 6209   2.997   7.338  13.880 -0.1537 -0.3096 -2.9095
   49DOPE    HB 6210   2.908   7.496  13.878 -0.6979 -0.1207 -2.7003
   49DOPE    C2 6211   3.125   7.508  13.919 -0.1188  0.5033 -0.9148
   49DOPE    HS 6212   3.112   7.481  14.026 -1.4704 -3.7179 -1.9755
   49DOPE   O21 6213   3.126   7.652  13.912 -0.0524 -0.2760  0.3012
   49DOPE   C21 6214   3.181   7.710  14.021  0.0295  0.4419 -0.5722
   49DOPE   O22 6215   3.230   7.658  14.117 -0.1578  0.2551  0.1296
   49DOPE   C22 6216   3.168   7.857  14.000 -0.3253 -0.0825 -0.5121
   49DOPE   H2R 6217   3.063   7.893  13.990  0.1630  1.9923  1.2360
   49DOPE   H2S 6218   3.226   7.882  13.909  0.2050 -1.6078 -0.6286
   49DOPE    C3 6219   3.252   7.445  13.872 -0.1338  0.8702 -0.2248
   49DOPE    HX 6220   3.284   7.486  13.774 -0.3895 -1.3736 -1.3093
   49DOPE    HY 6221   3.231   7.337  13.858 -0.0637  0.7911  0.2591
   49DOPE   O31 6222   3.361   7.453  13.966  0.3501  0.5136  1.0691
   49DOPE   C31 6223   3.453   7.547  13.946 -0.2958  0.2031 -0.0122
   49DOPE   O32 6224   3.448   7.632  13.860 -0.0548  0.2952  0.1637
   49DOPE   C32 6225   3.552   7.537  14.063 -0.0516 -0.0162  0.1635
   49DOPE   H2X 6226   3.523   7.458  14.136  1.2981 -1.0044 -0.3235
   49DOPE   H2Y 6227   3.650   7.505  14.019 -0.3918  1.3219 -1.6967
   49DOPE   C23 6228   3.227   7.936  14.115  0.2857 -0.6729 -0.1120
   49DOPE   H3R 6229   3.230   8.046  14.097  0.8022 -0.5508  0.6566
   49DOPE   H3S 6230   3.336   7.921  14.134  0.6112  1.5455  0.0495
   49DOPE   C24 6231   3.151   7.923  14.250 -0.8684 -0.0649  0.3500
   49DOPE   H4R 6232   3.215   7.989  14.313  1.7899 -2.2486  0.1306
   49DOPE   H4S 6233   3.158   7.819  14.287 -0.5837 -1.1564 -2.4864
   49DOPE   C25 6234   2.999   7.962  14.246  0.7459  0.1917  0.5785
   49DOPE   H5R 6235   2.950   7.904  14.164  0.4210  1.1363  0.0866
   49DOPE   H5S 6236   2.992   8.071  14.229 -2.2620 -0.0175 -0.0707
   49DOPE   C26 6237   2.927   7.946  14.383  0.0171  0.7519  0.1426
   49DOPE   H6R 6238   2.931   7.843  14.426  0.1416 -0.1796 -1.9870
   49DOPE   H6S 6239   2.820   7.962  14.355  0.2983  1.8106 -0.3475
   49DOPE   C27 6240   2.975   8.048  14.483 -0.2375  0.6995  0.3171
   49DOPE   H7R 6241   2.944   8.141  14.430 -1.7261 -0.9732 -1.9107
   49DOPE   H7S 6242   3.086   8.044  14.487 -0.0601  0.7128 -2.4881
   49DOPE   C28 6243   2.897   8.055  14.616 -0.0557  0.2585  0.2461
   49DOPE   H8R 6244   2.791   8.065  14.584 -0.2414 -1.6755  0.1231
   49DOPE   H8S 6245   2.936   8.146  14.665  0.0769  1.0054 -1.1942
   49DOPE   C29 6246   2.920   7.935  14.711 -0.4337  0.6555  0.2086
   49DOPE   H9R 6247   3.020   7.901  14.740 -0.4055  0.9650  0.4694
   49DOPE  C210 6248   2.824   7.850  14.748 -0.8078  0.0592  0.0497
   49DOPE  H10R 6249   2.848   7.760  14.806 -1.6763 -0.3726 -0.2539
   49DOPE  C211 6250   2.681   7.856  14.709  0.0402  0.0169  0.0973
   49DOPE  H11R 6251   2.651   7.750  14.723  0.3164 -0.3099 -1.5460
   49DOPE  H11S 6252   2.678   7.891  14.603  1.4755  0.8482  0.3094
   49DOPE  C212 6253   2.576   7.945  14.787 -0.0295  0.1397  0.6265
   49DOPE  H12R 6254   2.482   7.959  14.729  1.3246  0.6329 -1.5662
   49DOPE  H12S 6255   2.615   8.050  14.794 -1.3815  0.6703  0.4378
   49DOPE  C213 6256   2.553   7.881  14.928 -0.2880 -0.0770  0.1139
   49DOPE  H13R 6257   2.647   7.888  14.988 -0.9744  0.7792  1.1301
   49DOPE  H13S 6258   2.537   7.772  14.939 -0.3594  0.1287  2.8825
   49DOPE  C214 6259   2.428   7.936  15.000  0.3076  0.2024 -0.6693
   49DOPE  H14R 6260   2.434   8.047  15.001 -0.9935  0.2885 -0.9316
   49DOPE  H14S 6261   2.430   7.906  15.107  0.3468  1.4774 -0.2939
   49DOPE  C215 6262   2.298   7.891  14.945  0.4517  0.6861 -0.2500
   49DOPE  H15R 6263   2.295   7.785  14.911 -0.7653  0.7433 -0.3471
   49DOPE  H15S 6264   2.269   7.959  14.862 -0.3410 -0.0340 -0.5849
   49DOPE  C216 6265   2.201   7.911  15.071 -0.0386  0.2037 -0.1848
   49DOPE  H16R 6266   2.195   8.017  15.107  0.3935 -0.5418  2.2752
   49DOPE  H16S 6267   2.227   7.859  15.165 -3.2931  1.3439  1.5118
   49DOPE  C217 6268   2.058   7.856  15.046 -0.0574  0.4015  0.3895
   49DOPE  H17R 6269   2.071   7.748  15.026 -1.0329  0.4787 -0.7401
   49DOPE  H17S 6270   2.033   7.907  14.951 -0.8436  0.5112  0.6494
   49DOPE  C218 6271   1.959   7.879  15.155  1.0741  0.6239 -0.2499
   49DOPE  H18R 6272   1.857   7.868  15.114  1.0456  0.5304 -0.1549
   49DOPE  H18S 6273   1.963   7.982  15.197  1.1872 -0.8417  3.8345
   49DOPE  H18T 6274   1.969   7.806  15.238 -1.7168  3.5027  2.9217
   49DOPE   C33 6275   3.577   7.671  14.130  0.6232 -0.4583 -0.0190
   49DOPE   H3X 6276   3.486   7.719  14.171  1.5154 -0.6269  2.3148
   49DOPE   H3Y 6277   3.599   7.740  14.046 -0.6059 -1.3066 -1.0820
   49DOPE   C34 6278   3.679   7.661  14.243 -0.6619  0.1308 -0.5436
   49DOPE   H4X 6279   3.777   7.622  14.209  0.1612  2.1569 -0.6111
   49DOPE   H4Y 6280   3.688   7.769  14.269 -1.8682  0.1580 -0.1897
   49DOPE   C35 6281   3.620   7.603  14.377 -0.1342  0.0236 -0.0680
   49DOPE   H5X 6282   3.695   7.615  14.458  0.0899  0.1534 -0.2911
   49DOPE   H5Y 6283   3.606   7.494  14.362 -0.5674  0.1693 -0.8360
   49DOPE   C36 6284   3.487   7.664  14.433 -0.4336 -0.0859  0.1995
   49DOPE   H6X 6285   3.456   7.617  14.528 -0.8151  2.9018  1.6896
   49DOPE   H6Y 6286   3.400   7.643  14.367 -0.7188  1.7237 -0.0635
   49DOPE   C37 6287   3.487   7.811  14.476 -0.1124  0.2922 -0.0252
   49DOPE   H7X 6288   3.575   7.864  14.434  0.6682  1.1840  2.5162
   49DOPE   H7Y 6289   3.397   7.855  14.428 -0.9986 -0.0296  1.2648
   49DOPE   C38 6290   3.487   7.827  14.624  0.1287 -0.3476  0.1819
   49DOPE   H8X 6291   3.574   7.767  14.659 -0.3923 -1.4014 -0.2783
   49DOPE   H8Y 6292   3.402   7.776  14.674  0.9315 -1.0392  0.8891
   49DOPE   C39 6293   3.510   7.968  14.675  0.0598  0.0591 -0.1887
   49DOPE   H9X 6294   3.614   8.003  14.665  0.7618 -0.8866  2.7626
   49DOPE  C310 6295   3.424   8.047  14.741 -0.6837  0.7980 -0.0191
   49DOPE  H10X 6296   3.463   8.139  14.787 -0.5647  1.3279 -1.1347
   49DOPE  C311 6297   3.281   8.020  14.790 -0.0323  0.6496  0.1403
   49DOPE  H11X 6298   3.206   8.086  14.742 -0.1523  1.3086  1.1996
   49DOPE  H11Y 6299   3.260   7.914  14.764 -0.2014  1.0043 -1.2502
   49DOPE  C312 6300   3.286   8.026  14.948  0.0403 -0.2386  0.3053
   49DOPE  H12X 6301   3.303   8.131  14.978  1.3426 -0.0928 -0.8681
   49DOPE  H12Y 6302   3.371   7.966  14.986  0.9374 -0.0358 -1.2920
   49DOPE  C313 6303   3.152   7.975  15.007  0.6687  0.6314 -0.8676
   49DOPE  H13X 6304   3.165   7.990  15.117 -1.0310  1.3698 -0.7317
   49DOPE  H13Y 6305   3.070   8.044  14.976 -0.5262 -0.4878 -0.3026
   49DOPE  C314 6306   3.132   7.824  14.988  0.4158 -0.5180 -0.0266
   49DOPE  H14X 6307   3.218   7.762  15.021 -1.7139 -2.5833  1.9992
   49DOPE  H14Y 6308   3.102   7.798  14.884 -2.0788  0.4914  0.3794
   49DOPE  C315 6309   3.005   7.776  15.062 -0.4732  0.3709 -0.1492
   49DOPE  H15X 6310   3.000   7.669  15.033 -0.1185 -0.1452  1.6046
   49DOPE  H15Y 6311   2.916   7.833  15.028 -1.9339 -1.5761  0.3135
   49DOPE  C316 6312   3.005   7.794  15.213 -0.4564 -0.1805  0.2553
   49DOPE  H16X 6313   2.979   7.896  15.251 -0.7014 -0.6822  1.4720
   49DOPE  H16Y 6314   3.103   7.758  15.251 -0.1539 -0.0474 -0.3865
   49DOPE  C317 6315   2.902   7.703  15.281  0.1755 -0.6811  0.2075
   49DOPE  H17X 6316   2.795   7.715  15.257  0.0748  0.1463  1.0177
   49DOPE  H17Y 6317   2.927   7.598  15.253 -2.6084 -1.7239  1.2421
   49DOPE  C318 6318   2.913   7.712  15.433  0.7665 -0.1100  0.9101
   49DOPE  H18X 6319   2.883   7.610  15.465 -0.4675  0.7952  2.7793
   49DOPE  H18Y 6320   3.006   7.763  15.467  0.0850  2.3815 -0.7218
   49DOPE  H18Z 6321   2.828   7.776  15.466 -0.2698 -0.5546 -0.7894
   50DOPE     N 6322   0.369   5.908  13.401 -0.3149 -0.7854 -0.2261
   50DOPE   HN1 6323   0.424   5.983  13.355  1.1436 -1.8614 -0.3099
   50DOPE   HN2 6324   0.431   5.826  13.415  0.1363 -0.2109  1.2994
   50DOPE   HN3 6325   0.286   5.888  13.341  1.5660 -0.9752 -2.9249
   50DOPE   C12 6326   0.322   5.947  13.542 -0.3281 -0.8665  0.1097
   50DOPE  H12A 6327   0.224   5.900  13.563 -1.4419 -0.3239 -3.2152
   50DOPE  H12B 6328   0.318   6.057  13.550  1.4493 -0.7872  0.3551
   50DOPE   C11 6329   0.429   5.925  13.649  0.4757 -0.1449 -0.2781
   50DOPE  H11A 6330   0.381   5.949  13.746 -0.2860 -0.2309 -0.6299
   50DOPE  H11B 6331   0.515   5.995  13.643  1.9641 -1.9590 -1.6463
   50DOPE     P 6332   0.609   5.749  13.602 -0.1367  0.0924  0.0123
   50DOPE   O13 6333   0.601   5.754  13.453  0.3919  0.1563 -0.3359
   50DOPE   O14 6334   0.654   5.623  13.659 -0.0117 -0.5342 -0.8002
   50DOPE   O11 6335   0.704   5.866  13.651  0.4843  0.4355 -0.2963
   50DOPE   O12 6336   0.466   5.786  13.649 -0.8194 -0.3149  0.1786
   50DOPE    C1 6337   0.815   5.828  13.735  0.0714 -0.5919 -0.2774
   50DOPE    HA 6338   0.892   5.908  13.738  2.0633 -2.2438 -2.7069
   50DOPE    HB 6339   0.865   5.738  13.692  0.4473 -1.2477  1.4413
   50DOPE    C2 6340   0.765   5.799  13.882  0.2649 -0.2846 -0.6535
   50DOPE    HS 6341   0.725   5.696  13.879 -1.6426  0.4430 -1.9473
   50DOPE   O21 6342   0.676   5.902  13.918  0.2311 -0.8065 -0.3307
   50DOPE   C21 6343   0.578   5.883  13.995 -0.7499  0.6216  0.3740
   50DOPE   O22 6344   0.528   5.773  14.019 -0.4753 -0.3156 -0.0852
   50DOPE   C22 6345   0.519   6.013  14.043 -0.3029 -0.2561 -0.3634
   50DOPE   H2R 6346   0.498   6.082  13.959 -1.4772  1.6755  1.4263
   50DOPE   H2S 6347   0.599   6.077  14.087 -0.4871  1.7987 -2.8237
   50DOPE    C3 6348   0.881   5.801  13.994  0.0949 -0.5182  0.3731
   50DOPE    HX 6349   0.913   5.906  13.974 -2.3515 -0.2407 -2.8192
   50DOPE    HY 6350   0.953   5.726  13.956 -0.2590 -0.6434 -0.0576
   50DOPE   O31 6351   0.838   5.785  14.130  0.4068  0.2227  0.0179
   50DOPE   C31 6352   0.814   5.662  14.167  0.3287  0.1969 -0.9369
   50DOPE   O32 6353   0.842   5.559  14.106  0.1132 -0.1518 -0.4349
   50DOPE   C32 6354   0.776   5.651  14.315  0.4604  0.3611  0.4597
   50DOPE   H2X 6355   0.772   5.548  14.356  0.6966  0.0091 -0.3853
   50DOPE   H2Y 6356   0.852   5.702  14.379  0.1447  0.2808  0.8968
   50DOPE   C23 6357   0.404   6.004  14.140 -0.2004  0.2806 -0.3463
   50DOPE   H3R 6358   0.425   5.937  14.226 -3.3959  0.4121  0.6516
   50DOPE   H3S 6359   0.312   5.959  14.099  0.7568 -1.8521 -0.2443
   50DOPE   C24 6360   0.382   6.143  14.201 -0.4932  0.7276  0.0191
   50DOPE   H4R 6361   0.358   6.216  14.121  0.4350 -0.2882 -1.2119
   50DOPE   H4S 6362   0.481   6.174  14.241  0.5787 -0.6633 -1.4430
   50DOPE   C25 6363   0.270   6.152  14.298  0.7525  0.0905  0.2383
   50DOPE   H5R 6364   0.296   6.107  14.396 -0.8725  0.7540  1.0056
   50DOPE   H5S 6365   0.176   6.105  14.262 -0.7692  2.1299  1.4020
   50DOPE   C26 6366   0.232   6.298  14.323 -0.3277  0.0086 -0.7137
   50DOPE   H6R 6367   0.251   6.360  14.232  0.7834  0.7462  0.0024
   50DOPE   H6S 6368   0.296   6.331  14.407 -0.8293 -0.9629  0.0631
   50DOPE   C27 6369   0.091   6.316  14.365  1.0681 -0.6213 -0.3351
   50DOPE   H7R 6370   0.072   6.259  14.458  2.9190 -2.4387 -0.9843
   50DOPE   H7S 6371   0.018   6.281  14.289 -0.0165 -1.9921  1.2575
   50DOPE   C28 6372   0.052   6.468  14.380 -0.4885  0.0707  0.5570
   50DOPE   H8R 6373  -0.059   6.469  14.390 -0.8264 -1.5185 -2.2235
   50DOPE   H8S 6374   0.075   6.519  14.284  2.5051  0.4964  1.3824
   50DOPE   C29 6375   0.119   6.535  14.494  0.3486 -0.2801 -0.4784
   50DOPE   H9R 6376   0.091   6.496  14.593  0.4779  1.8186  0.4426
   50DOPE  C210 6377   0.209   6.631  14.494 -0.0266  0.0831 -0.3784
   50DOPE  H10R 6378   0.238   6.660  14.596 -1.3411 -0.3287  0.1326
   50DOPE  C211 6379   0.288   6.685  14.379  0.1052  0.1514  0.4397
   50DOPE  H11R 6380   0.317   6.788  14.410 -0.0757  0.4402 -0.3341
   50DOPE  H11S 6381   0.217   6.675  14.294 -0.1071 -0.7598  0.7183
   50DOPE  C212 6382   0.416   6.603  14.336 -0.4393  0.2580  0.2056
   50DOPE  H12R 6383   0.390   6.507  14.287  3.2771 -0.4319 -0.7317
   50DOPE  H12S 6384   0.473   6.568  14.425  1.1491 -2.0441 -1.5920
   50DOPE  C213 6385   0.516   6.673  14.245  0.8356  0.3097  0.4655
   50DOPE  H13R 6386   0.562   6.758  14.301 -0.3253  1.4856 -0.2842
   50DOPE  H13S 6387   0.453   6.714  14.164 -1.0325 -1.9762  0.6615
   50DOPE  C214 6388   0.623   6.579  14.183 -0.4292  0.2266 -0.3436
   50DOPE  H14R 6389   0.574   6.487  14.145 -0.2283 -0.5523  1.2052
   50DOPE  H14S 6390   0.700   6.545  14.256  0.2547  0.7672 -0.7902
   50DOPE  C215 6391   0.702   6.658  14.077  0.2888  0.5418  0.2031
   50DOPE  H15R 6392   0.716   6.765  14.102 -0.9204  0.6880  0.3396
   50DOPE  H15S 6393   0.642   6.649  13.983  0.7637  0.6073 -0.1103
   50DOPE  C216 6394   0.827   6.584  14.041  0.1531  0.6885  0.0115
   50DOPE  H16R 6395   0.801   6.480  14.015 -1.1431  1.1878 -0.7573
   50DOPE  H16S 6396   0.900   6.585  14.125  2.5168 -1.3922 -1.8493
   50DOPE  C217 6397   0.881   6.617  13.903 -0.6475  0.5356  0.5033
   50DOPE  H17R 6398   0.800   6.661  13.842 -1.0081 -2.2216 -1.1635
   50DOPE  H17S 6399   0.915   6.529  13.845  2.0212  0.7492  1.5571
   50DOPE  C218 6400   0.996   6.710  13.921 -0.0376  0.9385  1.2110
   50DOPE  H18R 6401   1.079   6.641  13.948 -1.2976 -0.6491  1.1333
   50DOPE  H18S 6402   0.988   6.791  13.997 -2.5186  0.9945  0.9860
   50DOPE  H18T 6403   1.003   6.774  13.831  0.0205 -0.0717  0.4796
   50DOPE   C33 6404   0.636   5.723  14.335 -0.0509 -0.1688  0.1506
   50DOPE   H3X 6405   0.562   5.675  14.269 -2.6126  2.8764  0.5426
   50DOPE   H3Y 6406   0.636   5.828  14.297  1.8674 -0.4645 -0.8176
   50DOPE   C34 6407   0.593   5.729  14.477 -0.1935 -0.5303 -0.0494
   50DOPE   H4X 6408   0.488   5.763  14.485 -0.0621 -0.0175 -0.4457
   50DOPE   H4Y 6409   0.599   5.626  14.518 -2.0862 -0.4406  0.5264
   50DOPE   C35 6410   0.685   5.830  14.562  0.5791 -0.4317  0.4843
   50DOPE   H5X 6411   0.654   5.936  14.549  0.1369 -0.6533 -0.3132
   50DOPE   H5Y 6412   0.788   5.829  14.521 -0.1233  0.5681 -1.4398
   50DOPE   C36 6413   0.670   5.796  14.710  0.8409  0.2629  0.0615
   50DOPE   H6X 6414   0.697   5.689  14.726 -0.4822 -0.1735 -0.4575
   50DOPE   H6Y 6415   0.564   5.810  14.739  0.8425 -0.5923  0.5074
   50DOPE   C37 6416   0.769   5.880  14.796  0.0388 -0.4904  0.3513
   50DOPE   H7X 6417   0.743   5.986  14.780 -0.0845 -0.8406 -2.1360
   50DOPE   H7Y 6418   0.742   5.850  14.900 -0.1890 -0.5134  0.2847
   50DOPE   C38 6419   0.920   5.848  14.766  0.5248 -0.4057  0.6984
   50DOPE   H8X 6420   0.952   5.880  14.665  0.2580  1.6568  1.2108
   50DOPE   H8Y 6421   0.938   5.739  14.775 -1.3474 -0.9073 -0.8537
   50DOPE   C39 6422   1.008   5.931  14.864  0.3601  0.8336 -0.4808
   50DOPE   H9X 6423   1.023   6.033  14.825  2.9333  0.5798 -0.3657
   50DOPE  C310 6424   1.053   5.897  14.991  0.2142 -0.1918 -0.3484
   50DOPE  H10X 6425   1.107   5.972  15.050  0.4321  0.3089 -1.1683
   50DOPE  C311 6426   1.032   5.767  15.067 -0.5415  0.2029 -0.0355
   50DOPE  H11X 6427   1.003   5.691  14.991  0.8516  2.0250 -2.5229
   50DOPE  H11Y 6428   1.130   5.738  15.111 -0.1222  2.7294  0.8567
   50DOPE  C312 6429   0.928   5.783  15.171  0.0318  0.0689  0.1465
   50DOPE  H12X 6430   0.834   5.836  15.146 -0.6314 -1.0580  0.2172
   50DOPE  H12Y 6431   0.972   5.846  15.252 -0.3305 -0.8018  1.0415
   50DOPE  C313 6432   0.891   5.651  15.247 -0.6608  0.5446 -1.1325
   50DOPE  H13X 6433   0.979   5.596  15.286 -2.5587 -1.9689 -0.1091
   50DOPE  H13Y 6434   0.834   5.663  15.342  0.6331  0.8206 -0.3604
   50DOPE  C314 6435   0.820   5.543  15.158 -0.6410  0.1569  0.1428
   50DOPE  H14X 6436   0.792   5.459  15.225  2.0636 -1.2399 -0.3444
   50DOPE  H14Y 6437   0.891   5.500  15.085 -2.2150 -1.2409 -0.6426
   50DOPE  C315 6438   0.699   5.602  15.087 -0.3235 -0.0737  0.5708
   50DOPE  H15X 6439   0.707   5.695  15.027 -3.2410 -1.1005 -1.6244
   50DOPE  H15Y 6440   0.628   5.624  15.169 -0.6818  0.7413  0.0493
   50DOPE  C316 6441   0.616   5.507  14.993 -0.0968  0.8506 -0.4212
   50DOPE  H16X 6442   0.682   5.453  14.922 -1.3771 -2.1829  0.5018
   50DOPE  H16Y 6443   0.555   5.574  14.929 -0.6613 -0.5352 -1.3962
   50DOPE  C317 6444   0.528   5.391  15.054  0.2758 -0.0843 -0.0620
   50DOPE  H17X 6445   0.476   5.331  14.976 -0.7685  1.2693 -0.4540
   50DOPE  H17Y 6446   0.594   5.316  15.102  1.5812 -0.6388 -2.5521
   50DOPE  C318 6447   0.424   5.439  15.151 -1.2926 -0.1594  0.0645
   50DOPE  H18X 6448   0.356   5.359  15.185 -1.5254 -0.1881 -0.4739
   50DOPE  H18Y 6449   0.469   5.481  15.244 -0.6710 -1.9398  0.6141
   50DOPE  H18Z 6450   0.371   5.526  15.107 -3.1871 -0.7159  1.1485
   51DOPE     N 6451   1.800   9.013  13.058 -0.7702  0.0612  0.3752
   51DOPE   HN1 6452   1.703   9.048  13.073 -0.9687 -1.0132  1.7934
   51DOPE   HN2 6453   1.803   9.003  12.955 -0.2037  0.5226  0.3395
   51DOPE   HN3 6454   1.810   8.919  13.101  0.9837 -0.5712 -1.2247
   51DOPE   C12 6455   1.904   9.122  13.086 -0.1975  0.3478 -0.8851
   51DOPE  H12A 6456   1.869   9.210  13.028  0.1765  2.1058  1.4302
   51DOPE  H12B 6457   2.006   9.090  13.056 -0.1654  0.6475 -1.0957
   51DOPE   C11 6458   1.886   9.156  13.233 -0.5336  0.3900  0.2202
   51DOPE  H11A 6459   1.781   9.191  13.246 -1.3413 -0.9490 -2.0211
   51DOPE  H11B 6460   1.964   9.232  13.252  0.5625  0.0827 -2.5401
   51DOPE     P 6461   2.036   8.995  13.383  0.1835 -0.4186  0.2777
   51DOPE   O13 6462   2.131   8.975  13.273 -0.4546 -0.4630  0.3447
   51DOPE   O14 6463   2.000   8.880  13.466  0.3304  0.3239  0.3403
   51DOPE   O11 6464   2.090   9.112  13.473 -0.2359 -0.2993  0.0116
   51DOPE   O12 6465   1.899   9.050  13.323 -0.4799 -0.4196 -0.2793
   51DOPE    C1 6466   2.228   9.117  13.517  0.3105 -0.9386 -0.2141
   51DOPE    HA 6467   2.269   9.213  13.481 -0.6425 -0.4858 -0.1091
   51DOPE    HB 6468   2.289   9.038  13.469 -0.7331 -1.9779  0.1108
   51DOPE    C2 6469   2.225   9.104  13.675 -0.5456  0.7896  0.1855
   51DOPE    HS 6470   2.170   9.187  13.725  0.2249 -0.0861  2.6495
   51DOPE   O21 6471   2.358   9.093  13.732 -0.5245  0.0076  0.0558
   51DOPE   C21 6472   2.439   9.189  13.709 -0.4697 -0.0110  1.0769
   51DOPE   O22 6473   2.403   9.296  13.659  0.1766 -0.4157  0.0282
   51DOPE   C22 6474   2.567   9.154  13.774 -0.2181 -0.8607  0.0033
   51DOPE   H2R 6475   2.603   9.054  13.741 -0.6273 -0.4381 -1.8417
   51DOPE   H2S 6476   2.556   9.154  13.884  1.4543 -2.8918  0.2384
   51DOPE    C3 6477   2.145   8.984  13.721  0.0785  0.1550  0.0915
   51DOPE    HX 6478   2.182   8.894  13.668 -0.5418  0.3643 -0.7099
   51DOPE    HY 6479   2.041   9.002  13.687 -0.5913 -3.0196  0.2064
   51DOPE   O31 6480   2.122   8.983  13.863 -0.0665  0.0931  0.0906
   51DOPE   C31 6481   2.090   8.861  13.901 -0.0393  0.6328 -0.8215
   51DOPE   O32 6482   2.071   8.771  13.822 -0.0089  0.7950 -0.2644
   51DOPE   C32 6483   2.062   8.849  14.053  0.2868 -0.5368 -0.5715
   51DOPE   H2X 6484   2.151   8.891  14.104  0.5200  2.9812 -3.4766
   51DOPE   H2Y 6485   1.978   8.912  14.087  0.3952 -0.7780  0.1609
   51DOPE   C23 6486   2.678   9.256  13.739 -0.6005 -0.1306  0.3215
   51DOPE   H3R 6487   2.650   9.362  13.758  1.5366  0.5050  0.1855
   51DOPE   H3S 6488   2.704   9.254  13.631 -2.0227 -2.2049 -0.0505
   51DOPE   C24 6489   2.814   9.239  13.816  0.0303  0.2115 -1.0059
   51DOPE   H4R 6490   2.853   9.136  13.799  0.5490  0.6956 -3.1344
   51DOPE   H4S 6491   2.788   9.242  13.924 -0.5935  0.9388 -1.1719
   51DOPE   C25 6492   2.922   9.350  13.801 -0.7651  0.0464 -0.2235
   51DOPE   H5R 6493   2.876   9.451  13.803  2.4804  1.6351  0.3367
   51DOPE   H5S 6494   2.968   9.333  13.701 -1.1712 -0.4636 -0.3356
   51DOPE   C26 6495   3.032   9.340  13.905  0.1634 -0.5935 -0.1889
   51DOPE   H6R 6496   3.114   9.411  13.881  0.3161 -0.1669  1.4720
   51DOPE   H6S 6497   3.085   9.242  13.897  2.8232  0.8083 -0.9196
   51DOPE   C27 6498   2.993   9.381  14.046 -0.6491  0.0653 -0.0712
   51DOPE   H7R 6499   2.919   9.308  14.084  0.4416 -0.3753  1.2937
   51DOPE   H7S 6500   2.948   9.482  14.055 -0.1741  0.2205  0.7000
   51DOPE   C28 6501   3.117   9.383  14.131 -0.2076  0.3990 -0.7158
   51DOPE   H8R 6502   3.185   9.457  14.085  0.9331  0.0385  0.3407
   51DOPE   H8S 6503   3.176   9.289  14.123 -0.0983  0.0221  2.6818
   51DOPE   C29 6504   3.099   9.387  14.282 -0.7769  0.1047  0.1855
   51DOPE   H9R 6505   3.126   9.489  14.314 -0.0036 -0.2328  0.6199
   51DOPE  C210 6506   3.090   9.292  14.375 -0.4463 -0.7039  0.3822
   51DOPE  H10R 6507   3.100   9.330  14.478  0.1384  2.2315 -0.6497
   51DOPE  C211 6508   3.066   9.145  14.358  0.2196 -0.8158  0.0473
   51DOPE  H11R 6509   3.106   9.110  14.260  3.2296  1.2125  0.4160
   51DOPE  H11S 6510   2.965   9.102  14.379  1.0264 -2.6694  0.3999
   51DOPE  C212 6511   3.155   9.074  14.465  1.0274 -0.0796 -0.3865
   51DOPE  H12R 6512   3.248   9.131  14.488 -0.7887  3.6822 -1.4942
   51DOPE  H12S 6513   3.191   8.973  14.437 -0.4414 -1.3247  1.8231
   51DOPE  C213 6514   3.071   9.089  14.599  0.2685  0.7069 -0.6237
   51DOPE  H13R 6515   2.991   9.012  14.596 -0.2385  1.0125  2.2269
   51DOPE  H13S 6516   3.017   9.185  14.611 -4.7129 -1.9318  0.7607
   51DOPE  C214 6517   3.150   9.067  14.729  0.4783 -0.2583  0.6606
   51DOPE  H14R 6518   3.093   9.091  14.820 -1.3988 -0.7494 -0.3450
   51DOPE  H14S 6519   3.235   9.139  14.725  0.8618 -0.7363 -1.0410
   51DOPE  C215 6520   3.219   8.928  14.747  0.1285 -0.5372  0.5850
   51DOPE  H15R 6521   3.286   8.934  14.658 -1.4935  0.8742 -0.6250
   51DOPE  H15S 6522   3.149   8.842  14.736  0.6975 -0.8766 -0.4634
   51DOPE  C216 6523   3.293   8.919  14.880  1.3770 -0.7749  0.0561
   51DOPE  H16R 6524   3.224   8.925  14.967  1.6745  2.3094  0.1758
   51DOPE  H16S 6525   3.355   9.011  14.882  1.0579 -0.5763  0.7180
   51DOPE  C217 6526   3.382   8.799  14.890  0.3533 -0.6610 -1.0204
   51DOPE  H17R 6527   3.439   8.776  14.798  1.4999 -1.1353 -0.2208
   51DOPE  H17S 6528   3.316   8.715  14.920 -0.9535  0.8645  0.6405
   51DOPE  C218 6529   3.486   8.815  15.003  0.7926  0.9250  0.0366
   51DOPE  H18R 6530   3.551   8.727  15.024  0.0869  0.1034 -1.0579
   51DOPE  H18S 6531   3.433   8.840  15.097 -2.7662  1.2313 -1.8737
   51DOPE  H18T 6532   3.544   8.906  14.980 -0.3767  1.2201 -2.0264
   51DOPE   C33 6533   2.036   8.711  14.112  0.0585  0.4448 -0.0011
   51DOPE   H3X 6534   2.131   8.655  14.124 -0.4123 -0.1935  0.7877
   51DOPE   H3Y 6535   1.973   8.649  14.044 -2.2264  0.6752  1.7902
   51DOPE   C34 6536   1.966   8.702  14.252  0.0206 -0.9877  0.2471
   51DOPE   H4X 6537   1.864   8.737  14.228  0.2188 -0.4605  0.1482
   51DOPE   H4Y 6538   1.963   8.600  14.298  2.3198 -1.0644  0.3453
   51DOPE   C35 6539   2.033   8.800  14.347 -0.2588 -0.3019  0.2456
   51DOPE   H5X 6540   1.958   8.829  14.423 -1.1944  0.5754 -0.9625
   51DOPE   H5Y 6541   2.047   8.899  14.298 -0.4999  0.4555  1.6450
   51DOPE   C36 6542   2.167   8.755  14.400  0.2678  0.0889 -0.1217
   51DOPE   H6X 6543   2.231   8.704  14.325  2.7294  0.8953  1.3154
   51DOPE   H6Y 6544   2.146   8.688  14.486 -0.4953  1.1829  0.5776
   51DOPE   C37 6545   2.248   8.871  14.456  0.5500  0.4247 -0.1853
   51DOPE   H7X 6546   2.343   8.832  14.499 -0.8128 -1.4495  1.3247
   51DOPE   H7Y 6547   2.270   8.937  14.369 -3.3242  1.7460 -0.3333
   51DOPE   C38 6548   2.162   8.943  14.563 -0.1964 -0.0950  0.0886
   51DOPE   H8X 6549   2.118   8.860  14.623  1.4383 -0.5894  0.6491
   51DOPE   H8Y 6550   2.083   8.996  14.505  1.0315  0.6510 -0.9443
   51DOPE   C39 6551   2.242   9.039  14.640 -1.1229 -0.3231  0.0093
   51DOPE   H9X 6552   2.245   9.134  14.584 -1.6104 -0.3390 -0.0424
   51DOPE  C310 6553   2.292   9.031  14.765  0.0352 -0.6819 -0.1105
   51DOPE  H10X 6554   2.346   9.115  14.810 -1.1283  0.6007 -1.0329
   51DOPE  C311 6555   2.274   8.915  14.854  0.4494  0.3467 -0.8051
   51DOPE  H11X 6556   2.221   8.823  14.819  2.9157 -2.0966  1.3322
   51DOPE  H11Y 6557   2.371   8.872  14.886 -0.2308  0.6429  1.9872
   51DOPE  C312 6558   2.195   8.948  14.984 -0.3662  0.6448  0.1351
   51DOPE  H12X 6559   2.154   8.859  15.037  0.5749  0.7052  1.0078
   51DOPE  H12Y 6560   2.103   9.008  14.965  0.3072  1.3681 -0.9355
   51DOPE  C313 6561   2.286   9.032  15.077  0.2654 -0.3100 -1.0496
   51DOPE  H13X 6562   2.376   8.975  15.107 -0.4120 -0.5179  0.7343
   51DOPE  H13Y 6563   2.319   9.130  15.038 -2.5484  0.0930 -2.7170
   51DOPE  C314 6564   2.215   9.064  15.217  0.0457  0.1896 -0.0279
   51DOPE  H14X 6565   2.176   8.966  15.252  1.3290  0.1862  1.4970
   51DOPE  H14Y 6566   2.130   9.131  15.190  0.0241  0.4462  0.6576
   51DOPE  C315 6567   2.315   9.119  15.317 -0.3722 -0.4739  0.3633
   51DOPE  H15X 6568   2.385   9.192  15.272  0.0955 -1.8910 -1.3314
   51DOPE  H15Y 6569   2.382   9.037  15.351  0.2350 -0.1149  0.0365
   51DOPE  C316 6570   2.242   9.174  15.443 -0.1795  0.2026  0.3381
   51DOPE  H16X 6571   2.163   9.100  15.470 -0.8967  0.8223 -0.0047
   51DOPE  H16Y 6572   2.191   9.268  15.411  0.1619 -0.1527 -1.3505
   51DOPE  C317 6573   2.348   9.189  15.551  0.3620  0.2728  0.4821
   51DOPE  H17X 6574   2.303   9.202  15.652  1.0940 -0.8264  0.9721
   51DOPE  H17Y 6575   2.414   9.100  15.548  2.0062  1.4688  0.1792
   51DOPE  C318 6576   2.428   9.317  15.528  0.2068  0.3798 -0.0595
   51DOPE  H18X 6577   2.356   9.402  15.523 -0.1755  0.1238  0.8798
   51DOPE  H18Y 6578   2.505   9.333  15.606 -0.8679 -0.0168  1.1159
   51DOPE  H18Z 6579   2.496   9.310  15.440  2.4211  0.2052  1.5893
   52DOPE     N 6580   9.022   5.235  12.864 -0.4156 -0.4366  0.3268
   52DOPE   HN1 6581   9.121   5.203  12.861  0.2104  1.3930  0.2232
   52DOPE   HN2 6582   8.964   5.152  12.839  1.6222 -1.1106 -2.7043
   52DOPE   HN3 6583   9.010   5.293  12.779 -0.7349 -2.3744 -1.0059
   52DOPE   C12 6584   8.991   5.293  12.997 -0.9198 -0.1315  0.2888
   52DOPE  H12A 6585   8.883   5.319  12.993 -0.4571  1.8325 -1.7658
   52DOPE  H12B 6586   9.047   5.389  13.005 -1.0622 -0.1739  2.1097
   52DOPE   C11 6587   9.022   5.195  13.114 -0.7474 -0.1780 -0.6831
   52DOPE  H11A 6588   9.001   5.263  13.200 -0.8285  0.3202 -1.0947
   52DOPE  H11B 6589   9.131   5.171  13.121 -0.7046  0.1221 -0.2542
   52DOPE     P 6590   8.895   4.999  13.234 -0.1327 -0.5941 -0.2152
   52DOPE   O13 6591   8.872   4.864  13.182  0.3285  0.0288  0.7657
   52DOPE   O14 6592   8.782   5.073  13.297 -0.2700  0.2251  0.6473
   52DOPE   O11 6593   9.016   4.996  13.334 -0.1468 -0.3314 -0.0516
   52DOPE   O12 6594   8.942   5.079  13.110 -0.6664  0.1297  0.4740
   52DOPE    C1 6595   9.052   5.100  13.429  0.1594  0.5809  0.1727
   52DOPE    HA 6596   8.976   5.178  13.450 -1.6380 -1.5966  2.4541
   52DOPE    HB 6597   9.138   5.156  13.388 -0.8762  0.3398 -2.5934
   52DOPE    C2 6598   9.095   5.033  13.568 -0.4798 -0.1054  0.0052
   52DOPE    HS 6599   9.008   5.002  13.629 -0.9689 -1.2880 -1.2239
   52DOPE   O21 6600   9.176   5.136  13.637 -0.1644  0.0253 -0.3357
   52DOPE   C21 6601   9.098   5.239  13.689 -0.2134  0.3778 -0.1297
   52DOPE   O22 6602   8.978   5.241  13.690 -0.0230 -0.4849  0.3198
   52DOPE   C22 6603   9.195   5.350  13.743 -0.4854  0.7203  0.0067
   52DOPE   H2R 6604   9.257   5.387  13.658  0.3834 -0.4313  0.1263
   52DOPE   H2S 6605   9.268   5.297  13.808  1.1647  2.2416 -0.5021
   52DOPE    C3 6606   9.195   4.915  13.557 -0.5528 -0.1243 -0.1750
   52DOPE    HX 6607   9.289   4.959  13.517 -1.3396  1.6933 -0.1170
   52DOPE    HY 6608   9.158   4.843  13.481 -0.1945  0.3228 -0.7807
   52DOPE   O31 6609   9.204   4.848  13.683 -0.2649  0.0964  0.1231
   52DOPE   C31 6610   9.317   4.876  13.755  0.1737 -0.2798 -0.1043
   52DOPE   O32 6611   9.410   4.949  13.727  0.3971  0.0415 -0.5274
   52DOPE   C32 6612   9.302   4.813  13.888  0.5443  0.2398 -0.1483
   52DOPE   H2X 6613   9.219   4.739  13.884 -0.5443  1.3986  0.2366
   52DOPE   H2Y 6614   9.400   4.765  13.907  2.1296  2.4520 -2.1959
   52DOPE   C23 6615   9.127   5.455  13.834  0.3004  0.3931 -0.5479
   52DOPE   H3R 6616   9.033   5.484  13.783 -0.7516  2.4467  2.2898
   52DOPE   H3S 6617   9.189   5.547  13.837  1.7065 -0.5484  0.3262
   52DOPE   C24 6618   9.089   5.407  13.982  0.1481  0.0520  0.4633
   52DOPE   H4R 6619   9.010   5.329  13.978 -0.2983  0.5403 -0.7596
   52DOPE   H4S 6620   9.042   5.493  14.034 -0.9299 -0.6416  0.6680
   52DOPE   C25 6621   9.204   5.353  14.069  0.7940 -0.5331 -0.3957
   52DOPE   H5R 6622   9.278   5.435  14.077  0.5640 -0.4010  0.4645
   52DOPE   H5S 6623   9.251   5.260  14.031  1.3284  0.0740 -1.2336
   52DOPE   C26 6624   9.136   5.318  14.211 -0.8050 -0.8344 -0.2270
   52DOPE   H6R 6625   9.207   5.257  14.270  1.5467  0.7186 -1.2883
   52DOPE   H6S 6626   9.040   5.264  14.191 -0.9000 -0.1735 -1.7396
   52DOPE   C27 6627   9.100   5.451  14.292 -0.6531 -0.0425  0.7888
   52DOPE   H7R 6628   9.042   5.528  14.237 -0.3846 -0.2417  0.2160
   52DOPE   H7S 6629   9.195   5.494  14.330 -0.3704 -0.2507  0.3251
   52DOPE   C28 6630   8.996   5.427  14.404 -0.5673 -0.3160 -0.2296
   52DOPE   H8R 6631   8.907   5.372  14.368  0.1960 -1.2962 -0.6739
   52DOPE   H8S 6632   8.963   5.530  14.429  2.9953  0.5804  1.3796
   52DOPE   C29 6633   9.074   5.363  14.518 -0.3915  0.1611 -0.0892
   52DOPE   H9R 6634   9.164   5.415  14.553  0.8785 -0.9269 -1.6173
   52DOPE  C210 6635   9.040   5.247  14.583  0.2874  0.0833  0.7347
   52DOPE  H10R 6636   9.103   5.210  14.665  1.1453  1.5138  0.7644
   52DOPE  C211 6637   8.910   5.177  14.550  0.0049  0.3865  0.4312
   52DOPE  H11R 6638   8.896   5.140  14.447  1.0792 -3.5297  1.5226
   52DOPE  H11S 6639   8.826   5.246  14.572  0.7037  2.3989 -2.6433
   52DOPE  C212 6640   8.881   5.058  14.639 -0.1840  0.3700 -0.0213
   52DOPE  H12R 6641   8.962   4.993  14.679 -1.0730 -2.1471 -2.0312
   52DOPE  H12S 6642   8.828   4.984  14.575  2.8470 -0.5180 -1.7365
   52DOPE  C213 6643   8.792   5.100  14.760  0.5656  0.2528  0.0491
   52DOPE  H13R 6644   8.761   5.011  14.818  1.2502 -0.2099 -0.2842
   52DOPE  H13S 6645   8.694   5.134  14.721  0.4193 -1.8994 -1.6693
   52DOPE  C214 6646   8.868   5.190  14.855 -0.3746 -0.1184 -0.0118
   52DOPE  H14R 6647   8.883   5.297  14.826 -1.5060  1.7648  5.1591
   52DOPE  H14S 6648   8.968   5.146  14.873 -0.4685 -0.5406 -0.5179
   52DOPE  C215 6649   8.798   5.193  14.996  0.0526  0.4164  0.3583
   52DOPE  H15R 6650   8.830   5.097  15.041  0.9041 -0.1156 -1.3109
   52DOPE  H15S 6651   8.687   5.192  14.990  0.0419 -3.7354 -1.1210
   52DOPE  C216 6652   8.854   5.305  15.087  0.3045  0.6821  0.2936
   52DOPE  H16R 6653   8.823   5.398  15.034  0.8165  1.1259  0.7550
   52DOPE  H16S 6654   8.965   5.307  15.077  0.2036  1.5142 -0.8607
   52DOPE  C217 6655   8.796   5.284  15.230  0.2194  0.1725  0.2829
   52DOPE  H17R 6656   8.838   5.195  15.280  0.2357 -0.3069 -0.5635
   52DOPE  H17S 6657   8.688   5.266  15.209  0.3776 -0.3905 -0.0744
   52DOPE  C218 6658   8.805   5.401  15.332 -0.4149  0.3473 -0.1885
   52DOPE  H18R 6659   8.908   5.432  15.360 -0.4770  1.4985 -1.1422
   52DOPE  H18S 6660   8.762   5.489  15.278  0.9232  0.5765 -0.9135
   52DOPE  H18T 6661   8.747   5.368  15.421 -0.5664 -1.7664 -1.0307
   52DOPE   C33 6662   9.270   4.917  13.996 -0.0471 -0.0009 -0.0627
   52DOPE   H3X 6663   9.161   4.933  13.985 -0.3779 -2.4694 -1.0562
   52DOPE   H3Y 6664   9.320   5.014  13.975 -1.0737  0.3813 -0.8523
   52DOPE   C34 6665   9.297   4.874  14.142  0.0834  0.4474 -0.1732
   52DOPE   H4X 6666   9.249   4.779  14.174  1.0348  0.2138  0.6077
   52DOPE   H4Y 6667   9.408   4.863  14.148  0.3993  2.4286 -1.4381
   52DOPE   C35 6668   9.252   4.983  14.244  0.0800  0.2737  0.4296
   52DOPE   H5X 6669   9.142   5.001  14.237 -0.3710 -0.4634  3.9949
   52DOPE   H5Y 6670   9.305   5.072  14.203 -1.0276 -0.1776 -2.1952
   52DOPE   C36 6671   9.293   4.949  14.386 -0.7133  0.0516  0.1495
   52DOPE   H6X 6672   9.302   5.041  14.446  0.0679 -0.0499  0.1925
   52DOPE   H6Y 6673   9.390   4.898  14.404 -2.0944 -2.4487  1.0517
   52DOPE   C37 6674   9.195   4.863  14.461 -0.3723  0.0583  0.3516
   52DOPE   H7X 6675   9.115   4.923  14.508 -1.6360 -1.9507  0.8836
   52DOPE   H7Y 6676   9.165   4.793  14.380  2.4031 -1.0978  0.2107
   52DOPE   C38 6677   9.265   4.784  14.570 -1.1084 -0.4852 -0.2893
   52DOPE   H8X 6678   9.326   4.852  14.634 -1.9993  1.2825 -1.2412
   52DOPE   H8Y 6679   9.332   4.715  14.513 -0.6538  0.2070 -0.6089
   52DOPE   C39 6680   9.163   4.700  14.647 -0.6884 -0.1564  0.1241
   52DOPE   H9X 6681   9.120   4.621  14.584 -0.7929  0.8750 -1.1544
   52DOPE  C310 6682   9.121   4.716  14.775 -0.6426  0.5951 -0.5555
   52DOPE  H10X 6683   9.049   4.647  14.820 -0.6695  1.2727  0.4860
   52DOPE  C311 6684   9.180   4.805  14.877  0.6675 -0.2062  0.0730
   52DOPE  H11X 6685   9.267   4.750  14.920 -0.4309 -1.2872  1.0082
   52DOPE  H11Y 6686   9.225   4.897  14.835  1.7068  0.2424  2.0615
   52DOPE  C312 6687   9.084   4.845  14.991  0.1555 -0.3270  0.2299
   52DOPE  H12X 6688   9.035   4.755  15.033 -0.1829 -0.7765 -1.0755
   52DOPE  H12Y 6689   9.003   4.914  14.958  1.5131  0.8931 -0.7010
   52DOPE  C313 6690   9.152   4.924  15.109 -0.1959  0.1324 -0.1294
   52DOPE  H13X 6691   9.247   4.875  15.139  1.1200  1.4293 -1.9147
   52DOPE  H13Y 6692   9.165   5.030  15.077  0.6617  0.1180  0.1336
   52DOPE  C314 6693   9.068   4.932  15.241  0.2646 -0.5600 -0.1788
   52DOPE  H14X 6694   9.058   4.824  15.267 -1.9395 -0.0818  1.2543
   52DOPE  H14Y 6695   8.966   4.972  15.225  0.9645  1.4069 -0.0365
   52DOPE  C315 6696   9.159   4.999  15.346  0.4941  0.0718 -0.3777
   52DOPE  H15X 6697   9.259   4.953  15.359 -0.3770 -2.1283 -0.8101
   52DOPE  H15Y 6698   9.109   4.987  15.444  0.1669 -0.3236 -0.5873
   52DOPE  C316 6699   9.166   5.157  15.337  0.4155  0.8153  0.2162
   52DOPE  H16X 6700   9.060   5.192  15.331 -0.0354 -0.7101 -1.9293
   52DOPE  H16Y 6701   9.218   5.184  15.242 -0.0449  2.0581  0.2907
   52DOPE  C317 6702   9.248   5.221  15.452 -0.4801 -0.2312 -0.1423
   52DOPE  H17X 6703   9.220   5.191  15.555  1.0136  0.2074  0.4125
   52DOPE  H17Y 6704   9.357   5.206  15.437 -0.2658  0.4342  0.6353
   52DOPE  C318 6705   9.220   5.375  15.454  0.2480 -0.4768  0.3063
   52DOPE  H18X 6706   9.115   5.397  15.485  1.0793  0.4116  2.7826
   52DOPE  H18Y 6707   9.270   5.413  15.546 -0.6183 -0.6774  0.8685
   52DOPE  H18Z 6708   9.265   5.420  15.363 -2.0671  1.7530  0.1301
   53DOPE     N 6709   6.464   6.807  12.778 -0.0287 -0.1963 -0.2934
   53DOPE   HN1 6710   6.525   6.740  12.829 -1.0836 -0.3887  0.7411
   53DOPE   HN2 6711   6.420   6.883  12.834 -2.3505 -1.5626 -0.1270
   53DOPE   HN3 6712   6.391   6.749  12.731  1.3709 -0.4552 -2.2890
   53DOPE   C12 6713   6.544   6.877  12.668  0.8513 -0.0157 -0.1780
   53DOPE  H12A 6714   6.480   6.920  12.588  0.5755 -1.4466 -0.7522
   53DOPE  H12B 6715   6.608   6.802  12.617  1.0319  0.3920 -0.5638
   53DOPE   C11 6716   6.617   6.995  12.737  1.0292  0.3662  0.1241
   53DOPE  H11A 6717   6.552   7.080  12.767 -0.5318 -0.6295 -0.3417
   53DOPE  H11B 6718   6.680   7.051  12.664  0.0761 -2.0081 -2.7147
   53DOPE     P 6719   6.848   6.906  12.843 -0.3532  0.2401  0.0636
   53DOPE   O13 6720   6.947   7.017  12.827 -0.3088 -0.5792 -0.5044
   53DOPE   O14 6721   6.865   6.799  12.743  0.0261 -0.5937  0.3212
   53DOPE   O11 6722   6.873   6.841  12.989 -0.3724 -0.2841  0.2864
   53DOPE   O12 6723   6.699   6.957  12.851 -0.1169  0.4923  0.3737
   53DOPE    C1 6724   6.763   6.842  13.087 -0.5844  0.6092 -0.0792
   53DOPE    HA 6725   6.815   6.790  13.170  1.3298 -0.7862 -2.0210
   53DOPE    HB 6726   6.679   6.780  13.050 -0.0598  1.2768 -2.6642
   53DOPE    C2 6727   6.725   6.986  13.144  0.2066 -0.7267 -0.0419
   53DOPE    HS 6728   6.716   7.063  13.064 -2.5567 -0.2440  0.6472
   53DOPE   O21 6729   6.837   7.021  13.220 -0.1026 -0.4086 -0.0887
   53DOPE   C21 6730   6.828   7.142  13.270  0.2779 -0.1346 -0.1610
   53DOPE   O22 6731   6.765   7.236  13.228 -0.4013  0.2223  1.0433
   53DOPE   C22 6732   6.918   7.153  13.395 -0.3668  0.7193  1.0170
   53DOPE   H2R 6733   7.001   7.225  13.377  0.9413 -0.7148  1.1128
   53DOPE   H2S 6734   6.965   7.054  13.409 -0.9074  0.1699 -0.7225
   53DOPE    C3 6735   6.580   6.983  13.218 -0.8741  0.5982 -0.0814
   53DOPE    HX 6736   6.507   6.934  13.151 -0.9317 -2.3842  1.9600
   53DOPE    HY 6737   6.553   7.090  13.235  2.2245  1.7356 -1.5547
   53DOPE   O31 6738   6.584   6.906  13.346 -0.9278 -0.4343 -0.9527
   53DOPE   C31 6739   6.497   6.815  13.373  0.0523  0.1207 -0.5728
   53DOPE   O32 6740   6.402   6.791  13.303  0.0869 -0.5902 -0.2222
   53DOPE   C32 6741   6.546   6.747  13.505  0.4037 -0.1869  0.3631
   53DOPE   H2X 6742   6.482   6.663  13.538 -1.5673  0.6137 -1.2329
   53DOPE   H2Y 6743   6.647   6.705  13.487 -0.1027 -1.2066 -0.1728
   53DOPE   C23 6744   6.830   7.206  13.520  0.0131  0.4939  0.3335
   53DOPE   H3R 6745   6.727   7.164  13.519  0.4760 -0.6437  0.0126
   53DOPE   H3S 6746   6.828   7.317  13.514 -0.1775  0.5369  1.0264
   53DOPE   C24 6747   6.901   7.169  13.645  0.0601 -0.4688 -0.4400
   53DOPE   H4R 6748   6.997   7.220  13.667 -0.8058  0.7223  0.7154
   53DOPE   H4S 6749   6.927   7.063  13.624 -1.2028 -0.9973  0.5306
   53DOPE   C25 6750   6.819   7.172  13.782 -0.2046 -0.2297  0.5715
   53DOPE   H5R 6751   6.864   7.109  13.862 -2.7309  0.7996  2.9581
   53DOPE   H5S 6752   6.715   7.137  13.766 -0.1224  0.4640 -1.7762
   53DOPE   C26 6753   6.806   7.312  13.839 -0.0335 -0.4996  0.0505
   53DOPE   H6R 6754   6.728   7.364  13.780  2.4090 -0.2817 -3.2238
   53DOPE   H6S 6755   6.897   7.373  13.824 -1.6370  1.8597 -0.7762
   53DOPE   C27 6756   6.770   7.310  13.988 -0.1340 -0.2813  0.2928
   53DOPE   H7R 6757   6.843   7.242  14.038  2.5986  1.4007 -1.1419
   53DOPE   H7S 6758   6.674   7.256  14.004 -0.5879  0.7580  1.1914
   53DOPE   C28 6759   6.769   7.453  14.046  0.1732 -0.5222  0.4404
   53DOPE   H8R 6760   6.680   7.507  14.006 -0.5803 -1.5881  0.6412
   53DOPE   H8S 6761   6.860   7.509  14.018 -0.2493 -1.2511 -2.8016
   53DOPE   C29 6762   6.755   7.435  14.197  0.2200 -0.5562  0.2830
   53DOPE   H9R 6763   6.649   7.418  14.220 -0.9654 -0.3539 -4.2086
   53DOPE  C210 6764   6.843   7.448  14.293 -0.4002 -1.1154 -0.3784
   53DOPE  H10R 6765   6.811   7.424  14.395 -0.7164  1.2799  0.1381
   53DOPE  C211 6766   6.990   7.470  14.276 -0.7047 -0.3454  0.2248
   53DOPE  H11R 6767   7.020   7.556  14.339  3.1884 -1.3123 -0.0644
   53DOPE  H11S 6768   7.031   7.489  14.175 -0.7505 -0.8757  0.1042
   53DOPE  C212 6769   7.067   7.350  14.324 -0.9885 -0.0762 -0.1254
   53DOPE  H12R 6770   7.173   7.383  14.317 -1.6386  1.7607 -3.1718
   53DOPE  H12S 6771   7.047   7.265  14.256  0.1218 -0.8611  0.4874
   53DOPE  C213 6772   7.047   7.311  14.467 -0.0705 -0.1442  0.0247
   53DOPE  H13R 6773   6.940   7.295  14.489 -0.3572  0.1448 -1.1037
   53DOPE  H13S 6774   7.075   7.403  14.523 -1.5131  1.1521 -1.3069
   53DOPE  C214 6775   7.127   7.188  14.508  0.3451  0.4044  0.7369
   53DOPE  H14R 6776   7.102   7.171  14.614 -0.0166 -2.9640  0.2261
   53DOPE  H14S 6777   7.236   7.211  14.511  0.5955 -0.2802 -1.2766
   53DOPE  C215 6778   7.110   7.059  14.428  0.2105 -0.3783 -0.2093
   53DOPE  H15R 6779   7.150   7.073  14.326 -0.1538  0.1827 -0.2830
   53DOPE  H15S 6780   7.001   7.037  14.431 -0.4230  2.4139  1.8813
   53DOPE  C216 6781   7.191   6.945  14.493 -0.9795 -0.2908  0.1878
   53DOPE  H16R 6782   7.161   6.945  14.599 -0.2141 -3.1901  0.4947
   53DOPE  H16S 6783   7.299   6.965  14.474 -1.1378 -0.4735 -0.9785
   53DOPE  C217 6784   7.163   6.809  14.425  0.6874 -0.6541 -0.3432
   53DOPE  H17R 6785   7.177   6.822  14.316 -2.6120 -0.0300 -0.8117
   53DOPE  H17S 6786   7.055   6.783  14.431  0.1108  1.3128 -1.5132
   53DOPE  C218 6787   7.247   6.701  14.483 -0.0074  0.8263  0.3606
   53DOPE  H18R 6788   7.254   6.694  14.594  1.1168  0.7813  0.3062
   53DOPE  H18S 6789   7.351   6.727  14.452 -0.0476  0.6881  0.1133
   53DOPE  H18T 6790   7.214   6.606  14.435  1.9504  0.9686 -1.4134
   53DOPE   C33 6791   6.551   6.847  13.622  0.5020  0.2769 -0.2852
   53DOPE   H3X 6792   6.605   6.941  13.595 -2.2559  1.4988 -1.9654
   53DOPE   H3Y 6793   6.594   6.792  13.709 -1.1772 -1.0348 -0.2419
   53DOPE   C34 6794   6.414   6.886  13.685 -0.0787 -0.1544  0.2544
   53DOPE   H4X 6795   6.381   6.968  13.617 -0.0953 -1.4811 -1.4149
   53DOPE   H4Y 6796   6.335   6.809  13.678  0.1480 -0.3424 -0.2726
   53DOPE   C35 6797   6.419   6.933  13.832 -0.9393  0.7695 -0.0563
   53DOPE   H5X 6798   6.320   6.966  13.870 -2.9754 -2.5016 -1.9873
   53DOPE   H5Y 6799   6.473   7.029  13.839  0.6343 -0.0937  0.2583
   53DOPE   C36 6800   6.466   6.828  13.939  0.3332  0.1488  0.0728
   53DOPE   H6X 6801   6.459   6.724  13.902 -2.1027 -0.2231  1.3633
   53DOPE   H6Y 6802   6.395   6.834  14.023  0.5135 -0.3933  0.2684
   53DOPE   C37 6803   6.609   6.858  13.988  0.3432 -0.0941  0.4955
   53DOPE   H7X 6804   6.673   6.878  13.899  1.1657  0.9285  1.2846
   53DOPE   H7Y 6805   6.601   6.959  14.035 -3.8070  0.2323 -0.5009
   53DOPE   C38 6806   6.658   6.747  14.073 -0.3670 -0.5793  0.4054
   53DOPE   H8X 6807   6.668   6.651  14.017  3.1088 -0.6332  0.9080
   53DOPE   H8Y 6808   6.593   6.736  14.163 -0.3783  0.1962  0.4961
   53DOPE   C39 6809   6.792   6.801  14.120  0.3901  0.3674  0.3862
   53DOPE   H9X 6810   6.873   6.791  14.046  1.4349  0.5782  1.4576
   53DOPE  C310 6811   6.816   6.863  14.233 -0.4457 -0.5762  0.5807
   53DOPE  H10X 6812   6.918   6.903  14.249 -0.6024  1.3336 -2.3418
   53DOPE  C311 6813   6.725   6.900  14.344  0.0747  0.1998  0.8725
   53DOPE  H11X 6814   6.633   6.838  14.339  1.5191 -1.9807 -1.2666
   53DOPE  H11Y 6815   6.769   6.861  14.438  1.3519 -0.2832  0.0958
   53DOPE  C312 6816   6.683   7.048  14.359  0.4632  0.3150  0.2584
   53DOPE  H12X 6817   6.630   7.073  14.264  0.6617 -0.1477  0.0205
   53DOPE  H12Y 6818   6.773   7.114  14.368  0.7566  0.0966 -0.8867
   53DOPE  C313 6819   6.586   7.066  14.478 -0.3215  0.4168  0.3470
   53DOPE  H13X 6820   6.488   7.017  14.456 -1.4074  1.2429  2.9257
   53DOPE  H13Y 6821   6.635   7.020  14.566  1.3596  1.6164  0.0848
   53DOPE  C314 6822   6.556   7.215  14.507  0.2932  0.0541  0.1188
   53DOPE  H14X 6823   6.505   7.264  14.421 -0.7682 -0.2247  0.5660
   53DOPE  H14Y 6824   6.655   7.264  14.501  0.9663 -0.8383  2.7280
   53DOPE  C315 6825   6.515   7.242  14.653  0.4273  0.1483 -0.1657
   53DOPE  H15X 6826   6.505   7.353  14.662  1.9567  0.2748  0.1227
   53DOPE  H15Y 6827   6.600   7.217  14.719  0.9175  1.4936 -0.2547
   53DOPE  C316 6828   6.385   7.177  14.692 -0.8302 -0.2953  0.0268
   53DOPE  H16X 6829   6.388   7.068  14.711 -0.3588  0.1756  3.0957
   53DOPE  H16Y 6830   6.313   7.212  14.614 -0.5762  0.3806  0.0865
   53DOPE  C317 6831   6.332   7.222  14.828 -0.1143 -0.5265  0.0642
   53DOPE  H17X 6832   6.286   7.323  14.820 -0.0589 -0.6273 -1.8427
   53DOPE  H17Y 6833   6.251   7.152  14.856 -1.9156  2.2857  2.6424
   53DOPE  C318 6834   6.429   7.205  14.947  0.3559  0.5458  0.4789
   53DOPE  H18X 6835   6.472   7.103  14.937 -0.2910  0.1999  1.1293
   53DOPE  H18Y 6836   6.516   7.274  14.949 -0.3692  1.4749  1.1792
   53DOPE  H18Z 6837   6.377   7.211  15.046 -1.2880  0.2265 -0.3325
   54DOPE     N 6838   0.903   3.738  13.021 -0.7335 -0.5707  0.0763
   54DOPE   HN1 6839   0.991   3.689  13.046 -0.9102 -0.4553  0.9576
   54DOPE   HN2 6840   0.886   3.750  12.919  0.1764  0.8372  0.0626
   54DOPE   HN3 6841   0.919   3.836  13.052  0.4630 -0.6900 -0.1283
   54DOPE   C12 6842   0.797   3.672  13.097 -0.1398 -0.0354 -0.1656
   54DOPE  H12A 6843   0.827   3.568  13.120  0.7418 -0.4047 -2.6604
   54DOPE  H12B 6844   0.702   3.666  13.040  0.0516  1.1448 -0.6474
   54DOPE   C11 6845   0.767   3.745  13.231 -0.5457  0.0577 -0.3955
   54DOPE  H11A 6846   0.683   3.688  13.276 -1.0144 -0.4438 -1.8685
   54DOPE  H11B 6847   0.734   3.850  13.219  1.1821  1.1776  3.0821
   54DOPE     P 6848   0.923   3.859  13.427  0.2031  0.2938  0.4561
   54DOPE   O13 6849   0.929   3.990  13.362  0.4645  0.1612  0.1249
   54DOPE   O14 6850   1.045   3.810  13.491  0.4029 -0.3801  0.0879
   54DOPE   O11 6851   0.802   3.841  13.528  0.1869 -0.1817  0.5553
   54DOPE   O12 6852   0.882   3.750  13.315 -0.1287 -0.0285 -0.1243
   54DOPE    C1 6853   0.777   3.712  13.595  0.6953 -0.9455 -0.2833
   54DOPE    HA 6854   0.856   3.639  13.569 -0.8456 -1.8624 -2.7673
   54DOPE    HB 6855   0.690   3.653  13.558  1.0756 -2.2193  0.7662
   54DOPE    C2 6856   0.779   3.729  13.751 -0.1037 -0.1372  0.7126
   54DOPE    HS 6857   0.770   3.632  13.805 -0.4156 -0.1975  0.5593
   54DOPE   O21 6858   0.677   3.825  13.793  0.5702 -0.0754 -0.1089
   54DOPE   C21 6859   0.561   3.774  13.833 -0.6795  0.2910  0.3248
   54DOPE   O22 6860   0.529   3.654  13.825 -0.2761 -0.1600  0.0550
   54DOPE   C22 6861   0.482   3.881  13.898 -0.7502  0.2501 -0.6050
   54DOPE   H2R 6862   0.378   3.843  13.897  0.0048 -1.9182 -1.7057
   54DOPE   H2S 6863   0.491   3.968  13.829  0.8677  1.3749  0.9249
   54DOPE    C3 6864   0.920   3.788  13.780  0.5553  0.0561 -0.0362
   54DOPE    HX 6865   0.901   3.888  13.736 -2.0664 -1.6124 -3.1902
   54DOPE    HY 6866   0.998   3.725  13.732  1.0554  1.2309 -0.8071
   54DOPE   O31 6867   0.942   3.777  13.921 -0.0808  0.7226 -0.4611
   54DOPE   C31 6868   0.915   3.897  13.982 -0.1428  0.1623 -0.5405
   54DOPE   O32 6869   0.896   4.001  13.927  0.0814 -0.0780  0.6268
   54DOPE   C32 6870   0.925   3.888  14.132  0.0880 -0.1038 -0.4078
   54DOPE   H2X 6871   0.847   3.815  14.162 -0.0610 -0.1005 -0.7839
   54DOPE   H2Y 6872   1.018   3.838  14.167 -1.4028 -2.2336  0.7398
   54DOPE   C23 6873   0.540   3.910  14.040 -0.3823 -0.4005  0.5881
   54DOPE   H3R 6874   0.508   4.014  14.067  1.1841  0.6071 -1.1910
   54DOPE   H3S 6875   0.651   3.915  14.042 -0.2906 -0.6541 -1.7752
   54DOPE   C24 6876   0.490   3.794  14.142  0.5287 -0.1963 -0.1075
   54DOPE   H4R 6877   0.534   3.701  14.101 -1.4252 -0.4351 -1.8490
   54DOPE   H4S 6878   0.382   3.778  14.121  0.7058  0.9238 -2.2448
   54DOPE   C25 6879   0.529   3.814  14.291 -0.4073  0.1588  0.3715
   54DOPE   H5R 6880   0.633   3.853  14.282 -0.4093  0.1094  0.1208
   54DOPE   H5S 6881   0.522   3.725  14.357  2.2942 -1.0536 -0.8173
   54DOPE   C26 6882   0.448   3.931  14.355  0.1207 -0.9929  0.0375
   54DOPE   H6R 6883   0.348   3.890  14.378  0.2849 -1.7376 -0.5225
   54DOPE   H6S 6884   0.434   4.012  14.280 -1.6280 -1.3371 -0.0463
   54DOPE   C27 6885   0.512   3.975  14.486 -0.6526 -0.0569 -0.8353
   54DOPE   H7R 6886   0.622   3.983  14.473 -0.4303 -0.3321  0.7110
   54DOPE   H7S 6887   0.492   3.888  14.553 -0.9108 -1.2960 -2.4698
   54DOPE   C28 6888   0.447   4.107  14.535 -0.2775  0.2066 -0.2125
   54DOPE   H8R 6889   0.342   4.108  14.499  0.0192  1.3026 -1.1211
   54DOPE   H8S 6890   0.501   4.183  14.474  0.5955 -0.6162 -0.5017
   54DOPE   C29 6891   0.462   4.139  14.686  0.5628 -0.3724  0.2452
   54DOPE   H9R 6892   0.526   4.067  14.738  0.8916 -1.7938 -1.9885
   54DOPE  C210 6893   0.382   4.216  14.758  0.2695  0.2736 -0.3096
   54DOPE  H10R 6894   0.420   4.248  14.857 -0.6595  3.7014 -0.9167
   54DOPE  C211 6895   0.272   4.314  14.711  0.8514 -0.2101  0.1621
   54DOPE  H11R 6896   0.212   4.278  14.625  0.3476 -1.0922  0.8596
   54DOPE  H11S 6897   0.312   4.412  14.677  0.3748  0.0350  0.3131
   54DOPE  C212 6898   0.167   4.339  14.822 -0.6488  0.0900  0.3370
   54DOPE  H12R 6899   0.112   4.246  14.848 -1.1366 -0.0268 -1.0337
   54DOPE  H12S 6900   0.086   4.409  14.789  0.7840  1.6613 -0.0051
   54DOPE  C213 6901   0.227   4.407  14.950 -0.0821  0.8055  0.4953
   54DOPE  H13R 6902   0.273   4.503  14.918 -2.3954  2.1443  0.8910
   54DOPE  H13S 6903   0.305   4.336  14.984 -0.0508 -0.4751 -2.0317
   54DOPE  C214 6904   0.119   4.435  15.057 -0.5670  0.1027  0.0829
   54DOPE  H14R 6905   0.104   4.343  15.116  1.5590 -0.3761 -0.0224
   54DOPE  H14S 6906   0.022   4.478  15.026 -2.1812 -1.6274  2.4082
   54DOPE  C215 6907   0.167   4.543  15.158  0.3469  0.2503  0.0768
   54DOPE  H15R 6908   0.194   4.638  15.109  1.1577  0.6276  1.2113
   54DOPE  H15S 6909   0.255   4.504  15.213 -0.1586 -1.4616 -0.2718
   54DOPE  C216 6910   0.066   4.583  15.262  0.8395 -0.3928  0.0704
   54DOPE  H16R 6911   0.014   4.489  15.289  1.0733 -1.2940 -2.3639
   54DOPE  H16S 6912  -0.010   4.654  15.221  1.4254 -0.4763 -1.1996
   54DOPE  C217 6913   0.126   4.654  15.388 -0.2962 -0.6825  0.5770
   54DOPE  H17R 6914   0.106   4.763  15.381  0.1300 -0.5971  0.6603
   54DOPE  H17S 6915   0.237   4.649  15.382 -0.3411 -0.5557 -0.7139
   54DOPE  C218 6916   0.075   4.601  15.522 -0.0665 -0.2230 -0.3425
   54DOPE  H18R 6917  -0.035   4.608  15.515 -0.0487 -1.4037 -2.6326
   54DOPE  H18S 6918   0.110   4.662  15.608  0.9810 -3.8691  2.0652
   54DOPE  H18T 6919   0.094   4.492  15.524 -0.8308 -0.3475  0.6045
   54DOPE   C33 6920   0.889   4.030  14.191 -0.3258 -0.4649  0.1843
   54DOPE   H3X 6921   0.790   4.055  14.147  0.8159  0.6885 -1.8834
   54DOPE   H3Y 6922   0.963   4.102  14.150 -0.9767 -0.4374 -0.9868
   54DOPE   C34 6923   0.903   4.034  14.339 -0.3795 -0.0562 -0.3549
   54DOPE   H4X 6924   0.855   3.943  14.381 -0.0538 -0.1570 -0.1924
   54DOPE   H4Y 6925   1.012   4.038  14.363 -0.4691  0.8030 -0.0775
   54DOPE   C35 6926   0.829   4.160  14.389  0.1074 -0.1621 -0.3863
   54DOPE   H5X 6927   0.719   4.146  14.387 -0.2282  1.9943  0.6223
   54DOPE   H5Y 6928   0.854   4.245  14.323  0.6582 -1.0193 -1.3106
   54DOPE   C36 6929   0.866   4.208  14.535  0.3532 -0.7341 -0.0203
   54DOPE   H6X 6930   0.974   4.234  14.534 -0.4325  3.3021  0.5831
   54DOPE   H6Y 6931   0.840   4.133  14.613  1.2251  0.4681  1.4776
   54DOPE   C37 6932   0.795   4.340  14.571 -0.0742 -0.6223  0.0330
   54DOPE   H7X 6933   0.801   4.409  14.484 -1.9383  0.0747  0.4059
   54DOPE   H7Y 6934   0.686   4.332  14.590 -0.5069  3.5069  0.0904
   54DOPE   C38 6935   0.845   4.408  14.699 -0.1726  0.0289  0.3018
   54DOPE   H8X 6936   0.956   4.415  14.691 -0.3228  0.1557 -2.8157
   54DOPE   H8Y 6937   0.830   4.336  14.783  0.2555  0.3617  0.6693
   54DOPE   C39 6938   0.789   4.542  14.723  0.6463  0.0570  0.3703
   54DOPE   H9X 6939   0.817   4.613  14.644  1.0853 -2.1189 -1.5348
   54DOPE  C310 6940   0.697   4.572  14.810  0.3416  0.1350  0.0386
   54DOPE  H10X 6941   0.678   4.679  14.826  0.0116 -0.2496  2.6162
   54DOPE  C311 6942   0.629   4.484  14.914  0.0525 -0.8495 -0.0139
   54DOPE  H11X 6943   0.522   4.464  14.890 -0.2487  0.0422  0.5409
   54DOPE  H11Y 6944   0.668   4.380  14.917 -0.0307 -0.8649  0.7205
   54DOPE  C312 6945   0.640   4.537  15.055  0.2872 -0.1072  0.6353
   54DOPE  H12X 6946   0.557   4.498  15.117  0.7126 -2.2932 -0.0779
   54DOPE  H12Y 6947   0.653   4.646  15.066 -0.5386  0.1153 -0.4059
   54DOPE  C313 6948   0.760   4.473  15.119 -0.7673 -0.1977  0.2487
   54DOPE  H13X 6949   0.753   4.363  15.105  0.1095 -0.1854 -0.3510
   54DOPE  H13Y 6950   0.850   4.510  15.067 -0.1723  0.3030  1.5852
   54DOPE  C314 6951   0.751   4.512  15.271 -0.0495  0.3899 -0.1952
   54DOPE  H14X 6952   0.660   4.455  15.297  0.0443 -0.6403 -1.9700
   54DOPE  H14Y 6953   0.748   4.623  15.280  0.2882  0.5622 -1.7974
   54DOPE  C315 6954   0.870   4.452  15.353  0.2943 -0.4702  0.0106
   54DOPE  H15X 6955   0.844   4.478  15.458  1.6332 -0.3862  0.3501
   54DOPE  H15Y 6956   0.969   4.502  15.342 -0.3827  0.8375 -0.3303
   54DOPE  C316 6957   0.878   4.296  15.333 -0.0055 -0.2539  0.0548
   54DOPE  H16X 6958   0.934   4.294  15.237  1.2080 -3.9897  0.6888
   54DOPE  H16Y 6959   0.773   4.269  15.314 -0.3721  1.6606 -0.8043
   54DOPE  C317 6960   0.942   4.216  15.449 -0.1063 -0.3159  0.3928
   54DOPE  H17X 6961   0.913   4.110  15.432  0.2739 -0.5062  0.8989
   54DOPE  H17Y 6962   1.051   4.214  15.427 -0.5352 -1.2392 -2.0355
   54DOPE  C318 6963   0.899   4.261  15.588 -0.5812 -0.2964  0.4005
   54DOPE  H18X 6964   0.790   4.240  15.597 -0.4894 -0.7297  0.5457
   54DOPE  H18Y 6965   0.960   4.216  15.670 -0.1711  0.6634  0.6385
   54DOPE  H18Z 6966   0.910   4.370  15.603  1.5045 -0.5657  1.1792
   55DOPE     N 6967   1.358   6.888  13.040  0.4604 -0.0568 -0.2164
   55DOPE   HN1 6968   1.363   6.989  13.018  0.4854  0.0043  0.0649
   55DOPE   HN2 6969   1.327   6.839  12.954 -3.5255  1.8582 -0.1187
   55DOPE   HN3 6970   1.286   6.869  13.112  0.6598 -0.4381 -0.1130
   55DOPE   C12 6971   1.483   6.844  13.110 -0.8902  0.0939 -0.1139
   55DOPE  H12A 6972   1.573   6.883  13.057 -1.7982  1.8487 -0.4629
   55DOPE  H12B 6973   1.488   6.734  13.099  1.8686  0.2615 -1.3751
   55DOPE   C11 6974   1.477   6.886  13.260  0.3625  0.3467 -0.1894
   55DOPE  H11A 6975   1.489   6.997  13.262  1.5194  0.2273 -0.0322
   55DOPE  H11B 6976   1.561   6.833  13.309  0.1008 -0.5986 -0.7371
   55DOPE     P 6977   1.341   6.778  13.452 -0.2178 -0.4617  0.3019
   55DOPE   O13 6978   1.352   6.632  13.424  0.1786  0.3466  0.2407
   55DOPE   O14 6979   1.227   6.826  13.529 -0.3855 -0.1362 -0.0813
   55DOPE   O11 6980   1.469   6.821  13.530  0.3249  0.4928  0.1617
   55DOPE   O12 6981   1.345   6.849  13.314  0.2386 -0.4111  0.3029
   55DOPE    C1 6982   1.492   6.945  13.588 -0.1412 -0.0028 -0.1149
   55DOPE    HA 6983   1.395   6.992  13.618  0.5302  0.7281  0.9914
   55DOPE    HB 6984   1.531   7.019  13.515 -0.4255  0.0711 -0.1923
   55DOPE    C2 6985   1.594   6.953  13.711 -0.0531 -0.2937  0.1480
   55DOPE    HS 6986   1.696   6.953  13.667 -0.7368 -1.3319 -1.5311
   55DOPE   O21 6987   1.565   6.846  13.800  0.4670  0.3407  0.0342
   55DOPE   C21 6988   1.661   6.786  13.860  0.3511  0.1576 -0.4107
   55DOPE   O22 6989   1.783   6.809  13.855  0.4020 -0.6826  0.1143
   55DOPE   C22 6990   1.604   6.665  13.940 -0.0810  0.0104 -0.2843
   55DOPE   H2R 6991   1.495   6.664  13.920 -0.2054  0.2168  0.3583
   55DOPE   H2S 6992   1.608   6.692  14.048 -1.7340  1.6623 -0.5963
   55DOPE    C3 6993   1.586   7.090  13.781 -0.2865 -0.4069  0.3839
   55DOPE    HX 6994   1.480   7.100  13.813 -0.0872  1.7790  0.5226
   55DOPE    HY 6995   1.604   7.172  13.708  0.6056 -0.1652  0.8717
   55DOPE   O31 6996   1.669   7.096  13.896  0.2258  0.6644  0.2678
   55DOPE   C31 6997   1.784   7.161  13.879  0.3598 -0.3612 -0.6725
   55DOPE   O32 6998   1.821   7.208  13.773  0.3090 -0.3536  0.4344
   55DOPE   C32 6999   1.862   7.149  14.013  0.7201  0.0606  0.2647
   55DOPE   H2X 7000   1.804   7.196  14.095 -0.2078 -0.1374 -0.2617
   55DOPE   H2Y 7001   1.883   7.040  14.023 -1.4297 -0.6276 -1.6969
   55DOPE   C23 7002   1.679   6.538  13.891  0.0765  0.0251  0.0605
   55DOPE   H3R 7003   1.788   6.545  13.913 -0.1952  0.6353  1.2625
   55DOPE   H3S 7004   1.668   6.524  13.781  1.6036 -0.6753 -0.0336
   55DOPE   C24 7005   1.615   6.412  13.952  0.5345  0.1449 -0.7279
   55DOPE   H4R 7006   1.508   6.404  13.926  0.3304  0.5388 -0.0215
   55DOPE   H4S 7007   1.619   6.422  14.063 -0.4129 -0.5635 -0.6204
   55DOPE   C25 7008   1.679   6.280  13.898 -0.1681  0.2590  0.4047
   55DOPE   H5R 7009   1.638   6.287  13.795 -1.6580  0.2838  0.9783
   55DOPE   H5S 7010   1.619   6.198  13.942 -0.4880 -0.6394 -1.5568
   55DOPE   C26 7011   1.829   6.265  13.898  0.5140  0.0817 -0.2488
   55DOPE   H6R 7012   1.873   6.336  13.825  0.3397 -1.6914 -2.1787
   55DOPE   H6S 7013   1.860   6.173  13.844  0.4923 -0.5243  0.7439
   55DOPE   C27 7014   1.896   6.268  14.034  0.1670  0.1155  0.4103
   55DOPE   H7R 7015   1.851   6.346  14.100 -1.3566 -1.1714  0.9556
   55DOPE   H7S 7016   2.002   6.302  14.035 -0.0778  0.8975  1.4143
   55DOPE   C28 7017   1.877   6.135  14.113  0.4170 -0.0079 -0.6217
   55DOPE   H8R 7018   1.929   6.044  14.075  0.7533 -0.8191  1.6365
   55DOPE   H8S 7019   1.771   6.104  14.126  0.6723 -0.4361  0.5595
   55DOPE   C29 7020   1.926   6.146  14.260 -0.2155  0.0637 -0.0744
   55DOPE   H9R 7021   2.020   6.093  14.282 -1.5961 -2.0426  1.1069
   55DOPE  C210 7022   1.847   6.189  14.366 -0.5349 -0.1015  0.0565
   55DOPE  H10R 7023   1.892   6.208  14.465  1.2650  0.0920 -0.7476
   55DOPE  C211 7024   1.702   6.224  14.362  0.4598  0.0586 -0.9147
   55DOPE  H11R 7025   1.636   6.166  14.430 -2.4048  2.7654 -1.1683
   55DOPE  H11S 7026   1.654   6.213  14.263 -3.4064  2.5132  0.4699
   55DOPE  C212 7027   1.679   6.374  14.400 -0.2817  0.0027 -0.1403
   55DOPE  H12R 7028   1.584   6.398  14.348  0.1286 -0.5432 -1.1647
   55DOPE  H12S 7029   1.761   6.439  14.364 -0.0255 -0.6689 -0.7701
   55DOPE  C213 7030   1.664   6.387  14.554  0.3079  0.7816  0.1241
   55DOPE  H13R 7031   1.741   6.326  14.606 -1.1095 -2.1179 -0.9537
   55DOPE  H13S 7032   1.562   6.369  14.595  0.7104  1.4161  1.4608
   55DOPE  C214 7033   1.691   6.532  14.598  0.1277 -0.1515  0.0858
   55DOPE  H14R 7034   1.608   6.588  14.551 -1.6392 -2.4926  0.2353
   55DOPE  H14S 7035   1.782   6.568  14.546  0.7103  2.3375  2.5701
   55DOPE  C215 7036   1.689   6.573  14.750 -0.1440  0.5849 -0.7423
   55DOPE  H15R 7037   1.583   6.555  14.777 -1.0088  0.2303 -3.8901
   55DOPE  H15S 7038   1.696   6.684  14.752  1.2095  0.5152 -0.7867
   55DOPE  C216 7039   1.780   6.510  14.850  0.2774 -0.6006 -0.4080
   55DOPE  H16R 7040   1.751   6.403  14.865  0.5214 -0.6661 -0.3918
   55DOPE  H16S 7041   1.770   6.556  14.950  1.3114  0.5441 -0.7987
   55DOPE  C217 7042   1.934   6.501  14.809  0.2783 -0.4695  0.0376
   55DOPE  H17R 7043   1.956   6.610  14.798 -1.7888  0.1940  1.6715
   55DOPE  H17S 7044   1.928   6.439  14.718 -0.8855  2.1660 -1.8193
   55DOPE  C218 7045   2.013   6.442  14.919 -0.3785  0.1435  0.2083
   55DOPE  H18R 7046   2.109   6.402  14.880 -0.0764  0.7240  0.3459
   55DOPE  H18S 7047   1.948   6.360  14.957  0.2278 -0.9171 -0.9936
   55DOPE  H18T 7048   2.033   6.519  14.997 -0.7601  0.3286  0.1241
   55DOPE   C33 7049   2.010   7.212  14.008 -0.8632 -0.0311  0.2315
   55DOPE   H3X 7050   2.057   7.198  13.908 -2.2808 -3.3263 -0.1256
   55DOPE   H3Y 7051   2.077   7.153  14.074 -0.2757  0.2251 -0.1262
   55DOPE   C34 7052   2.016   7.357  14.049  0.0165 -0.1819 -0.8649
   55DOPE   H4X 7053   1.942   7.410  13.986 -2.1984 -1.0618  0.8815
   55DOPE   H4Y 7054   1.978   7.377  14.151  0.0103 -1.5976 -0.5656
   55DOPE   C35 7055   2.153   7.421  14.040 -0.8903 -0.6828  0.5634
   55DOPE   H5X 7056   2.189   7.426  13.935 -0.3458 -0.4170  0.7551
   55DOPE   H5Y 7057   2.233   7.367  14.096 -0.0693  1.1188  1.1932
   55DOPE   C36 7058   2.155   7.565  14.066  0.0880 -0.6988  0.1560
   55DOPE   H6X 7059   2.257   7.605  14.044 -0.4301 -0.0241 -1.1360
   55DOPE   H6Y 7060   2.155   7.582  14.176  1.3191 -2.7473  0.5157
   55DOPE   C37 7061   2.050   7.649  14.003 -0.0063  0.4667  0.6294
   55DOPE   H7X 7062   2.063   7.630  13.894  0.4612 -1.4760  0.9931
   55DOPE   H7Y 7063   1.947   7.626  14.037 -0.4637  1.4924 -0.0023
   55DOPE   C38 7064   2.065   7.804  14.021  0.0377  0.1243  0.2227
   55DOPE   H8X 7065   2.067   7.829  14.129  1.2727 -1.6652  0.6597
   55DOPE   H8Y 7066   1.970   7.839  13.974  0.4619  0.4861 -0.3888
   55DOPE   C39 7067   2.188   7.852  13.943  0.7366  0.1173 -0.2074
   55DOPE   H9X 7068   2.202   7.806  13.844 -0.5553  2.1908 -1.4156
   55DOPE  C310 7069   2.280   7.941  13.988  0.7362 -0.0918 -0.1819
   55DOPE  H10X 7070   2.369   7.954  13.925  0.5201 -0.4916 -0.5731
   55DOPE  C311 7071   2.287   8.018  14.122  0.3018 -0.3151 -0.3023
   55DOPE  H11X 7072   2.320   8.121  14.095 -1.2469  0.3036  0.0593
   55DOPE  H11Y 7073   2.187   8.016  14.169  0.8141 -0.6464  0.7898
   55DOPE  C312 7074   2.389   7.956  14.215 -0.4571  0.3384 -0.6358
   55DOPE  H12X 7075   2.406   8.013  14.309  0.1569 -0.2663 -0.3705
   55DOPE  H12Y 7076   2.490   7.949  14.167 -0.3813 -0.7891 -0.3339
   55DOPE  C313 7077   2.358   7.809  14.275  0.0470 -0.5175 -0.4004
   55DOPE  H13X 7078   2.258   7.810  14.325 -0.3383  2.8212 -1.0686
   55DOPE  H13Y 7079   2.354   7.745  14.184  0.5131  1.6226 -2.0090
   55DOPE  C314 7080   2.466   7.759  14.373  0.0078 -0.8367  0.0045
   55DOPE  H14X 7081   2.463   7.821  14.465  0.6927  2.0935 -1.8147
   55DOPE  H14Y 7082   2.573   7.771  14.346  0.4161 -0.0169  1.8390
   55DOPE  C315 7083   2.443   7.614  14.408  0.7736  0.5899  0.0339
   55DOPE  H15X 7084   2.444   7.549  14.318  1.4509 -1.0449  1.1658
   55DOPE  H15Y 7085   2.344   7.595  14.454 -0.8276 -2.2747 -3.9630
   55DOPE  C316 7086   2.552   7.550  14.498 -0.2899  0.0057 -0.0652
   55DOPE  H16X 7087   2.598   7.618  14.574  0.5508 -0.7023  0.0701
   55DOPE  H16Y 7088   2.634   7.536  14.425 -0.6760  2.4301 -1.0762
   55DOPE  C317 7089   2.516   7.421  14.575  0.0979 -0.6900  0.1176
   55DOPE  H17X 7090   2.448   7.440  14.661  1.8514  0.9494  1.2251
   55DOPE  H17Y 7091   2.469   7.349  14.505  0.8607  0.1633 -1.3107
   55DOPE  C318 7092   2.646   7.357  14.634 -0.1915 -0.2035 -0.6311
   55DOPE  H18X 7093   2.722   7.339  14.555  2.4161 -1.7950  2.0295
   55DOPE  H18Y 7094   2.696   7.422  14.709  0.0120 -2.0247  0.8989
   55DOPE  H18Z 7095   2.630   7.268  14.698  1.3624 -0.6386 -0.7972
   56DOPE     N 7096   0.101   8.534  12.579  0.0745  0.8436  0.6880
   56DOPE   HN1 7097   0.060   8.555  12.486  1.1817  0.4737  0.0939
   56DOPE   HN2 7098   0.205   8.528  12.578  0.0728  0.8804  0.3500
   56DOPE   HN3 7099   0.060   8.440  12.596  0.5171  0.2598 -1.2576
   56DOPE   C12 7100   0.070   8.629  12.682 -0.0432  0.2033  0.3602
   56DOPE  H12A 7101  -0.023   8.682  12.655 -0.4465 -1.3322 -1.4523
   56DOPE  H12B 7102   0.152   8.703  12.694  0.5249 -0.4028  0.2554
   56DOPE   C11 7103   0.064   8.566  12.822 -0.5068  0.0938 -0.5863
   56DOPE  H11A 7104   0.143   8.490  12.840 -2.1632 -1.3965  0.7909
   56DOPE  H11B 7105  -0.035   8.518  12.835 -1.2639  1.7136 -0.0916
   56DOPE     P 7106   0.017   8.676  13.052 -0.4245  0.0938  0.0256
   56DOPE   O13 7107   0.006   8.819  13.076 -0.5877  0.0567  0.1520
   56DOPE   O14 7108   0.094   8.598  13.151  0.2455 -0.0776  0.0413
   56DOPE   O11 7109  -0.120   8.597  13.026 -0.2366 -0.0695 -0.0840
   56DOPE   O12 7110   0.100   8.671  12.913  0.3505 -0.0500  0.4381
   56DOPE    C1 7111  -0.168   8.486  13.106 -0.2248  0.3327  0.4440
   56DOPE    HA 7112  -0.102   8.470  13.194 -0.6103 -0.7029  0.5573
   56DOPE    HB 7113  -0.151   8.394  13.047 -2.8018  0.3516 -0.4662
   56DOPE    C2 7114  -0.319   8.505  13.146 -0.3576 -0.3076  0.1700
   56DOPE    HS 7115  -0.362   8.548  13.053 -1.9202  1.8966  1.8084
   56DOPE   O21 7116  -0.322   8.601  13.252  0.0173  0.5094 -0.3511
   56DOPE   C21 7117  -0.421   8.684  13.263 -0.5758 -0.9205 -0.6163
   56DOPE   O22 7118  -0.515   8.692  13.182 -0.1843 -0.1211  0.2254
   56DOPE   C22 7119  -0.397   8.771  13.391  0.2531  0.2472  0.5174
   56DOPE   H2R 7120  -0.324   8.843  13.349  2.4984 -2.0206  0.2476
   56DOPE   H2S 7121  -0.344   8.716  13.472  2.1086 -1.5231 -1.7474
   56DOPE    C3 7122  -0.402   8.376  13.177  0.3671  0.7808  0.0604
   56DOPE    HX 7123  -0.393   8.311  13.087  1.6003  1.8333 -0.6099
   56DOPE    HY 7124  -0.508   8.411  13.181 -0.0700 -0.2801 -1.3267
   56DOPE   O31 7125  -0.371   8.324  13.309  0.2290  0.0781  0.1604
   56DOPE   C31 7126  -0.275   8.238  13.306  0.1330  0.6133 -0.4721
   56DOPE   O32 7127  -0.217   8.195  13.206  0.1902 -0.0060 -0.3053
   56DOPE   C32 7128  -0.233   8.197  13.445 -1.0190 -0.2545  0.0018
   56DOPE   H2X 7129  -0.187   8.283  13.498  0.6980 -2.0949  1.7059
   56DOPE   H2Y 7130  -0.324   8.168  13.502  0.4282 -0.1671  2.5274
   56DOPE   C23 7131  -0.516   8.849  13.440  0.6723  0.0493 -0.0821
   56DOPE   H3R 7132  -0.600   8.778  13.456  1.8484 -1.3873 -0.1094
   56DOPE   H3S 7133  -0.552   8.912  13.355 -0.9652 -1.6668 -0.7230
   56DOPE   C24 7134  -0.487   8.936  13.550 -0.3394  0.2422 -0.0017
   56DOPE   H4R 7135  -0.420   9.021  13.524 -1.3825  1.3460  0.7528
   56DOPE   H4S 7136  -0.438   8.879  13.632  1.1993  3.6014  1.6279
   56DOPE   C25 7137  -0.615   8.999  13.616  0.4900  0.3325 -0.4690
   56DOPE   H5R 7138  -0.677   9.038  13.533 -0.5607 -0.5172 -0.1099
   56DOPE   H5S 7139  -0.577   9.080  13.681  2.0930 -0.8194  0.1292
   56DOPE   C26 7140  -0.701   8.902  13.699  0.0742 -0.8137 -0.0536
   56DOPE   H6R 7141  -0.734   8.820  13.632  0.9990 -0.6102 -0.7812
   56DOPE   H6S 7142  -0.789   8.961  13.733 -0.5839 -1.1285 -1.1427
   56DOPE   C27 7143  -0.612   8.846  13.812  0.0722  0.0721 -0.2533
   56DOPE   H7R 7144  -0.545   8.928  13.845 -0.1510  0.8546 -1.6451
   56DOPE   H7S 7145  -0.539   8.774  13.769  0.5037  1.3100 -1.6807
   56DOPE   C28 7146  -0.694   8.794  13.929 -1.0055 -0.3105 -0.0706
   56DOPE   H8R 7147  -0.742   8.880  13.980 -0.7839  0.9838 -1.9647
   56DOPE   H8S 7148  -0.627   8.747  14.005 -1.5752  0.0101  0.6432
   56DOPE   C29 7149  -0.796   8.694  13.886  0.3139 -0.5072  0.1640
   56DOPE   H9R 7150  -0.759   8.593  13.864 -1.3680 -1.4822  1.6020
   56DOPE  C210 7151  -0.934   8.721  13.894  0.5169 -0.2783  0.3952
   56DOPE  H10R 7152  -0.996   8.632  13.876  1.0524 -0.3140 -1.4500
   56DOPE  C211 7153  -0.998   8.844  13.959  0.3724  0.4962  0.3121
   56DOPE  H11R 7154  -0.926   8.908  14.015  0.6394  0.3201  0.1740
   56DOPE  H11S 7155  -1.076   8.810  14.030  2.1263  0.0134  2.0905
   56DOPE  C212 7156  -1.065   8.934  13.859 -0.4168  0.0667  0.5532
   56DOPE  H12R 7157  -1.137   8.868  13.806 -1.1946 -0.1858  1.8654
   56DOPE  H12S 7158  -0.999   8.979  13.782 -1.1685 -0.2797 -0.3153
   56DOPE  C213 7159  -1.145   9.053  13.922  0.8734  0.2838  1.3371
   56DOPE  H13R 7160  -1.216   9.005  13.992  0.8296  1.2579  1.9771
   56DOPE  H13S 7161  -1.197   9.105  13.839  1.2597 -0.0777  0.8587
   56DOPE  C214 7162  -1.058   9.139  14.001 -0.2670  0.0344  0.1626
   56DOPE  H14R 7163  -0.965   9.165  13.945 -0.4532 -1.1059 -0.7113
   56DOPE  H14S 7164  -1.017   9.091  14.092 -0.1970 -1.7027 -0.7471
   56DOPE  C215 7165  -1.129   9.268  14.037 -0.5349  0.3846  0.0033
   56DOPE  H15R 7166  -1.214   9.248  14.106  0.0722 -0.4550  0.5354
   56DOPE  H15S 7167  -1.177   9.315  13.949 -0.1848  0.0990 -0.3407
   56DOPE  C216 7168  -1.032   9.364  14.113 -0.2243  0.5415 -0.2271
   56DOPE  H16R 7169  -0.934   9.369  14.060 -0.5377  2.6323 -0.6927
   56DOPE  H16S 7170  -1.011   9.315  14.211  1.9377  1.3981 -0.1932
   56DOPE  C217 7171  -1.102   9.493  14.153 -0.0135  0.6241 -0.0125
   56DOPE  H17R 7172  -1.193   9.477  14.215  1.6796  0.3369  2.5516
   56DOPE  H17S 7173  -1.136   9.553  14.065 -0.6545  1.1258  0.5571
   56DOPE  C218 7174  -1.014   9.595  14.222  0.0006  0.5796 -0.6049
   56DOPE  H18R 7175  -1.026   9.575  14.330 -0.1556  2.5311 -0.2224
   56DOPE  H18S 7176  -1.061   9.695  14.208 -1.3157  0.5588  2.8632
   56DOPE  H18T 7177  -0.910   9.600  14.184 -0.2413  1.7418 -1.1655
   56DOPE   C33 7178  -0.118   8.090  13.457  0.3190  0.0240 -1.1011
   56DOPE   H3X 7179  -0.035   8.135  13.400  0.4540 -1.3254 -2.0194
   56DOPE   H3Y 7180  -0.154   7.995  13.412 -0.2436 -0.7484  0.8363
   56DOPE   C34 7181  -0.071   8.064  13.606 -0.3535  0.8057  0.3666
   56DOPE   H4X 7182  -0.167   8.029  13.649  0.0736 -1.9242 -0.7216
   56DOPE   H4Y 7183  -0.000   7.979  13.607 -1.5149 -0.1910  0.0374
   56DOPE   C35 7184  -0.015   8.179  13.688 -0.4281  0.2918  0.3370
   56DOPE   H5X 7185  -0.096   8.253  13.709 -2.5787 -1.9833  0.5310
   56DOPE   H5Y 7186   0.062   8.242  13.638  1.1735  0.1872  2.5438
   56DOPE   C36 7187   0.045   8.128  13.819  0.2138 -0.5203 -0.2251
   56DOPE   H6X 7188   0.128   8.061  13.790 -0.6344 -1.0376 -1.5512
   56DOPE   H6Y 7189  -0.021   8.056  13.872 -1.2194  0.1713 -0.9763
   56DOPE   C37 7190   0.091   8.227  13.926  0.0271  0.3303 -0.2249
   56DOPE   H7X 7191   0.149   8.176  14.007 -0.1699 -2.2806 -1.6128
   56DOPE   H7Y 7192   0.154   8.296  13.866 -2.0423  0.7361 -2.0385
   56DOPE   C38 7193  -0.038   8.303  13.984  0.4599 -0.1067 -1.1010
   56DOPE   H8X 7194  -0.065   8.369  13.899  1.5291 -0.0466 -1.4065
   56DOPE   H8Y 7195   0.002   8.369  14.064 -1.6658 -2.6374  2.3498
   56DOPE   C39 7196  -0.138   8.207  14.045  0.5243  0.0093  0.5012
   56DOPE   H9X 7197  -0.103   8.117  14.098 -0.4114 -0.0675  1.0099
   56DOPE  C310 7198  -0.270   8.225  14.035 -0.3459 -0.1284  0.4521
   56DOPE  H10X 7199  -0.332   8.135  14.051  1.4780 -1.4455  0.3891
   56DOPE  C311 7200  -0.342   8.340  13.968  0.6314  0.5112  0.3761
   56DOPE  H11X 7201  -0.400   8.383  14.053 -1.2318 -0.5235 -0.3105
   56DOPE  H11Y 7202  -0.268   8.411  13.925  1.3124 -0.6583 -0.4374
   56DOPE  C312 7203  -0.440   8.300  13.856 -0.6613 -0.4888 -0.2779
   56DOPE  H12X 7204  -0.520   8.240  13.904 -1.4981  1.1164  0.4213
   56DOPE  H12Y 7205  -0.387   8.233  13.785  0.7949 -0.4680  0.7411
   56DOPE  C313 7206  -0.500   8.423  13.787  0.3566  0.1710  0.1856
   56DOPE  H13X 7207  -0.551   8.490  13.860 -0.6966 -0.6092  0.1786
   56DOPE  H13Y 7208  -0.420   8.484  13.739  0.0730  1.1603  0.9130
   56DOPE  C314 7209  -0.585   8.380  13.664  0.4865  0.6075 -0.1542
   56DOPE  H14X 7210  -0.652   8.294  13.686  0.5112  0.2407 -1.4131
   56DOPE  H14Y 7211  -0.528   8.335  13.579  0.6300  1.2743 -0.4181
   56DOPE  C315 7212  -0.662   8.491  13.603 -0.3620  0.0142  0.3925
   56DOPE  H15X 7213  -0.591   8.577  13.594  0.6521 -0.4714  2.8171
   56DOPE  H15Y 7214  -0.746   8.529  13.665  1.3945  3.8442  0.7410
   56DOPE  C316 7215  -0.709   8.451  13.464  0.3002 -0.1669  0.0729
   56DOPE  H16X 7216  -0.767   8.357  13.459 -2.1640  1.2915 -0.3512
   56DOPE  H16Y 7217  -0.623   8.435  13.396  0.3468  1.2075 -0.2118
   56DOPE  C317 7218  -0.814   8.550  13.406  0.6384  0.0346 -0.4868
   56DOPE  H17X 7219  -0.907   8.539  13.465  0.4085  3.8708  0.1633
   56DOPE  H17Y 7220  -0.802   8.660  13.418 -2.4428  0.6016 -1.7418
   56DOPE  C318 7221  -0.839   8.513  13.264  0.3224  0.2105  0.4448
   56DOPE  H18X 7222  -0.929   8.566  13.226  0.9446  1.5622  0.7819
   56DOPE  H18Y 7223  -0.759   8.531  13.189 -1.7970  0.7128 -1.8060
   56DOPE  H18Z 7224  -0.858   8.404  13.262 -0.3638  0.2725  2.0197
   57DOPE     N 7225   6.753   3.160  12.723  0.0402 -0.3526  0.1756
   57DOPE   HN1 7226   6.681   3.089  12.703 -0.1598 -0.4047  1.0348
   57DOPE   HN2 7227   6.695   3.246  12.730  0.6182 -0.0363  1.6672
   57DOPE   HN3 7228   6.814   3.167  12.639 -2.0823 -0.6159 -1.4692
   57DOPE   C12 7229   6.831   3.142  12.848  0.1322 -0.2561 -0.2823
   57DOPE  H12A 7230   6.766   3.121  12.936  0.7420 -1.5286 -0.1183
   57DOPE  H12B 7231   6.884   3.236  12.875 -1.2379 -0.0941  2.1840
   57DOPE   C11 7232   6.930   3.025  12.825  0.1845  0.0433 -0.3626
   57DOPE  H11A 7233   7.014   3.058  12.761 -0.8003 -0.6784 -2.1234
   57DOPE  H11B 7234   6.881   2.938  12.775 -2.7622  0.3368  1.7153
   57DOPE     P 7235   6.954   2.862  13.029 -0.2274  0.0683 -0.0106
   57DOPE   O13 7236   7.038   2.750  12.979 -0.5261  0.2066  0.0111
   57DOPE   O14 7237   6.805   2.845  13.008 -0.6932 -0.6562 -0.0760
   57DOPE   O11 7238   6.970   2.905  13.176 -0.5329 -0.0482 -0.0083
   57DOPE   O12 7239   6.991   2.995  12.955  0.2724  0.0821  0.1802
   57DOPE    C1 7240   7.095   2.933  13.238 -0.6656 -0.6260  0.5624
   57DOPE    HA 7241   7.075   3.026  13.296  2.0455 -0.1332  0.8118
   57DOPE    HB 7242   7.172   2.964  13.164 -0.9926 -0.5887  0.2322
   57DOPE    C2 7243   7.161   2.819  13.326 -0.3783 -0.5625 -0.8684
   57DOPE    HS 7244   7.185   2.727  13.267 -1.1344 -1.1754 -0.2529
   57DOPE   O21 7245   7.078   2.791  13.441 -0.0357  0.2514 -0.3524
   57DOPE   C21 7246   7.012   2.681  13.433 -1.0117  0.2715  0.6667
   57DOPE   O22 7247   7.006   2.610  13.332  0.1337 -0.0670  0.3990
   57DOPE   C22 7248   6.954   2.648  13.573 -0.3010 -0.7542  0.8881
   57DOPE   H2R 7249   6.879   2.723  13.604 -0.6634 -1.6402  2.2262
   57DOPE   H2S 7250   7.034   2.644  13.651  1.1887 -0.8887 -0.5901
   57DOPE    C3 7251   7.307   2.863  13.372  0.3883 -0.1829 -0.0273
   57DOPE    HX 7252   7.306   2.948  13.444  1.1299 -0.0598 -0.1561
   57DOPE    HY 7253   7.361   2.895  13.281  2.4655  0.9670  1.5094
   57DOPE   O31 7254   7.368   2.750  13.439  0.2019  0.0805 -0.1958
   57DOPE   C31 7255   7.497   2.781  13.475  0.3399  0.0656 -0.1240
   57DOPE   O32 7256   7.555   2.884  13.444  0.1472 -0.6329 -0.2171
   57DOPE   C32 7257   7.562   2.664  13.534  0.7215  0.1487  0.1641
   57DOPE   H2X 7258   7.568   2.578  13.464 -1.4357  1.8614 -2.3203
   57DOPE   H2Y 7259   7.664   2.699  13.563  1.3298 -0.4251 -1.2307
   57DOPE   C23 7260   6.893   2.505  13.583 -0.2008 -0.2257 -0.0253
   57DOPE   H3R 7261   6.832   2.498  13.491 -0.4551 -2.2134  0.2456
   57DOPE   H3S 7262   6.832   2.492  13.675 -1.8930  2.7891 -0.5800
   57DOPE   C24 7263   7.010   2.403  13.582  0.5063  0.1504 -0.3118
   57DOPE   H4R 7264   7.040   2.375  13.685 -0.3792 -0.7446 -0.2809
   57DOPE   H4S 7265   7.102   2.443  13.535  1.1304 -2.5777 -1.6167
   57DOPE   C25 7266   6.971   2.268  13.516  0.2950  0.2743 -0.2004
   57DOPE   H5R 7267   6.927   2.289  13.416 -0.0625 -1.7296 -0.5059
   57DOPE   H5S 7268   6.892   2.212  13.571 -0.1295 -2.3939 -3.2186
   57DOPE   C26 7269   7.083   2.174  13.505 -1.4932  0.8873 -0.8541
   57DOPE   H6R 7270   7.120   2.156  13.608  0.5297  2.5544 -1.2318
   57DOPE   H6S 7271   7.166   2.210  13.441 -0.3284  1.7802  1.0663
   57DOPE   C27 7272   7.035   2.044  13.435  0.2771 -0.6095 -0.3852
   57DOPE   H7R 7273   7.007   2.071  13.331 -1.6515  1.1405  0.5324
   57DOPE   H7S 7274   6.942   2.009  13.484 -0.9860  0.3642 -1.9812
   57DOPE   C28 7275   7.127   1.928  13.446  0.0745  0.2863  0.2305
   57DOPE   H8R 7276   7.081   1.848  13.384  0.2487 -0.9549  1.6429
   57DOPE   H8S 7277   7.132   1.887  13.549 -1.2039  3.0556  1.4933
   57DOPE   C29 7278   7.268   1.952  13.390  0.1248  0.2580 -0.0971
   57DOPE   H9R 7279   7.271   1.997  13.290 -2.5905 -1.0503 -0.8527
   57DOPE  C210 7280   7.384   1.912  13.445  0.1707  0.4350 -0.1786
   57DOPE  H10R 7281   7.478   1.927  13.390  1.2598 -0.3599  1.3869
   57DOPE  C211 7282   7.399   1.849  13.584  0.3652  0.0680 -0.0083
   57DOPE  H11R 7283   7.417   1.740  13.573  0.3374 -0.1600  1.8117
   57DOPE  H11S 7284   7.305   1.862  13.642 -0.4561  0.0941 -1.2900
   57DOPE  C212 7285   7.515   1.920  13.660 -0.1475  0.4373  0.0246
   57DOPE  H12R 7286   7.603   1.923  13.592 -0.7012  1.4195 -0.6793
   57DOPE  H12S 7287   7.542   1.856  13.747 -0.3625  0.5815  0.1976
   57DOPE  C213 7288   7.486   2.065  13.711 -0.6956  0.9863  0.3800
   57DOPE  H13R 7289   7.389   2.073  13.766 -0.1249 -1.9717  2.0051
   57DOPE  H13S 7290   7.480   2.120  13.614  1.5097 -0.4148 -0.6147
   57DOPE  C214 7291   7.610   2.131  13.787  0.4510  0.5353  0.4661
   57DOPE  H14R 7292   7.630   2.062  13.871 -1.7294 -0.2396  0.4106
   57DOPE  H14S 7293   7.581   2.232  13.824  0.0163 -0.2832  2.4803
   57DOPE  C215 7294   7.735   2.157  13.698  0.1590 -0.5285 -0.3930
   57DOPE  H15R 7295   7.720   2.232  13.617 -2.1689 -2.1490 -1.5774
   57DOPE  H15S 7296   7.764   2.067  13.640  2.1984 -0.8276  1.0115
   57DOPE  C216 7297   7.844   2.176  13.810 -0.6852  0.4850  0.1056
   57DOPE  H16R 7298   7.862   2.081  13.865 -1.3460  0.2090 -0.1406
   57DOPE  H16S 7299   7.822   2.259  13.880 -1.3947 -1.1720  1.9469
   57DOPE  C217 7300   7.974   2.210  13.738 -0.2661  0.1450 -0.1194
   57DOPE  H17R 7301   7.994   2.122  13.673  3.1207  0.1552  0.7372
   57DOPE  H17S 7302   8.064   2.210  13.803 -0.6058 -1.3646  0.3845
   57DOPE  C218 7303   7.990   2.328  13.641 -0.5785 -0.5807 -0.1427
   57DOPE  H18R 7304   8.086   2.330  13.584  0.2093  0.3847  1.1418
   57DOPE  H18S 7305   8.004   2.426  13.693  2.1153  0.3142 -2.3107
   57DOPE  H18T 7306   7.900   2.347  13.579 -0.5749 -1.5257 -0.4406
   57DOPE   C33 7307   7.480   2.614  13.658  0.3884 -0.1463 -0.0495
   57DOPE   H3X 7308   7.423   2.699  13.701 -2.2524 -1.5506 -0.5602
   57DOPE   H3Y 7309   7.551   2.576  13.735  0.1257 -1.4867 -0.4486
   57DOPE   C34 7310   7.386   2.494  13.639 -0.3490  0.1693  0.5998
   57DOPE   H4X 7311   7.294   2.524  13.585  0.5895  0.5505 -0.8307
   57DOPE   H4Y 7312   7.437   2.418  13.576  0.5320 -1.0098  2.6348
   57DOPE   C35 7313   7.354   2.427  13.769 -0.1364  0.4692 -0.4567
   57DOPE   H5X 7314   7.445   2.422  13.833 -2.0741 -1.4976  2.3475
   57DOPE   H5Y 7315   7.327   2.320  13.757  0.6650  0.0865  0.9459
   57DOPE   C36 7316   7.249   2.499  13.851  1.2132 -0.2543 -0.3282
   57DOPE   H6X 7317   7.152   2.508  13.798  1.0053 -1.4937 -0.1905
   57DOPE   H6Y 7318   7.278   2.606  13.861  0.2833 -0.0275  0.1030
   57DOPE   C37 7319   7.227   2.434  13.991 -0.2416 -0.0336  0.7097
   57DOPE   H7X 7320   7.130   2.382  13.998  0.3103 -1.1083  0.5902
   57DOPE   H7Y 7321   7.298   2.348  14.000  1.0220  0.6957 -1.3729
   57DOPE   C38 7322   7.242   2.528  14.110 -0.2532  0.6656  0.6775
   57DOPE   H8X 7323   7.150   2.592  14.106 -1.2071 -0.6783  0.6012
   57DOPE   H8Y 7324   7.318   2.604  14.080 -2.2997  1.6287 -2.6039
   57DOPE   C39 7325   7.261   2.461  14.248 -0.1528 -0.6784 -0.1024
   57DOPE   H9X 7326   7.185   2.465  14.327  2.0015 -0.8738  2.0747
   57DOPE  C310 7327   7.361   2.386  14.296  0.0230  0.0473 -0.4199
   57DOPE  H10X 7328   7.356   2.336  14.394 -2.4563  2.2204  0.6795
   57DOPE  C311 7329   7.481   2.363  14.203  0.1245  0.6265 -0.2084
   57DOPE  H11X 7330   7.466   2.261  14.160  0.3849  0.6121 -0.2642
   57DOPE  H11Y 7331   7.477   2.415  14.105 -1.9955 -1.0746 -1.1120
   57DOPE  C312 7332   7.613   2.379  14.270  0.2385 -0.0577  0.8673
   57DOPE  H12X 7333   7.631   2.315  14.359 -0.2250  2.3751  2.8223
   57DOPE  H12Y 7334   7.632   2.484  14.301  2.1501  0.0095 -0.4103
   57DOPE  C313 7335   7.723   2.337  14.171  0.2832  0.2023  0.4342
   57DOPE  H13X 7336   7.696   2.235  14.138  2.1595  0.3276 -1.7129
   57DOPE  H13Y 7337   7.698   2.404  14.086 -2.2498 -3.4777 -2.0321
   57DOPE  C314 7338   7.860   2.343  14.233 -0.5022 -0.7044  0.2231
   57DOPE  H14X 7339   7.881   2.264  14.308  3.1735 -0.1954 -0.0756
   57DOPE  H14Y 7340   7.870   2.434  14.296 -0.9271 -0.0708 -0.6051
   57DOPE  C315 7341   7.972   2.344  14.134  0.4075  0.3052 -0.4137
   57DOPE  H15X 7342   7.928   2.388  14.042 -2.3024 -0.0248  0.6495
   57DOPE  H15Y 7343   7.997   2.246  14.088 -1.2019 -0.3982  0.1554
   57DOPE  C316 7344   8.103   2.419  14.168 -0.4635 -0.0168 -1.0921
   57DOPE  H16X 7345   8.191   2.377  14.115  0.9724  0.8484  0.4951
   57DOPE  H16Y 7346   8.118   2.403  14.277  1.4540 -0.2283 -1.3547
   57DOPE  C317 7347   8.100   2.570  14.132 -0.1899 -0.5771  0.3031
   57DOPE  H17X 7348   8.064   2.579  14.027 -0.3035  1.8152  0.4948
   57DOPE  H17Y 7349   8.032   2.628  14.197 -0.9659  1.4203 -2.1010
   57DOPE  C318 7350   8.235   2.645  14.132  0.1516 -0.6571  0.1515
   57DOPE  H18X 7351   8.236   2.752  14.100  0.8951 -0.6895  0.0622
   57DOPE  H18Y 7352   8.263   2.635  14.239 -0.6878 -0.9822  0.3467
   57DOPE  H18Z 7353   8.310   2.591  14.071 -1.1369 -2.0809 -0.2344
   58DOPE     N 7354   1.469   7.894  13.158  0.6261 -0.7185 -0.7736
   58DOPE   HN1 7355   1.464   7.874  13.056  0.9617 -2.1466 -0.5262
   58DOPE   HN2 7356   1.486   7.996  13.164  0.9164 -0.7653 -0.7992
   58DOPE   HN3 7357   1.554   7.846  13.194  0.5488  0.5259  1.2057
   58DOPE   C12 7358   1.354   7.842  13.236  0.2445 -0.0853  0.2477
   58DOPE  H12A 7359   1.260   7.880  13.189  0.3941  0.7979  0.6386
   58DOPE  H12B 7360   1.355   7.902  13.330 -1.0797  0.9668 -0.3654
   58DOPE   C11 7361   1.341   7.693  13.246  0.2086  0.4560 -0.6748
   58DOPE  H11A 7362   1.297   7.661  13.149  1.1141 -0.5390 -0.7769
   58DOPE  H11B 7363   1.260   7.675  13.320 -0.5600 -2.3290 -2.0345
   58DOPE     P 7364   1.469   7.477  13.261 -0.2615  0.1051  0.3763
   58DOPE   O13 7365   1.607   7.432  13.223  0.5827 -0.0049 -0.1394
   58DOPE   O14 7366   1.365   7.435  13.163 -0.0252  0.0217 -0.5449
   58DOPE   O11 7367   1.441   7.432  13.406 -0.1897  0.2653 -0.0157
   58DOPE   O12 7368   1.465   7.632  13.280  0.1432  0.5023  0.3112
   58DOPE    C1 7369   1.325   7.476  13.471  0.3910  0.4524  0.6667
   58DOPE    HA 7370   1.234   7.447  13.415  0.8078  0.0801  0.1759
   58DOPE    HB 7371   1.319   7.585  13.489 -1.3189  0.2686  1.3897
   58DOPE    C2 7372   1.317   7.400  13.605 -0.3536 -0.3189  1.0319
   58DOPE    HS 7373   1.228   7.436  13.661 -1.1967 -0.6780 -0.0533
   58DOPE   O21 7374   1.442   7.416  13.679  0.2359  0.0580 -0.2716
   58DOPE   C21 7375   1.426   7.482  13.794  0.4085 -0.0715 -0.0397
   58DOPE   O22 7376   1.332   7.550  13.826  0.1744  0.4436  0.9602
   58DOPE   C22 7377   1.558   7.474  13.873  0.0638 -0.7087  0.0602
   58DOPE   H2R 7378   1.606   7.571  13.848  1.1481 -0.0180  4.0017
   58DOPE   H2S 7379   1.620   7.388  13.839 -2.0471 -1.6638 -1.5950
   58DOPE    C3 7380   1.301   7.244  13.584 -0.7277  0.0519  0.0224
   58DOPE    HX 7381   1.405   7.210  13.562  0.5819  3.0334  1.1154
   58DOPE    HY 7382   1.242   7.214  13.495 -2.1763 -1.0236  1.2842
   58DOPE   O31 7383   1.251   7.173  13.706  1.1003  0.2519  0.1106
   58DOPE   C31 7384   1.122   7.198  13.714 -0.1399 -0.6921  0.0930
   58DOPE   O32 7385   1.060   7.285  13.656  0.3609 -0.2394 -0.4870
   58DOPE   C32 7386   1.059   7.135  13.835  0.3472  0.3044 -0.0021
   58DOPE   H2X 7387   1.118   7.042  13.854 -1.7778 -1.3374 -1.0304
   58DOPE   H2Y 7388   1.069   7.208  13.918 -1.4117  0.6842 -0.0912
   58DOPE   C23 7389   1.531   7.474  14.024 -0.0905  0.8031 -0.2062
   58DOPE   H3R 7390   1.485   7.386  14.072 -0.4948 -0.3300 -2.5139
   58DOPE   H3S 7391   1.467   7.561  14.049 -1.3648 -0.9295  2.9967
   58DOPE   C24 7392   1.663   7.497  14.104  0.5229  0.0528 -0.2800
   58DOPE   H4R 7393   1.697   7.600  14.078 -3.2447  1.4910 -0.2511
   58DOPE   H4S 7394   1.745   7.427  14.078 -0.6198 -1.4790  0.0793
   58DOPE   C25 7395   1.636   7.498  14.250  0.7541  0.8377 -0.2992
   58DOPE   H5R 7396   1.551   7.565  14.277 -0.8343 -1.6851  1.4327
   58DOPE   H5S 7397   1.721   7.533  14.312 -0.5093 -0.2238  2.1883
   58DOPE   C26 7398   1.606   7.355  14.315 -0.1982 -0.5240  0.1637
   58DOPE   H6R 7399   1.688   7.284  14.289 -0.1266 -0.4257  0.1204
   58DOPE   H6S 7400   1.516   7.312  14.266  0.0022  0.1857 -0.8491
   58DOPE   C27 7401   1.579   7.363  14.466  0.1151  0.4132 -0.1237
   58DOPE   H7R 7402   1.496   7.433  14.490 -0.9352 -0.6585 -0.5651
   58DOPE   H7S 7403   1.668   7.411  14.514 -0.9999  2.4056  0.0647
   58DOPE   C28 7404   1.528   7.228  14.525 -0.4159  0.1372 -0.1566
   58DOPE   H8R 7405   1.612   7.159  14.500 -1.4061 -1.0334 -0.3426
   58DOPE   H8S 7406   1.445   7.187  14.464 -0.5880  0.8982 -0.4353
   58DOPE   C29 7407   1.503   7.222  14.674 -0.1772 -0.3350 -0.1967
   58DOPE   H9R 7408   1.556   7.284  14.748 -0.6202 -0.5491  0.3160
   58DOPE  C210 7409   1.417   7.140  14.727 -0.0209 -0.2128 -0.1095
   58DOPE  H10R 7410   1.398   7.129  14.835 -0.5770 -1.9582 -0.3377
   58DOPE  C211 7411   1.331   7.046  14.646  0.1433  0.7242 -0.2052
   58DOPE  H11R 7412   1.384   6.949  14.656 -0.2116  0.5534  0.0826
   58DOPE  H11S 7413   1.324   7.071  14.538  2.9779  1.4386 -0.2954
   58DOPE  C212 7414   1.186   7.026  14.697  0.1172  0.4437 -0.3154
   58DOPE  H12R 7415   1.197   7.009  14.806 -0.2404  0.9355 -0.1989
   58DOPE  H12S 7416   1.154   6.925  14.665  0.3243 -0.6757  2.6659
   58DOPE  C213 7417   1.086   7.139  14.660  0.5193  0.2259  0.6715
   58DOPE  H13R 7418   1.112   7.179  14.559  1.5403 -1.4382  0.2464
   58DOPE  H13S 7419   1.119   7.215  14.733  1.0567 -3.0168  4.0839
   58DOPE  C214 7420   0.936   7.102  14.666 -0.5350 -0.4404 -0.3917
   58DOPE  H14R 7421   0.912   7.022  14.592 -0.8934  1.7440 -2.7929
   58DOPE  H14S 7422   0.875   7.192  14.642 -1.6908 -0.4216  2.3377
   58DOPE  C215 7423   0.897   7.067  14.814 -0.8104 -0.0814  0.1214
   58DOPE  H15R 7424   0.935   7.151  14.876 -0.4367  0.3610 -0.6801
   58DOPE  H15S 7425   0.940   6.970  14.847 -2.2960 -0.2636  1.6267
   58DOPE  C216 7426   0.747   7.065  14.830  0.2182  0.1412 -0.0759
   58DOPE  H16R 7427   0.692   7.013  14.748 -1.1611 -2.1639  2.1409
   58DOPE  H16S 7428   0.712   7.171  14.833  0.8091  0.3712 -0.9723
   58DOPE  C217 7429   0.690   7.005  14.958 -0.4679  0.3551  0.5604
   58DOPE  H17R 7430   0.720   7.066  15.046  0.6216  0.5233  0.0847
   58DOPE  H17S 7431   0.736   6.904  14.969 -1.3639 -0.2771 -1.1066
   58DOPE  C218 7432   0.533   6.998  14.947  0.0665 -0.2087 -0.2773
   58DOPE  H18R 7433   0.491   6.972  15.046  1.8132  1.4395  0.9753
   58DOPE  H18S 7434   0.495   6.919  14.878 -2.2971  0.1074  0.5581
   58DOPE  H18T 7435   0.500   7.101  14.923  3.1953  0.7412 -0.8743
   58DOPE   C33 7436   0.907   7.104  13.828  0.0016 -0.8901 -0.2903
   58DOPE   H3X 7437   0.891   7.029  13.748  1.4649 -0.9593 -0.5424
   58DOPE   H3Y 7438   0.844   7.193  13.808  1.4213  0.0939 -0.5663
   58DOPE   C34 7439   0.850   7.030  13.951 -0.2293 -0.1762 -0.1738
   58DOPE   H4X 7440   0.775   6.955  13.916 -0.9717  0.3881  0.1843
   58DOPE   H4Y 7441   0.931   6.969  13.997  0.2906  1.6403  1.4391
   58DOPE   C35 7442   0.797   7.120  14.064  0.6558  0.0868  0.0963
   58DOPE   H5X 7443   0.688   7.138  14.050  0.9634  1.3412 -0.7934
   58DOPE   H5Y 7444   0.838   7.223  14.072 -1.2185  0.7567  2.1756
   58DOPE   C36 7445   0.823   7.055  14.201 -0.1723  0.3230  0.6713
   58DOPE   H6X 7446   0.931   7.046  14.224 -0.3476 -0.5554  1.1904
   58DOPE   H6Y 7447   0.791   6.949  14.201  0.1211  0.1757 -1.5809
   58DOPE   C37 7448   0.749   7.124  14.308 -0.0868  0.1615  0.5206
   58DOPE   H7X 7449   0.790   7.101  14.409 -1.9782 -0.7793  1.1349
   58DOPE   H7Y 7450   0.758   7.234  14.310 -0.0468  0.1543  0.7529
   58DOPE   C38 7451   0.593   7.087  14.321 -0.4132  0.2905  0.1794
   58DOPE   H8X 7452   0.594   6.978  14.298 -1.3143  0.1876  0.6025
   58DOPE   H8Y 7453   0.528   7.147  14.254  1.4977  2.1947 -0.0864
   58DOPE   C39 7454   0.553   7.104  14.468  0.8738 -0.3005 -0.7174
   58DOPE   H9X 7455   0.606   7.045  14.545 -0.5584  0.3823  0.8526
   58DOPE  C310 7456   0.446   7.183  14.507  0.1092 -0.3048  0.5957
   58DOPE  H10X 7457   0.418   7.187  14.613 -3.2908 -1.2501 -0.1337
   58DOPE  C311 7458   0.347   7.262  14.428 -0.3370  0.4798  0.0166
   58DOPE  H11X 7459   0.339   7.358  14.485 -3.2221 -0.2690  1.0063
   58DOPE  H11Y 7460   0.391   7.299  14.333  1.9260  0.8889  1.1424
   58DOPE  C312 7461   0.209   7.197  14.415  0.2040  0.7875 -0.5694
   58DOPE  H12X 7462   0.135   7.279  14.407 -0.4691  0.5955  2.5228
   58DOPE  H12Y 7463   0.177   7.142  14.506 -0.9633  0.7818 -0.9723
   58DOPE  C313 7464   0.203   7.107  14.289  0.0061 -0.2281 -1.2426
   58DOPE  H13X 7465   0.214   7.168  14.197 -0.7727  0.8378 -0.6393
   58DOPE  H13Y 7466   0.284   7.031  14.293  0.3904  0.2423  0.2214
   58DOPE  C314 7467   0.062   7.029  14.287  0.2608 -0.2872 -0.4671
   58DOPE  H14X 7468  -0.020   7.103  14.279 -0.2443 -0.9911 -2.4692
   58DOPE  H14Y 7469   0.038   6.971  14.379 -5.1924  0.1681 -1.2858
   58DOPE  C315 7470   0.048   6.926  14.177  0.1580  0.1703  0.0542
   58DOPE  H15X 7471   0.128   6.849  14.186  0.4042  0.5425  1.1896
   58DOPE  H15Y 7472   0.060   6.975  14.078 -0.7405  1.9515  0.7762
   58DOPE  C316 7473  -0.086   6.850  14.164  0.5681  0.2835  0.9764
   58DOPE  H16X 7474  -0.175   6.908  14.196  1.3640  2.7344 -0.9533
   58DOPE  H16Y 7475  -0.088   6.756  14.224 -1.4272 -2.0770 -2.4343
   58DOPE  C317 7476  -0.115   6.803  14.018 -0.0673  0.7232 -0.9882
   58DOPE  H17X 7477  -0.224   6.783  14.009 -0.0449  0.0095  0.2295
   58DOPE  H17Y 7478  -0.096   6.877  13.937  2.3697  0.7790 -0.4365
   58DOPE  C318 7479  -0.041   6.677  13.977 -0.5701  0.9513  0.3269
   58DOPE  H18X 7480  -0.050   6.656  13.869 -0.7017 -2.8160  0.9297
   58DOPE  H18Y 7481   0.067   6.687  14.003 -0.7202 -0.9302  1.9135
   58DOPE  H18Z 7482  -0.078   6.591  14.037  2.2286 -0.3054  0.4188
   59DOPE     N 7483   7.155   1.003  12.916  0.1192 -0.1753  0.4819
   59DOPE   HN1 7484   7.069   1.061  12.904  0.5502  0.5165  0.6716
   59DOPE   HN2 7485   7.147   0.934  12.992  0.4041 -0.3125  0.3885
   59DOPE   HN3 7486   7.227   1.073  12.943 -0.4683  0.6028  0.1111
   59DOPE   C12 7487   7.198   0.941  12.785  0.1003  0.3282  0.0063
   59DOPE  H12A 7488   7.204   1.016  12.703  1.5711  0.7165  0.4369
   59DOPE  H12B 7489   7.121   0.867  12.756  0.5833  0.0418 -0.5705
   59DOPE   C11 7490   7.332   0.860  12.802  0.0211  0.4771  0.7431
   59DOPE  H11A 7491   7.414   0.935  12.801  1.0324 -0.5397 -2.3193
   59DOPE  H11B 7492   7.349   0.802  12.709  2.1143  1.7026  0.2998
   59DOPE     P 7493   7.473   0.702  12.941  0.6893 -0.1548 -0.0711
   59DOPE   O13 7494   7.583   0.787  12.891  0.4426  0.0379 -0.0261
   59DOPE   O14 7495   7.466   0.558  12.903  0.1604 -0.4793  0.0048
   59DOPE   O11 7496   7.482   0.716  13.098 -0.3398 -0.4054 -0.3022
   59DOPE   O12 7497   7.332   0.772  12.912  0.0527 -0.1528 -0.2478
   59DOPE    C1 7498   7.452   0.601  13.185 -0.7230 -0.6736  1.2142
   59DOPE    HA 7499   7.508   0.510  13.153  0.9239 -0.0173  2.1373
   59DOPE    HB 7500   7.346   0.566  13.183 -0.8634 -0.3147 -2.1030
   59DOPE    C2 7501   7.489   0.636  13.327  0.4141  0.5137  0.0448
   59DOPE    HS 7502   7.447   0.554  13.388 -0.2788  1.1073  0.3727
   59DOPE   O21 7503   7.435   0.763  13.365 -0.4040  0.3082  0.1236
   59DOPE   C21 7504   7.302   0.783  13.372 -0.0759  0.7162  0.9081
   59DOPE   O22 7505   7.217   0.699  13.344 -0.8646 -0.1731 -0.3386
   59DOPE   C22 7506   7.269   0.921  13.420 -0.8581 -0.5168  0.5479
   59DOPE   H2R 7507   7.174   0.941  13.365  0.1287  1.2221 -0.6415
   59DOPE   H2S 7508   7.331   1.006  13.384 -1.0224 -0.7417 -0.2917
   59DOPE    C3 7509   7.642   0.641  13.334  0.6300 -0.3197  0.1324
   59DOPE    HX 7510   7.693   0.704  13.258 -1.7114 -1.2827 -2.4165
   59DOPE    HY 7511   7.670   0.541  13.296 -1.2635 -0.5632 -0.7424
   59DOPE   O31 7512   7.693   0.655  13.464 -0.7072 -1.2282 -0.0311
   59DOPE   C31 7513   7.725   0.784  13.495 -0.1415  0.2377 -0.0641
   59DOPE   O32 7514   7.704   0.882  13.428 -0.8378  0.0209 -0.3751
   59DOPE   C32 7515   7.778   0.769  13.642 -0.2987 -0.3397  0.3654
   59DOPE   H2X 7516   7.864   0.699  13.634  0.3189  0.6017 -1.7031
   59DOPE   H2Y 7517   7.820   0.869  13.666  0.8301 -0.1856 -2.0080
   59DOPE   C23 7518   7.266   0.913  13.577 -0.4053  1.1952  0.2432
   59DOPE   H3R 7519   7.267   1.013  13.625 -0.0369  0.4328  1.8880
   59DOPE   H3S 7520   7.358   0.861  13.609 -1.0933 -0.6716 -0.6543
   59DOPE   C24 7521   7.153   0.817  13.629 -0.1999  0.3059  0.1623
   59DOPE   H4R 7522   7.187   0.714  13.608 -0.2349  0.6763 -1.9307
   59DOPE   H4S 7523   7.063   0.825  13.564 -1.2308  1.0225  1.6148
   59DOPE   C25 7524   7.114   0.839  13.779  0.3268 -0.0241 -0.1248
   59DOPE   H5R 7525   7.065   0.937  13.794 -0.9761 -0.8535  1.3628
   59DOPE   H5S 7526   7.189   0.833  13.860 -1.3385  2.3981  1.7221
   59DOPE   C26 7527   7.011   0.728  13.832  0.0129 -0.3038  0.0432
   59DOPE   H6R 7528   7.055   0.630  13.804  1.8654  0.3027  0.6819
   59DOPE   H6S 7529   6.913   0.738  13.780  0.8003  0.4600 -1.3507
   59DOPE   C27 7530   6.992   0.737  13.984 -0.3017  0.5346 -0.8008
   59DOPE   H7R 7531   6.965   0.841  14.013 -1.3837  0.3473 -1.0975
   59DOPE   H7S 7532   7.093   0.717  14.025  0.4133  1.8790 -1.8457
   59DOPE   C28 7533   6.889   0.642  14.047  0.4045  0.1306 -0.6973
   59DOPE   H8R 7534   6.888   0.651  14.158 -2.7668  0.8981 -0.6816
   59DOPE   H8S 7535   6.920   0.536  14.037  3.6070  0.9982 -0.9652
   59DOPE   C29 7536   6.751   0.684  14.002 -0.2495  0.1276  0.0995
   59DOPE   H9R 7537   6.713   0.780  14.041 -2.4368 -0.8868  0.6214
   59DOPE  C210 7538   6.683   0.604  13.919 -1.0272 -0.4135  0.4344
   59DOPE  H10R 7539   6.586   0.639  13.880 -0.2178 -0.4853 -1.7745
   59DOPE  C211 7540   6.731   0.468  13.859 -0.3828  0.2442 -0.1762
   59DOPE  H11R 7541   6.841   0.456  13.848 -0.5284 -1.4534 -0.0560
   59DOPE  H11S 7542   6.697   0.459  13.754  0.2377  2.2932 -0.5900
   59DOPE  C212 7543   6.673   0.348  13.931  0.1619  0.1589  0.2921
   59DOPE  H12R 7544   6.710   0.262  13.870 -0.0451  0.9906 -1.0367
   59DOPE  H12S 7545   6.562   0.342  13.941  0.2677 -0.1245  1.5090
   59DOPE  C213 7546   6.742   0.321  14.070 -0.3921  0.1032 -0.3208
   59DOPE  H13R 7547   6.727   0.409  14.137  1.0475 -0.7787  1.2516
   59DOPE  H13S 7548   6.853   0.314  14.065 -0.4887 -0.9365 -1.4962
   59DOPE  C214 7549   6.699   0.194  14.146 -0.4809 -0.4453  0.3136
   59DOPE  H14R 7550   6.686   0.102  14.085  0.1707 -2.1130  2.5826
   59DOPE  H14S 7551   6.596   0.218  14.179 -0.8410 -1.6291  0.0726
   59DOPE  C215 7552   6.787   0.164  14.269  0.1333 -1.0645  0.2910
   59DOPE  H15R 7553   6.770   0.240  14.348  1.3534 -1.1841  0.6909
   59DOPE  H15S 7554   6.895   0.166  14.244  0.3129 -0.2968  1.0981
   59DOPE  C216 7555   6.754   0.017  14.319  0.2438  0.0102  0.2150
   59DOPE  H16R 7556   6.810  -0.050  14.251  0.3684  0.6457 -0.3240
   59DOPE  H16S 7557   6.648  -0.009  14.302 -0.0194 -0.4852  2.3700
   59DOPE  C217 7558   6.802  -0.013  14.465 -0.1752 -0.2170  0.1334
   59DOPE  H17R 7559   6.794   0.084  14.520  2.0576 -0.4221  0.8983
   59DOPE  H17S 7560   6.912  -0.023  14.455 -0.1316 -0.3924  0.7644
   59DOPE  C218 7561   6.729  -0.132  14.533 -0.6459 -0.0503 -0.2810
   59DOPE  H18R 7562   6.627  -0.093  14.553 -0.1646  0.6796  0.8446
   59DOPE  H18S 7563   6.760  -0.150  14.638 -0.7376  0.0646 -0.2333
   59DOPE  H18T 7564   6.739  -0.224  14.471 -0.6509  0.7971 -1.5612
   59DOPE   C33 7565   7.678   0.727  13.757  0.0880 -0.4623  0.2399
   59DOPE   H3X 7566   7.648   0.625  13.723  1.6045 -0.6061 -0.7657
   59DOPE   H3Y 7567   7.582   0.783  13.744  0.5247  0.4672  0.8851
   59DOPE   C34 7568   7.728   0.710  13.894  0.4031  0.5583  0.4690
   59DOPE   H4X 7569   7.810   0.639  13.915  0.4474  0.5520  0.2733
   59DOPE   H4Y 7570   7.767   0.810  13.924 -1.4421  1.5644 -0.3148
   59DOPE   C35 7571   7.609   0.673  13.985 -0.0438 -0.5614  0.1259
   59DOPE   H5X 7572   7.592   0.565  13.968  1.7105 -0.9414  0.6179
   59DOPE   H5Y 7573   7.524   0.742  13.961  1.2590  0.5612 -1.4564
   59DOPE   C36 7574   7.642   0.693  14.133  0.4643  0.5838  0.0251
   59DOPE   H6X 7575   7.688   0.794  14.139 -1.3011  1.4165  0.2070
   59DOPE   H6Y 7576   7.716   0.615  14.162 -0.0191 -0.9849 -2.7032
   59DOPE   C37 7577   7.507   0.680  14.213  0.5711  0.0468  0.3364
   59DOPE   H7X 7578   7.430   0.752  14.177  0.0503 -1.4505 -1.7436
   59DOPE   H7Y 7579   7.474   0.578  14.185 -1.8403  1.1752 -1.2214
   59DOPE   C38 7580   7.522   0.673  14.367 -0.1955 -0.3279  0.0340
   59DOPE   H8X 7581   7.600   0.599  14.393  0.6479 -0.0718 -1.6211
   59DOPE   H8Y 7582   7.427   0.635  14.411  0.0070  0.0374  0.8157
   59DOPE   C39 7583   7.568   0.809  14.413  0.1827 -0.7811 -0.8601
   59DOPE   H9X 7584   7.675   0.828  14.401 -0.1575  0.0602 -3.0421
   59DOPE  C310 7585   7.507   0.896  14.501  0.5145  0.2225  0.2738
   59DOPE  H10X 7586   7.531   1.003  14.501 -1.5120  0.7184 -0.1272
   59DOPE  C311 7587   7.372   0.874  14.560  0.2071 -0.1745  1.3115
   59DOPE  H11X 7588   7.300   0.824  14.492 -0.8708  0.1692  2.1750
   59DOPE  H11Y 7589   7.392   0.804  14.645  3.2683  0.0985  0.9395
   59DOPE  C312 7590   7.314   1.003  14.618  0.5946  0.5465 -0.1102
   59DOPE  H12X 7591   7.375   1.038  14.705 -0.9477  0.3040  1.0980
   59DOPE  H12Y 7592   7.218   0.977  14.667  1.8570 -1.5702  1.3999
   59DOPE  C313 7593   7.288   1.118  14.523 -0.1133 -0.4239  0.3730
   59DOPE  H13X 7594   7.381   1.169  14.491 -0.6594  0.7929  0.6536
   59DOPE  H13Y 7595   7.249   1.070  14.431 -0.8580 -0.4117  0.6741
   59DOPE  C314 7596   7.191   1.224  14.564 -0.0419  0.3903  0.4502
   59DOPE  H14X 7597   7.224   1.262  14.663  1.3413  0.2445  0.0747
   59DOPE  H14Y 7598   7.086   1.192  14.576  0.1322 -0.0513  0.8268
   59DOPE  C315 7599   7.192   1.346  14.471 -0.1816 -0.3907 -0.8459
   59DOPE  H15X 7600   7.297   1.370  14.444 -0.9528  2.6397 -1.5111
   59DOPE  H15Y 7601   7.154   1.434  14.527  0.3125 -1.1131  0.6874
   59DOPE  C316 7602   7.110   1.326  14.343 -0.1444 -0.2382  0.1675
   59DOPE  H16X 7603   7.004   1.321  14.377  0.0452 -0.2297  0.7668
   59DOPE  H16Y 7604   7.129   1.233  14.285 -0.3188  1.4882 -2.8483
   59DOPE  C317 7605   7.106   1.444  14.250  0.1283 -0.4743  0.1181
   59DOPE  H17X 7606   7.061   1.407  14.155 -0.7471 -2.8758  1.3822
   59DOPE  H17Y 7607   7.041   1.526  14.289  1.4112 -1.2690  4.4768
   59DOPE  C318 7608   7.241   1.513  14.209  0.5593 -0.3523  0.3190
   59DOPE  H18X 7609   7.314   1.438  14.173  1.2418  1.4457 -2.2619
   59DOPE  H18Y 7610   7.207   1.567  14.118 -1.1830  0.0768  1.1861
   59DOPE  H18Z 7611   7.282   1.581  14.287 -0.0941 -1.4645  1.6841
   60DOPE     N 7612   7.921   0.558  13.025 -0.9639 -0.3718 -0.2085
   60DOPE   HN1 7613   7.919   0.593  13.123 -1.1852 -3.8573  1.1737
   60DOPE   HN2 7614   7.883   0.634  12.965  0.4572  0.6131  0.0728
   60DOPE   HN3 7615   7.874   0.465  13.019 -1.1952 -0.2848  0.1934
   60DOPE   C12 7616   8.070   0.545  12.987  0.0520 -0.3475  0.0548
   60DOPE  H12A 7617   8.108   0.647  13.007  0.9612 -1.2611  3.8359
   60DOPE  H12B 7618   8.081   0.519  12.879 -1.2129  0.3799 -0.2675
   60DOPE   C11 7619   8.140   0.441  13.077 -0.9205  0.6659  0.0393
   60DOPE  H11A 7620   8.135   0.485  13.179 -0.8753  1.5166 -0.3092
   60DOPE  H11B 7621   8.245   0.445  13.041 -0.9029  2.7511  0.1595
   60DOPE     P 7622   8.071   0.216  12.951 -0.3374  0.0362  0.5208
   60DOPE   O13 7623   8.082   0.287  12.819 -0.0602  0.4658 -0.1989
   60DOPE   O14 7624   7.947   0.134  12.961 -0.1869 -0.0878 -0.1655
   60DOPE   O11 7625   8.189   0.113  12.968  0.0815 -0.2239  0.1875
   60DOPE   O12 7626   8.080   0.311  13.071 -0.0792 -0.1768  0.2340
   60DOPE    C1 7627   8.183   0.039  13.095 -0.2060 -0.1495 -0.2345
   60DOPE    HA 7628   8.093  -0.025  13.084 -0.3672  0.2284 -1.2613
   60DOPE    HB 7629   8.177   0.113  13.178  2.5003  2.8557 -2.4561
   60DOPE    C2 7630   8.318  -0.040  13.118  0.2333 -0.2313 -0.3102
   60DOPE    HS 7631   8.330  -0.123  13.045 -4.0256 -1.3590 -0.0200
   60DOPE   O21 7632   8.319  -0.091  13.254 -0.1993  0.6190 -0.1666
   60DOPE   C21 7633   8.241  -0.197  13.270  0.8127 -0.3703  0.4192
   60DOPE   O22 7634   8.175  -0.249  13.186  0.1565  0.7833 -0.5591
   60DOPE   C22 7635   8.246  -0.236  13.419  0.0375 -0.0412  0.3829
   60DOPE   H2R 7636   8.305  -0.163  13.478  0.2928  0.1067 -0.0517
   60DOPE   H2S 7637   8.298  -0.335  13.424 -0.7714 -0.5234 -0.5492
   60DOPE    C3 7638   8.444   0.054  13.102 -0.1091 -0.3865  0.3767
   60DOPE    HX 7639   8.472   0.074  12.996  0.5595 -0.2718  0.5736
   60DOPE    HY 7640   8.531  -0.005  13.139 -0.2918 -1.5994 -1.0319
   60DOPE   O31 7641   8.415   0.182  13.164 -0.4192  0.8400 -0.0773
   60DOPE   C31 7642   8.487   0.194  13.282 -0.4076  0.6845  0.4202
   60DOPE   O32 7643   8.585   0.131  13.321 -0.6904 -0.0747 -0.1347
   60DOPE   C32 7644   8.425   0.309  13.361  0.2620  0.4094 -0.0638
   60DOPE   H2X 7645   8.500   0.388  13.382  0.1149  0.9553 -1.5122
   60DOPE   H2Y 7646   8.351   0.362  13.298  0.0653  0.4666  0.2120
   60DOPE   C23 7647   8.104  -0.258  13.484 -0.2411  0.2153  0.9505
   60DOPE   H3R 7648   8.111  -0.333  13.566  1.4541 -0.5363  0.1650
   60DOPE   H3S 7649   8.031  -0.305  13.415 -0.8293  0.7012  1.2316
   60DOPE   C24 7650   8.042  -0.130  13.538 -0.1653  0.1932  0.0085
   60DOPE   H4R 7651   8.106  -0.077  13.611 -0.7245 -0.8565  1.2888
   60DOPE   H4S 7652   7.951  -0.158  13.595  0.8450 -1.1134  1.0360
   60DOPE   C25 7653   7.995  -0.041  13.425 -0.9822  0.1514 -0.2666
   60DOPE   H5R 7654   7.923  -0.084  13.352 -0.0135  0.7583 -1.6423
   60DOPE   H5S 7655   8.077  -0.002  13.361  0.1506 -0.6352  0.6861
   60DOPE   C26 7656   7.929   0.094  13.466  0.4184 -0.1560 -0.0602
   60DOPE   H6R 7657   7.902   0.146  13.372 -1.5450 -1.8670 -0.5263
   60DOPE   H6S 7658   7.991   0.151  13.539  0.8033 -1.2916  0.5239
   60DOPE   C27 7659   7.798   0.063  13.551 -0.0756 -0.0044 -0.3144
   60DOPE   H7R 7660   7.833   0.034  13.652  1.5880  0.4826 -0.7280
   60DOPE   H7S 7661   7.744  -0.021  13.501 -1.0004  1.5736 -2.0904
   60DOPE   C28 7662   7.693   0.178  13.568  0.3394 -0.0539  0.3303
   60DOPE   H8R 7663   7.602   0.143  13.622 -1.8684  4.0892 -0.2850
   60DOPE   H8S 7664   7.659   0.197  13.464  0.7176 -1.4417 -0.0712
   60DOPE   C29 7665   7.749   0.301  13.620 -0.9162  0.3254 -0.0978
   60DOPE   H9R 7666   7.794   0.366  13.543 -0.7229 -0.7880 -0.9450
   60DOPE  C210 7667   7.737   0.352  13.745  0.1999 -0.6222  0.0079
   60DOPE  H10R 7668   7.801   0.440  13.761  1.4639 -0.8206 -3.0803
   60DOPE  C211 7669   7.653   0.300  13.854 -0.5079  0.2985  0.0238
   60DOPE  H11R 7670   7.609   0.203  13.824 -0.6106  0.4194 -0.2169
   60DOPE  H11S 7671   7.560   0.361  13.865 -0.6516 -0.0583  0.9302
   60DOPE  C212 7672   7.720   0.293  13.990  0.0658  0.6481  0.5388
   60DOPE  H12R 7673   7.787   0.380  14.006 -1.5387  1.8868  0.8543
   60DOPE  H12S 7674   7.792   0.209  13.987 -1.7335 -0.9366 -1.2333
   60DOPE  C213 7675   7.612   0.278  14.093 -0.0119  0.2155  0.2767
   60DOPE  H13R 7676   7.579   0.172  14.090 -0.4940  0.3496  0.7010
   60DOPE  H13S 7677   7.536   0.356  14.074 -0.1161  0.2907  0.9756
   60DOPE  C214 7678   7.657   0.294  14.235  0.2556 -0.3511 -0.2391
   60DOPE  H14R 7679   7.571   0.314  14.303  0.4624  1.8655 -0.5678
   60DOPE  H14S 7680   7.721   0.384  14.232  0.9265 -0.8388 -1.0166
   60DOPE  C215 7681   7.728   0.164  14.292 -0.6758 -0.0402 -0.5984
   60DOPE  H15R 7682   7.811   0.129  14.226  0.3997  0.4393  0.4648
   60DOPE  H15S 7683   7.652   0.083  14.292  1.2492 -1.9604  0.3823
   60DOPE  C216 7684   7.785   0.193  14.436 -0.1562  0.1605  0.0480
   60DOPE  H16R 7685   7.712   0.250  14.498 -0.5192 -2.1652  1.9142
   60DOPE  H16S 7686   7.874   0.259  14.430 -0.2333  1.0927  4.9785
   60DOPE  C217 7687   7.824   0.068  14.514  0.2808  0.9340  0.5276
   60DOPE  H17R 7688   7.892   0.001  14.458 -1.3423  0.8444 -1.4543
   60DOPE  H17S 7689   7.738  -0.002  14.529  0.4104  1.1317  2.4171
   60DOPE  C218 7690   7.880   0.097  14.650  0.3122  0.5247 -0.0645
   60DOPE  H18R 7691   7.911   0.001  14.697 -2.6144 -0.5971 -0.2456
   60DOPE  H18S 7692   7.807   0.146  14.717  0.9076  1.9385 -0.4103
   60DOPE  H18T 7693   7.959   0.174  14.636  0.3869  0.3684 -0.5066
   60DOPE   C33 7694   8.353   0.257  13.489 -0.4759 -0.3270 -0.6847
   60DOPE   H3X 7695   8.430   0.219  13.560 -1.0596 -0.2540 -0.0080
   60DOPE   H3Y 7696   8.293   0.167  13.464  0.1046 -0.9391  0.0944
   60DOPE   C34 7697   8.268   0.363  13.560  0.7363  0.2552 -0.1739
   60DOPE   H4X 7698   8.313   0.464  13.564 -1.2811  1.2768 -1.7493
   60DOPE   H4Y 7699   8.172   0.365  13.505  0.3642 -1.1525  0.3813
   60DOPE   C35 7700   8.218   0.319  13.697  0.0339 -0.5771  0.3989
   60DOPE   H5X 7701   8.293   0.302  13.777 -1.2208 -4.2374  0.9663
   60DOPE   H5Y 7702   8.162   0.223  13.695  0.2843 -0.7249  0.4110
   60DOPE   C36 7703   8.126   0.421  13.766 -0.7889 -0.7748  0.0032
   60DOPE   H6X 7704   8.090   0.380  13.862 -0.3478  0.4614  0.7309
   60DOPE   H6Y 7705   8.035   0.434  13.705 -0.0701  0.1349 -0.9195
   60DOPE   C37 7706   8.192   0.559  13.802  0.2899  0.3969  0.5865
   60DOPE   H7X 7707   8.288   0.543  13.855  0.2871 -2.0825 -0.0421
   60DOPE   H7Y 7708   8.220   0.612  13.708  1.6936  1.7112  1.6840
   60DOPE   C38 7709   8.096   0.654  13.885 -0.3777 -0.4607 -0.5890
   60DOPE   H8X 7710   8.079   0.606  13.984 -0.6319  0.3531 -0.2295
   60DOPE   H8Y 7711   7.999   0.648  13.833 -0.7311  0.3843 -0.0453
   60DOPE   C39 7712   8.140   0.797  13.897  0.0377 -0.0906 -0.5977
   60DOPE   H9X 7713   8.227   0.819  13.833  2.1558 -1.0640  1.7734
   60DOPE  C310 7714   8.102   0.893  13.979  0.2070  0.4237 -0.2025
   60DOPE  H10X 7715   8.140   0.995  13.966 -0.5587  0.6318 -0.9152
   60DOPE  C311 7716   8.003   0.878  14.088 -0.1185 -0.0853  0.4301
   60DOPE  H11X 7717   7.907   0.931  14.076 -0.3080 -0.4518  0.2965
   60DOPE  H11Y 7718   7.965   0.773  14.092 -0.2354 -0.2174 -2.3829
   60DOPE  C312 7719   8.065   0.902  14.227  0.2559 -0.4961 -0.0016
   60DOPE  H12X 7720   8.122   0.997  14.235  1.8992 -1.5362  1.2915
   60DOPE  H12Y 7721   8.142   0.822  14.236  1.3291  0.5741  0.6619
   60DOPE  C313 7722   7.965   0.876  14.338 -0.0815  0.5036  0.6445
   60DOPE  H13X 7723   7.955   0.957  14.414  1.4204  0.9388  0.4118
   60DOPE  H13Y 7724   7.869   0.841  14.295  0.4881 -0.3147  0.0175
   60DOPE  C314 7725   8.005   0.751  14.418  0.4533 -0.6038  0.3565
   60DOPE  H14X 7726   8.114   0.755  14.437  0.6572  0.5028 -0.8645
   60DOPE  H14Y 7727   7.991   0.668  14.345  1.2367  1.1020 -1.8489
   60DOPE  C315 7728   7.924   0.722  14.554 -0.9185  0.3519  0.1973
   60DOPE  H15X 7729   7.814   0.713  14.543 -0.7556 -3.4514  0.3591
   60DOPE  H15Y 7730   7.948   0.812  14.616  1.9200 -0.1812  0.0039
   60DOPE  C316 7731   7.970   0.593  14.619  0.0268  0.2420 -0.1552
   60DOPE  H16X 7732   8.077   0.604  14.645  0.3734 -2.0382 -0.3917
   60DOPE  H16Y 7733   7.959   0.508  14.548 -0.3964  0.7101 -0.6663
   60DOPE  C317 7734   7.901   0.558  14.756  0.2206 -0.2676  0.6312
   60DOPE  H17X 7735   7.957   0.485  14.818 -1.0078 -1.2614  0.5985
   60DOPE  H17Y 7736   7.895   0.650  14.817  1.2187 -1.1403  2.1078
   60DOPE  C318 7737   7.764   0.495  14.738  0.1210  0.7138 -0.2722
   60DOPE  H18X 7738   7.773   0.401  14.680  0.7035 -0.2495  1.3392
   60DOPE  H18Y 7739   7.716   0.465  14.834  2.6326 -1.1322  0.4960
   60DOPE  H18Z 7740   7.698   0.561  14.677 -1.7345  0.6674  1.5571
   6123SM     N 7741   2.601   5.192  16.480  0.4798  0.3530 -0.0771
   6123SM   C15 7742   2.495   5.292  16.489  0.5404 -0.0394 -0.4057
   6123SM  H15A 7743   2.444   5.301  16.394  0.1898 -2.2611 -0.4781
   6123SM  H15B 7744   2.536   5.389  16.513  1.6822 -0.1750 -1.6272
   6123SM  H15C 7745   2.424   5.272  16.567  2.6299  2.4075  2.3717
   6123SM   C14 7746   2.680   5.203  16.598  0.1531 -0.1211  0.2606
   6123SM  H14A 7747   2.617   5.190  16.685 -1.3908  1.2103 -0.6049
   6123SM  H14B 7748   2.744   5.289  16.597 -0.4979  0.4440  2.1823
   6123SM  H14C 7749   2.757   5.127  16.606  0.0231 -0.1802  1.0604
   6123SM   C13 7750   2.538   5.057  16.486  0.0955  0.9481  0.6679
   6123SM  H13A 7751   2.610   4.985  16.449 -0.7043 -0.6490  2.0613
   6123SM  H13B 7752   2.456   5.049  16.417  2.3817 -0.8374 -2.0793
   6123SM  H13C 7753   2.502   5.023  16.583  0.7435 -0.8441  0.3296
   6123SM   C12 7754   2.681   5.212  16.354  0.0920 -0.3468 -0.1208
   6123SM  H12A 7755   2.623   5.183  16.268 -0.0505 -1.8102  0.4425
   6123SM  H12B 7756   2.764   5.143  16.350 -0.6093 -1.2401  0.5684
   6123SM   C11 7757   2.729   5.356  16.327 -0.0316  0.9345 -0.1714
   6123SM  H11A 7758   2.782   5.338  16.231 -1.6258 -0.6083 -0.8316
   6123SM  H11B 7759   2.802   5.385  16.405  1.4905 -0.8201 -0.8814
   6123SM     P 7760   2.654   5.597  16.293 -0.0463 -0.0019  0.0480
   6123SM   O13 7761   2.527   5.666  16.253  0.7088  0.1137 -0.5769
   6123SM   O14 7762   2.726   5.641  16.406 -0.3111 -0.1149  0.5848
   6123SM   O11 7763   2.759   5.615  16.179  0.1559 -0.2133  0.0181
   6123SM   O12 7764   2.619   5.444  16.300  0.5402 -0.0601  0.2203
   6123SM   C1S 7765   2.730   5.577  16.047  1.1490 -0.0218  0.0295
   6123SM   H1S 7766   2.625   5.595  16.016  0.4374 -3.0520  0.4008
   6123SM   H1T 7767   2.740   5.467  16.040 -2.2259 -0.3492 -2.9062
   6123SM    NF 7768   2.769   5.614  15.806 -0.7305  0.5208  0.0496
   6123SM   HNF 7769   2.807   5.546  15.744 -3.3259 -0.7969 -0.2288
   6123SM   C2S 7770   2.822   5.636  15.936 -0.2468 -0.2552  0.6156
   6123SM   H2S 7771   2.829   5.746  15.946  2.0368 -0.0139 -2.1623
   6123SM   C3S 7772   2.970   5.595  15.963 -0.2575 -1.1845 -0.3747
   6123SM   H3S 7773   2.962   5.484  15.953 -1.1107 -1.0072 -1.9444
   6123SM    O3 7774   3.011   5.624  16.098 -0.5522 -0.5011 -0.2174
   6123SM   HO3 7775   2.927   5.630  16.143  0.9666 -1.2595  2.9995
   6123SM   C4S 7776   3.062   5.662  15.866 -0.8300 -0.6514  0.9163
   6123SM   H4S 7777   3.084   5.599  15.779 -0.5606  2.5912 -1.5436
   6123SM   C5S 7778   3.117   5.783  15.876 -0.8477 -0.1703  0.2326
   6123SM   H5S 7779   3.105   5.856  15.958  0.3987  0.3451 -0.0108
   6123SM   C6S 7780   3.210   5.845  15.776 -0.1882  0.4906 -0.4300
   6123SM   H6S 7781   3.204   5.955  15.768  0.2323  0.6475  1.0428
   6123SM   H6T 7782   3.192   5.800  15.676 -1.4246 -1.2035  0.4856
   6123SM   C7S 7783   3.361   5.816  15.815 -1.1948  0.5716 -0.0029
   6123SM   H7S 7784   3.398   5.711  15.825 -1.6719  0.2680 -1.2008
   6123SM   H7T 7785   3.386   5.875  15.905 -0.5934  1.0394 -0.4630
   6123SM   C8S 7786   3.458   5.868  15.703 -0.3253 -0.1680  0.2778
   6123SM   H8S 7787   3.557   5.883  15.751 -0.2919  2.3764 -0.3970
   6123SM   H8T 7788   3.414   5.964  15.668 -1.0610 -0.5037  0.2550
   6123SM   C9S 7789   3.469   5.787  15.577 -0.0018  0.9573 -0.3414
   6123SM   H9S 7790   3.367   5.781  15.534  0.2291  0.4634 -0.8297
   6123SM   H9T 7791   3.503   5.686  15.606  3.0403  2.2200  0.9741
   6123SM  C10S 7792   3.554   5.839  15.468  0.0408  0.0567 -0.0061
   6123SM  H10S 7793   3.664   5.837  15.482 -0.0018  0.9360  0.4912
   6123SM  H10T 7794   3.526   5.943  15.441 -0.9921 -0.2644 -0.2277
   6123SM  C11S 7795   3.533   5.747  15.346  0.2680 -0.0856  0.2528
   6123SM  H11S 7796   3.429   5.726  15.312  0.7229 -0.6200 -0.8269
   6123SM  H11T 7797   3.574   5.653  15.389 -1.0677 -0.4191  0.8528
   6123SM  C12S 7798   3.598   5.794  15.213  0.1359 -0.2392 -0.1912
   6123SM  H12S 7799   3.589   5.725  15.126  0.2181  0.2109 -0.5621
   6123SM  H12T 7800   3.706   5.797  15.237  0.0246 -1.3370  0.5487
   6123SM  C13S 7801   3.539   5.930  15.165 -0.0469  0.3332  0.6475
   6123SM  H13S 7802   3.516   6.001  15.248 -1.3682  0.3631  0.2823
   6123SM  H13T 7803   3.434   5.910  15.136 -0.0731  2.8080 -1.3390
   6123SM  C14S 7804   3.611   5.996  15.059  0.2080 -0.4090  0.1470
   6123SM  H14S 7805   3.714   6.030  15.083  0.8519 -2.3732  0.3316
   6123SM  H14T 7806   3.558   6.088  15.026  2.2206  0.2993 -1.3270
   6123SM  C15S 7807   3.627   5.914  14.927  0.1010  0.4809 -0.4579
   6123SM  H15S 7808   3.534   5.868  14.889  1.4274 -2.1782 -0.6939
   6123SM  H15T 7809   3.686   5.823  14.948  0.6347  0.9503  0.1287
   6123SM  C16S 7810   3.685   5.981  14.799  0.3682  0.4681 -0.3114
   6123SM  H16S 7811   3.606   6.046  14.756 -0.0594  1.0223  1.2357
   6123SM  H16T 7812   3.716   5.899  14.730  2.3676 -1.0322  2.2157
   6123SM  C17S 7813   3.799   6.078  14.825  0.0792 -0.2172 -0.5483
   6123SM  H17S 7814   3.877   6.022  14.881  0.6864  1.7069  0.6137
   6123SM  H17T 7815   3.744   6.160  14.875 -1.1742  0.4812 -2.8963
   6123SM  C18S 7816   3.855   6.132  14.686 -0.3381  0.4058 -0.1886
   6123SM  H18S 7817   3.769   6.183  14.637 -0.3879  2.3543  1.7905
   6123SM  H18T 7818   3.893   6.044  14.630 -1.2555  0.2893 -0.6595
   6123SM  H18U 7819   3.936   6.206  14.702 -0.6061  1.0897 -1.7930
   6123SM   C1F 7820   2.660   5.665  15.766  0.1820 -0.0322 -0.3471
   6123SM    OF 7821   2.621   5.775  15.816  0.2489  0.1295  0.6757
   6123SM   C2F 7822   2.594   5.592  15.657 -0.2256  0.2816 -0.1241
   6123SM   H2F 7823   2.658   5.514  15.612  1.2318  2.5828 -2.3587
   6123SM   H2G 7824   2.584   5.669  15.577 -0.6784  2.3840  1.8262
   6123SM   C3F 7825   2.458   5.544  15.703  0.6120  0.8805 -0.3202
   6123SM   H3F 7826   2.471   5.500  15.804  1.9539  1.9399  0.0045
   6123SM   H3G 7827   2.432   5.454  15.645 -1.1327  0.4382  1.0484
   6123SM   C4F 7828   2.340   5.639  15.699  0.5886  0.1990 -0.3785
   6123SM   H4F 7829   2.346   5.714  15.618  0.8758 -1.1392 -1.6410
   6123SM   H4G 7830   2.359   5.683  15.799 -0.8151 -0.5308  0.2414
   6123SM   C5F 7831   2.208   5.572  15.717 -0.1060  0.3733 -0.0340
   6123SM   H5F 7832   2.138   5.641  15.769  0.1990  2.3544 -2.1071
   6123SM   H5G 7833   2.214   5.480  15.780 -0.6143  1.5273  1.7559
   6123SM   C6F 7834   2.136   5.542  15.584  0.4670  0.4579  0.5774
   6123SM   H6F 7835   2.119   5.634  15.523 -2.0540 -0.5275 -0.3660
   6123SM   H6G 7836   2.034   5.512  15.615 -0.2384  3.0472  1.0608
   6123SM   C7F 7837   2.198   5.430  15.493 -0.0927 -0.0322 -0.5971
   6123SM   H7F 7838   2.248   5.347  15.547  2.4945  0.3050 -2.2724
   6123SM   H7G 7839   2.282   5.480  15.440 -0.4189  1.6970  0.4476
   6123SM   C8F 7840   2.094   5.392  15.390  0.0758 -0.1853 -0.7316
   6123SM   H8F 7841   2.069   5.474  15.319  1.4674 -2.4149 -4.0638
   6123SM   H8G 7842   2.004   5.365  15.449  0.0240  2.0398  0.3131
   6123SM   C9F 7843   2.134   5.273  15.297  0.3895 -0.8500 -0.3017
   6123SM   H9F 7844   2.215   5.307  15.229  1.9855 -1.5486  1.1729
   6123SM   H9G 7845   2.048   5.251  15.229 -0.8891 -1.3175  1.3959
   6123SM  C10F 7846   2.167   5.138  15.369 -0.4995  0.1819 -0.1438
   6123SM  H10F 7847   2.092   5.105  15.444  0.8805 -3.1597 -0.0280
   6123SM  H10G 7848   2.257   5.152  15.432  0.4098 -1.2644 -1.0460
   6123SM  C11F 7849   2.206   5.032  15.264 -0.4036  0.0023 -0.0511
   6123SM  H11F 7850   2.300   5.061  15.212  1.5410 -1.4105  2.4420
   6123SM  H11G 7851   2.118   5.008  15.200 -0.8821 -1.6610  1.1623
   6123SM  C12F 7852   2.238   4.907  15.338  0.4493  0.6908  0.8896
   6123SM  H12F 7853   2.156   4.882  15.408  1.0941 -2.3632  0.6802
   6123SM  H12G 7854   2.325   4.916  15.406 -0.6401 -2.7139  2.9783
   6123SM  C13F 7855   2.259   4.788  15.241  0.5542 -0.2591  0.0331
   6123SM  H13F 7856   2.355   4.807  15.188  0.7615  2.1796  1.1541
   6123SM  H13G 7857   2.181   4.804  15.163  1.7515 -1.3072 -1.4402
   6123SM  C14F 7858   2.253   4.645  15.293 -0.1255 -0.0344  1.1795
   6123SM  H14F 7859   2.158   4.638  15.350 -0.8475 -0.5294 -0.0574
   6123SM  H14G 7860   2.342   4.632  15.358  0.9043 -0.4946 -0.2833
   6123SM  C15F 7861   2.252   4.539  15.175 -0.5863 -0.0231  0.3009
   6123SM  H15F 7862   2.347   4.556  15.120 -1.4195  1.6787 -0.7059
   6123SM  H15G 7863   2.168   4.551  15.103  0.1332 -1.3270 -0.8011
   6123SM  C16F 7864   2.253   4.403  15.247 -0.0753  0.3221 -0.2052
   6123SM  H16F 7865   2.254   4.325  15.168  0.9786 -1.9146  1.8895
   6123SM  H16G 7866   2.157   4.397  15.302 -0.4324  0.3137 -0.8158
   6123SM  C17F 7867   2.375   4.382  15.345  0.3734  0.2059 -0.3197
   6123SM  H17F 7868   2.366   4.434  15.443 -1.6509 -1.5791  0.5173
   6123SM  H17G 7869   2.467   4.414  15.291  0.2912 -1.2118 -1.3608
   6123SM  C18F 7870   2.371   4.239  15.392  0.0133  0.3564 -0.3107
   6123SM  H18F 7871   2.373   4.165  15.309 -0.1777  0.3746 -0.3319
   6123SM  H18G 7872   2.270   4.223  15.435  0.4603 -0.0015  0.6469
   6123SM  C19F 7873   2.473   4.213  15.497  0.0927 -0.4014  0.0545
   6123SM  H19F 7874   2.455   4.283  15.581  0.1351  1.0735 -1.1044
   6123SM  H19G 7875   2.565   4.259  15.453 -1.0096  1.5940 -0.2627
   6123SM  C20F 7876   2.496   4.073  15.550 -0.1011 -0.2172 -0.1041
   6123SM  H20F 7877   2.504   3.996  15.470 -0.7412 -0.4557  0.0539
   6123SM  H20G 7878   2.406   4.043  15.607 -0.3591 -2.0112 -1.3683
   6123SM  C21F 7879   2.620   4.072  15.643 -0.5666 -0.2922  0.0178
   6123SM  H21F 7880   2.616   4.151  15.721  2.7780 -0.9443  0.9908
   6123SM  H21G 7881   2.699   4.103  15.570 -0.4248 -2.8687 -1.0206
   6123SM  C22F 7882   2.653   3.932  15.699  0.1706  0.0263 -0.0329
   6123SM  H22F 7883   2.719   3.934  15.789  2.6298 -2.8625 -1.6065
   6123SM  H22G 7884   2.714   3.875  15.627  0.1561  2.1138 -1.8216
   6123SM  C23F 7885   2.536   3.851  15.738  0.1165 -0.0574 -0.3276
   6123SM  H23F 7886   2.575   3.761  15.791  1.0304  1.0791  1.0059
   6123SM  H23G 7887   2.470   3.825  15.652 -1.9782  0.6684  0.9733
   6123SM  H23H 7888   2.472   3.908  15.809  1.0046 -0.7028  1.0166
   6223SM     N 7889   3.510   3.756  16.037 -0.1992  0.3078  0.3525
   6223SM   C15 7890   3.607   3.694  15.943  0.2330  0.1290  0.0636
   6223SM  H15A 7891   3.689   3.643  15.991 -0.1859 -0.1382  0.4951
   6223SM  H15B 7892   3.653   3.769  15.880  0.2759  1.4559  1.5901
   6223SM  H15C 7893   3.562   3.618  15.882  0.6760  0.4388 -0.6727
   6223SM   C14 7894   3.445   3.638  16.112  0.3004  0.3154 -0.0644
   6223SM  H14A 7895   3.359   3.671  16.168  2.3619  2.6723  1.9496
   6223SM  H14B 7896   3.529   3.610  16.173  0.6412  1.2402 -0.0912
   6223SM  H14C 7897   3.418   3.558  16.045  0.3153 -1.6452  2.1583
   6223SM   C13 7898   3.584   3.836  16.137 -0.5771 -0.4750  0.5079
   6223SM  H13A 7899   3.514   3.865  16.214 -2.1581  1.1982 -1.4365
   6223SM  H13B 7900   3.623   3.917  16.078 -1.7053  0.6205  1.2418
   6223SM  H13C 7901   3.670   3.786  16.179  1.2004  1.3472 -0.7959
   6223SM   C12 7902   3.393   3.822  15.961 -0.8361  0.4565  1.3023
   6223SM  H12A 7903   3.312   3.839  16.031 -0.0059 -2.0178  3.0056
   6223SM  H12B 7904   3.375   3.771  15.868 -0.4226  0.4148  1.2412
   6223SM   C11 7905   3.428   3.959  15.893  0.0947 -0.6289 -0.4165
   6223SM  H11A 7906   3.340   3.977  15.827  1.5164 -1.1830 -2.5853
   6223SM  H11B 7907   3.505   3.941  15.815 -1.3255  0.6315 -2.2038
   6223SM     P 7908   3.371   4.129  16.088 -0.1409  0.4530 -0.2500
   6223SM   O13 7909   3.291   4.025  16.153  0.9724 -0.0524  0.0230
   6223SM   O14 7910   3.444   4.236  16.171 -0.0006  0.0580  0.1159
   6223SM   O11 7911   3.276   4.204  15.989 -0.1124  0.2789 -0.0269
   6223SM   O12 7912   3.467   4.059  15.986 -0.3553 -0.2561 -0.1553
   6223SM   C1S 7913   3.316   4.338  15.941  0.0357  0.6950 -0.3078
   6223SM   H1S 7914   3.385   4.385  16.014 -0.3566 -1.4219  1.5463
   6223SM   H1T 7915   3.225   4.401  15.937 -1.0225 -0.6263  1.2066
   6223SM    NF 7916   3.447   4.452  15.769  0.3038 -0.2705 -0.0394
   6223SM   HNF 7917   3.405   4.499  15.691  0.7282  1.7905  0.9154
   6223SM   C2S 7918   3.388   4.327  15.806  0.3635 -0.7476  0.0505
   6223SM   H2S 7919   3.472   4.255  15.814 -0.9516 -2.2329  1.0792
   6223SM   C3S 7920   3.296   4.272  15.696  0.0393 -0.0477  1.2135
   6223SM   H3S 7921   3.227   4.358  15.683  0.2728 -0.1066 -0.5496
   6223SM    O3 7922   3.205   4.160  15.735 -0.4571 -0.2979 -0.1441
   6223SM   HO3 7923   3.224   4.154  15.829 -0.2652  1.1214 -0.0706
   6223SM   C4S 7924   3.372   4.242  15.569 -0.1148 -0.0703  0.0643
   6223SM   H4S 7925   3.403   4.331  15.513 -0.1258 -0.7709 -1.0832
   6223SM   C5S 7926   3.413   4.120  15.530 -0.4984  0.3737 -0.6570
   6223SM   H5S 7927   3.386   4.033  15.592 -0.9665  0.7764 -0.2884
   6223SM   C6S 7928   3.509   4.107  15.418  0.4135  0.2260 -0.1312
   6223SM   H6S 7929   3.548   4.205  15.383 -0.6852  1.1085  1.0421
   6223SM   H6T 7930   3.449   4.074  15.330  1.2201  1.8759 -1.3479
   6223SM   C7S 7931   3.617   4.005  15.450  0.1451 -0.5022  0.7664
   6223SM   H7S 7932   3.562   3.912  15.476 -1.3070  0.0834 -0.0734
   6223SM   H7T 7933   3.677   4.040  15.537 -1.1314  0.0685  1.4433
   6223SM   C8S 7934   3.693   3.987  15.318  0.8757 -0.2919 -0.8049
   6223SM   H8S 7935   3.746   4.080  15.289  1.6248 -0.2572  0.5659
   6223SM   H8T 7936   3.620   3.956  15.240  0.9557  1.8588 -1.8090
   6223SM   C9S 7937   3.792   3.871  15.306 -0.3252  1.4826 -0.1773
   6223SM   H9S 7938   3.816   3.865  15.198 -0.8547  3.9174 -0.4909
   6223SM   H9T 7939   3.734   3.780  15.333  0.7402  0.1108 -2.2911
   6223SM  C10S 7940   3.919   3.884  15.387  0.9991 -0.7545 -0.2566
   6223SM  H10S 7941   3.884   3.886  15.492 -0.4010  0.2376 -0.7073
   6223SM  H10T 7942   3.972   3.981  15.373 -0.7652  0.4488  1.0310
   6223SM  C11S 7943   4.013   3.765  15.353  0.3716 -0.1030 -0.0677
   6223SM  H11S 7944   4.110   3.773  15.406  0.1196  1.2463  0.2101
   6223SM  H11T 7945   4.038   3.769  15.245 -0.1552 -2.0422 -0.2972
   6223SM  C12S 7946   3.942   3.637  15.390  0.3063  0.3183  0.5338
   6223SM  H12S 7947   3.895   3.591  15.300 -0.2154  0.4036  0.7582
   6223SM  H12T 7948   3.868   3.645  15.472  1.7840 -1.5116  2.1322
   6223SM  C13S 7949   4.045   3.525  15.437 -0.0524  0.2651  0.1856
   6223SM  H13S 7950   4.091   3.565  15.530 -0.6165  0.8412  0.2198
   6223SM  H13T 7951   4.129   3.524  15.364  1.3746 -0.1057  1.7519
   6223SM  C14S 7952   3.982   3.387  15.471 -0.2366  0.4659  0.2905
   6223SM  H14S 7953   3.921   3.353  15.385  0.1047 -2.3644  1.0726
   6223SM  H14T 7954   3.916   3.400  15.559 -0.1493  1.0450  0.2722
   6223SM  C15S 7955   4.082   3.276  15.494 -0.1551  0.8989 -0.1070
   6223SM  H15S 7956   4.013   3.189  15.500 -1.9676  2.2862  0.3174
   6223SM  H15T 7957   4.128   3.283  15.595  1.5781  2.4779 -0.9523
   6223SM  C16S 7958   4.191   3.253  15.390  0.1868  0.9453  0.2157
   6223SM  H16S 7959   4.272   3.328  15.402 -0.8442  2.0238  0.6848
   6223SM  H16T 7960   4.152   3.260  15.286 -1.8742 -1.0967  0.7691
   6223SM  C17S 7961   4.254   3.110  15.398  0.1793  0.0724 -0.1478
   6223SM  H17S 7962   4.327   3.092  15.316 -0.8601 -2.5536 -0.6024
   6223SM  H17T 7963   4.170   3.039  15.379 -0.4020  0.5890  0.4133
   6223SM  C18S 7964   4.332   3.080  15.524 -0.2625  0.8032  0.1958
   6223SM  H18S 7965   4.362   2.974  15.513 -0.8008  0.5698  0.9168
   6223SM  H18T 7966   4.274   3.093  15.617 -2.7379 -0.3600 -1.0889
   6223SM  H18U 7967   4.424   3.143  15.529 -1.1207  2.3155 -1.7039
   6223SM   C1F 7968   3.537   4.519  15.836  0.2400  0.4157 -0.1688
   6223SM    OF 7969   3.586   4.468  15.935  0.2136  0.6480  0.4053
   6223SM   C2F 7970   3.578   4.656  15.789 -0.2435 -0.4078 -0.0786
   6223SM   H2F 7971   3.498   4.701  15.728 -0.5248  1.5309  1.6216
   6223SM   H2G 7972   3.659   4.645  15.714 -0.1877  1.2933 -0.3013
   6223SM   C3F 7973   3.626   4.745  15.908 -0.0275 -0.3665  0.1208
   6223SM   H3F 7974   3.692   4.694  15.981 -0.5308 -0.7720  0.2979
   6223SM   H3G 7975   3.532   4.771  15.962 -1.6087 -0.0131 -2.5802
   6223SM   C4F 7976   3.710   4.866  15.876 -0.3003 -0.1063  0.5234
   6223SM   H4F 7977   3.656   4.946  15.822  1.5438  0.8959  0.0694
   6223SM   H4G 7978   3.789   4.837  15.803 -0.9216 -2.8396  0.8151
   6223SM   C5F 7979   3.766   4.936  15.999 -0.0205  1.1728  0.4941
   6223SM   H5F 7980   3.815   4.859  16.062 -2.1185 -0.4016  0.3220
   6223SM   H5G 7981   3.680   4.974  16.058  0.8516  0.6373  2.1820
   6223SM   C6F 7982   3.859   5.048  15.954  0.0795 -0.4810  0.0302
   6223SM   H6F 7983   3.934   5.030  15.875  2.2001 -0.7515  2.0129
   6223SM   H6G 7984   3.915   5.060  16.049  0.0289  3.6086 -0.2972
   6223SM   C7F 7985   3.794   5.182  15.928  1.0664 -0.4534 -0.2752
   6223SM   H7F 7986   3.736   5.205  16.021  0.3253 -2.1832 -0.2839
   6223SM   H7G 7987   3.735   5.191  15.834  0.3822  3.2755  0.3153
   6223SM   C8F 7988   3.896   5.298  15.920 -0.0622 -0.6300  0.6331
   6223SM   H8F 7989   3.949   5.264  15.828 -0.7604 -0.8981  0.3174
   6223SM   H8G 7990   3.972   5.295  16.001  3.3589 -0.4633 -2.3237
   6223SM   C9F 7991   3.825   5.437  15.892 -0.3135  0.2775 -1.0720
   6223SM   H9F 7992   3.784   5.475  15.987  0.2025  1.8419 -1.4432
   6223SM   H9G 7993   3.739   5.420  15.823 -0.2623 -1.4303 -0.7461
   6223SM  C10F 7994   3.916   5.543  15.839  0.3916  0.3483 -0.7685
   6223SM  H10F 7995   4.013   5.543  15.894  0.5105  3.6107 -0.8244
   6223SM  H10G 7996   3.866   5.641  15.850 -1.3592 -0.5056 -0.7259
   6223SM  C11F 7997   3.948   5.529  15.695  0.0819  0.2201 -0.2750
   6223SM  H11F 7998   3.858   5.537  15.631 -1.0185  0.6002  1.2711
   6223SM  H11G 7999   3.983   5.427  15.668 -0.8639  0.0444 -0.8929
   6223SM  C12F 8000   4.051   5.631  15.642 -0.2451 -0.0664  0.3398
   6223SM  H12F 8001   4.157   5.600  15.650 -0.2060 -0.7190 -1.8006
   6223SM  H12G 8002   4.034   5.731  15.688  0.9197  0.8534 -1.1367
   6223SM  C13F 8003   4.035   5.662  15.487  0.0643  0.3911  0.8168
   6223SM  H13F 8004   3.933   5.698  15.462  1.1973  2.5219 -1.0841
   6223SM  H13G 8005   4.048   5.565  15.433 -0.6179 -0.1404  1.5873
   6223SM  C14F 8006   4.129   5.779  15.437  0.4600 -0.8628 -0.0980
   6223SM  H14F 8007   4.238   5.761  15.452  1.2700  1.3663 -2.4587
   6223SM  H14G 8008   4.095   5.862  15.502  0.8449 -0.8725  0.1178
   6223SM  C15F 8009   4.101   5.828  15.297 -0.0245 -0.0152 -0.1335
   6223SM  H15F 8010   4.168   5.915  15.279 -0.0276 -0.2183 -1.1838
   6223SM  H15G 8011   3.997   5.867  15.295  0.5874  1.7925  0.7269
   6223SM  C16F 8012   4.116   5.724  15.183  0.1256  0.2619 -0.4149
   6223SM  H16F 8013   4.201   5.660  15.218 -0.6852 -0.0925  0.9933
   6223SM  H16G 8014   4.151   5.769  15.087 -2.8624 -0.2409 -1.8417
   6223SM  C17F 8015   3.984   5.643  15.160  0.6461  0.4893 -0.1645
   6223SM  H17F 8016   3.894   5.700  15.128  0.3153  0.0560 -0.0050
   6223SM  H17G 8017   3.945   5.590  15.249 -2.4712  1.5637 -0.7803
   6223SM  C18F 8018   4.014   5.537  15.049 -0.8497  0.3773  0.1268
   6223SM  H18F 8019   4.092   5.466  15.084  0.5637  1.7062 -0.2783
   6223SM  H18G 8020   4.058   5.593  14.965  2.0304 -2.4769 -0.4653
   6223SM  C19F 8021   3.887   5.461  15.002  0.8668  0.0302 -0.3919
   6223SM  H19F 8022   3.810   5.539  14.984  0.7915  0.5137  1.7222
   6223SM  H19G 8023   3.851   5.391  15.079  3.9818  0.7183  1.8951
   6223SM  C20F 8024   3.906   5.391  14.861  0.1174  0.0248 -0.1921
   6223SM  H20F 8025   3.912   5.472  14.785 -1.6898 -0.2186 -0.6341
   6223SM  H20G 8026   3.826   5.320  14.830 -0.6383  1.0194 -0.5787
   6223SM  C21F 8027   4.034   5.306  14.843 -0.1978 -0.3339 -0.5407
   6223SM  H21F 8028   4.036   5.225  14.919  2.5357 -0.6890 -0.8770
   6223SM  H21G 8029   4.128   5.362  14.863  0.6904 -1.7709 -0.4945
   6223SM  C22F 8030   4.045   5.259  14.702 -0.0924 -1.0411  0.2532
   6223SM  H22F 8031   4.035   5.342  14.629  1.1243 -1.2327 -0.1639
   6223SM  H22G 8032   3.957   5.194  14.686 -1.2691  0.7915 -1.0802
   6223SM  C23F 8033   4.173   5.185  14.682 -0.4232 -0.0394  0.1625
   6223SM  H23F 8034   4.178   5.101  14.756  1.0634 -0.5626 -0.5064
   6223SM  H23G 8035   4.258   5.251  14.706 -1.2626  0.7416  1.1271
   6223SM  H23H 8036   4.177   5.152  14.576 -0.5214 -1.3667  0.5470
   6323SM     N 8037   5.223   5.577  16.492 -0.7458 -0.1794 -0.2808
   6323SM   C15 8038   5.223   5.710  16.559 -0.5241 -0.4480  0.5448
   6323SM  H15A 8039   5.122   5.744  16.577 -0.4486 -0.2556  0.6158
   6323SM  H15B 8040   5.266   5.771  16.480 -2.7768 -0.5858 -0.8677
   6323SM  H15C 8041   5.275   5.713  16.654 -0.5817  0.4557  0.5632
   6323SM   C14 8042   5.365   5.562  16.445 -0.4415  0.2442  0.7770
   6323SM  H14A 8043   5.438   5.592  16.518  1.1928  0.0819 -0.7423
   6323SM  H14B 8044   5.372   5.636  16.367  0.6921  0.0231  0.6510
   6323SM  H14C 8045   5.389   5.470  16.393 -0.3513  1.0797 -0.6988
   6323SM   C13 8046   5.188   5.469  16.591  0.1114 -0.3582 -0.5429
   6323SM  H13A 8047   5.087   5.487  16.626 -0.0842 -2.4791  0.0783
   6323SM  H13B 8048   5.259   5.475  16.672  0.8020  1.0265 -1.2217
   6323SM  H13C 8049   5.191   5.368  16.553  0.5374  0.0459 -1.6068
   6323SM   C12 8050   5.128   5.567  16.373  0.0631  0.2822  0.0005
   6323SM  H12A 8051   5.031   5.582  16.417 -0.3294  1.1644 -1.1139
   6323SM  H12B 8052   5.130   5.467  16.334  0.0581 -0.1849  1.1792
   6323SM   C11 8053   5.149   5.668  16.253 -0.4134  0.3307 -0.9445
   6323SM  H11A 8054   5.144   5.774  16.287  2.8889  0.6879 -1.2198
   6323SM  H11B 8055   5.064   5.652  16.184 -0.4252 -0.7522 -0.6938
   6323SM     P 8056   5.317   5.726  16.060  0.2036 -0.0730 -0.3041
   6323SM   O13 8057   5.329   5.868  16.094  0.2782  0.0243  0.2289
   6323SM   O14 8058   5.439   5.675  16.003 -0.1714 -0.3164 -0.1894
   6323SM   O11 8059   5.191   5.707  15.964  1.0263  0.4304 -0.3792
   6323SM   O12 8060   5.273   5.640  16.185 -0.3248 -0.1286  0.3317
   6323SM   C1S 8061   5.179   5.738  15.828  0.1031  0.2034 -0.0134
   6323SM   H1S 8062   5.280   5.737  15.783  0.5211  1.6327  0.8102
   6323SM   H1T 8063   5.150   5.845  15.815 -0.1496  0.4419  2.0710
   6323SM    NF 8064   5.118   5.664  15.602  0.0313 -0.5509  0.0789
   6323SM   HNF 8065   5.075   5.742  15.555  0.7590 -0.5558 -0.6050
   6323SM   C2S 8066   5.078   5.653  15.748 -0.0933  0.1808 -0.0463
   6323SM   H2S 8067   5.080   5.548  15.784 -0.3231 -0.0886 -0.7938
   6323SM   C3S 8068   4.942   5.721  15.783  0.3704  0.4116 -0.0229
   6323SM   H3S 8069   4.953   5.818  15.729  1.5698 -0.5039 -1.4805
   6323SM    O3 8070   4.924   5.753  15.924  0.7277  0.5254 -0.3780
   6323SM   HO3 8071   5.001   5.709  15.961  1.2726  1.5295 -0.2753
   6323SM   C4S 8072   4.822   5.649  15.733 -0.1303  0.4302  0.4104
   6323SM   H4S 8073   4.791   5.699  15.640  0.5616  2.7625  1.3699
   6323SM   C5S 8074   4.752   5.543  15.780 -0.8472 -0.1872 -0.0788
   6323SM   H5S 8075   4.768   5.504  15.881  0.2871 -1.0507 -0.5590
   6323SM   C6S 8076   4.642   5.472  15.708  0.1207  0.4293  0.5478
   6323SM   H6S 8077   4.554   5.488  15.773  0.7853 -2.0648  2.2043
   6323SM   H6T 8078   4.653   5.362  15.707 -1.8566  0.1738 -1.7404
   6323SM   C7S 8079   4.606   5.511  15.560  0.7478  0.3754 -0.4870
   6323SM   H7S 8080   4.694   5.497  15.495  1.8518  1.1522  0.7875
   6323SM   H7T 8081   4.579   5.619  15.554 -2.3241 -0.2607 -0.0232
   6323SM   C8S 8082   4.488   5.423  15.522  0.3907 -0.3839 -0.0391
   6323SM   H8S 8083   4.407   5.426  15.598 -1.3358 -1.7392 -1.7022
   6323SM   H8T 8084   4.497   5.312  15.510 -0.8205 -0.4125 -0.9763
   6323SM   C9S 8085   4.420   5.473  15.390 -0.6273  0.0614 -0.2169
   6323SM   H9S 8086   4.492   5.481  15.306 -1.6908  0.4306 -1.1272
   6323SM   H9T 8087   4.392   5.580  15.399 -2.3116 -0.4727  1.8003
   6323SM  C10S 8088   4.291   5.395  15.352  0.0182 -0.5752 -0.1819
   6323SM  H10S 8089   4.251   5.453  15.266 -0.0417  2.7902  1.9004
   6323SM  H10T 8090   4.215   5.406  15.433  1.1684  1.3257  0.7297
   6323SM  C11S 8091   4.326   5.249  15.293 -0.2539  0.5383 -0.2948
   6323SM  H11S 8092   4.371   5.184  15.372  2.2120  0.6557 -1.4906
   6323SM  H11T 8093   4.410   5.278  15.226  0.4068  0.0922  0.3269
   6323SM  C12S 8094   4.213   5.194  15.200 -0.1737  0.4689  0.5069
   6323SM  H12S 8095   4.215   5.266  15.115 -0.1761  1.1252  1.0560
   6323SM  H12T 8096   4.111   5.193  15.243 -0.9252  1.6863 -1.1784
   6323SM  C13S 8097   4.243   5.055  15.136 -0.3724 -0.0939  0.6082
   6323SM  H13S 8098   4.302   4.995  15.209  1.2155 -0.8780 -1.2210
   6323SM  H13T 8099   4.303   5.077  15.045 -1.4682  0.0402 -0.1006
   6323SM  C14S 8100   4.115   4.985  15.084 -0.2975  0.0842 -1.0445
   6323SM  H14S 8101   4.057   5.067  15.038 -0.0298  1.0405  0.2441
   6323SM  H14T 8102   4.053   4.932  15.159 -0.8215  1.3742 -0.5327
   6323SM  C15S 8103   4.153   4.879  14.983  0.3157  0.1146  0.4474
   6323SM  H15S 8104   4.225   4.803  15.022 -1.0131  0.8183  4.8582
   6323SM  H15T 8105   4.204   4.917  14.892  0.4570 -2.2089 -0.5203
   6323SM  C16S 8106   4.033   4.796  14.936  0.1045  0.4813 -0.3513
   6323SM  H16S 8107   3.960   4.869  14.895  1.2663  0.8988 -1.7336
   6323SM  H16T 8108   3.986   4.742  15.021 -0.4072 -1.0458 -1.5569
   6323SM  C17S 8109   4.070   4.699  14.828  0.0185 -0.0783 -0.0818
   6323SM  H17S 8110   4.132   4.749  14.752 -0.1499 -0.0587 -0.2072
   6323SM  H17T 8111   3.977   4.673  14.772 -0.1243  1.3950 -0.5873
   6323SM  C18S 8112   4.144   4.577  14.880  0.3150 -0.4607  0.2900
   6323SM  H18S 8113   4.075   4.517  14.944  2.2373 -0.5285  2.3951
   6323SM  H18T 8114   4.241   4.608  14.923  1.1033  0.4768 -2.0207
   6323SM  H18U 8115   4.162   4.506  14.796 -3.1269  0.1704 -1.1750
   6323SM   C1F 8116   5.209   5.581  15.555 -0.5309 -0.5463 -0.0914
   6323SM    OF 8117   5.258   5.497  15.626 -0.2362  0.2642  0.0621
   6323SM   C2F 8118   5.243   5.604  15.408  0.0952  0.6774 -0.5789
   6323SM   H2F 8119   5.353   5.606  15.398  0.2581 -1.0263  0.5252
   6323SM   H2G 8120   5.211   5.706  15.375  1.5657  1.7059  0.9732
   6323SM   C3F 8121   5.175   5.496  15.320 -0.8553 -1.1048  0.8048
   6323SM   H3F 8122   5.194   5.391  15.352  1.3363 -0.8834  0.3371
   6323SM   H3G 8123   5.213   5.518  15.218 -0.6803 -1.4292  0.7993
   6323SM   C4F 8124   5.027   5.507  15.325 -0.2742 -0.6375 -0.1452
   6323SM   H4F 8125   5.000   5.610  15.294  3.3037  0.7550  0.8682
   6323SM   H4G 8126   4.979   5.483  15.422  0.5115  1.5917  0.8536
   6323SM   C5F 8127   4.974   5.403  15.221  0.4568  0.0536 -0.2526
   6323SM   H5F 8128   5.030   5.311  15.250  1.6001  1.0623  0.8382
   6323SM   H5G 8129   5.004   5.429  15.117 -3.4469  0.5502 -1.4375
   6323SM   C6F 8130   4.827   5.371  15.234  0.6598 -0.7717  0.4652
   6323SM   H6F 8131   4.768   5.463  15.217  0.5805 -1.1348 -1.4021
   6323SM   H6G 8132   4.807   5.336  15.338  0.2969 -0.2408  0.5748
   6323SM   C7F 8133   4.781   5.258  15.137 -0.5677 -0.2274  0.4977
   6323SM   H7F 8134   4.673   5.241  15.156 -0.6511 -0.6421 -0.3052
   6323SM   H7G 8135   4.842   5.167  15.156  1.5909  0.7063 -1.3331
   6323SM   C8F 8136   4.790   5.300  14.987  0.3188  1.0830 -0.3506
   6323SM   H8F 8137   4.897   5.284  14.961 -0.1520 -0.4392 -1.5159
   6323SM   H8G 8138   4.764   5.406  14.969 -0.4110  0.6508 -2.0968
   6323SM   C9F 8139   4.700   5.215  14.891 -0.2935 -0.6411 -0.0644
   6323SM   H9F 8140   4.726   5.234  14.785 -0.8838 -1.9808 -0.4716
   6323SM   H9G 8141   4.591   5.235  14.904 -0.0004 -0.0690  1.7810
   6323SM  C10F 8142   4.705   5.070  14.924  0.5988 -0.2993 -0.0343
   6323SM  H10F 8143   4.620   5.043  14.991 -1.7265  0.7830 -2.3707
   6323SM  H10G 8144   4.800   5.051  14.978  1.4833  2.7091 -0.3587
   6323SM  C11F 8145   4.699   4.970  14.805  0.6440  0.0375  0.6649
   6323SM  H11F 8146   4.725   4.869  14.844 -0.2592  0.0736  1.3888
   6323SM  H11G 8147   4.781   4.992  14.733  0.9246  0.0770  0.9922
   6323SM  C12F 8148   4.562   4.957  14.733 -0.0290 -0.7906 -0.2027
   6323SM  H12F 8149   4.548   5.044  14.665  0.5144 -1.1782 -0.8330
   6323SM  H12G 8150   4.478   4.951  14.805 -0.2695  2.2382 -0.0930
   6323SM  C13F 8151   4.564   4.830  14.643  0.1368  0.5260  0.3310
   6323SM  H13F 8152   4.611   4.747  14.700  1.3980  1.2035  0.2940
   6323SM  H13G 8153   4.620   4.846  14.549 -1.5066  1.9181 -0.4737
   6323SM  C14F 8154   4.421   4.788  14.603  0.2854  1.2739  0.1796
   6323SM  H14F 8155   4.377   4.866  14.537 -0.8639  0.4185 -0.1155
   6323SM  H14G 8156   4.351   4.773  14.688  0.5962 -0.7722  0.1412
   6323SM  C15F 8157   4.416   4.642  14.539  0.2036  0.4048  0.2391
   6323SM  H15F 8158   4.446   4.565  14.614 -0.7148  0.3364  0.5519
   6323SM  H15G 8159   4.502   4.647  14.469  0.5566 -0.7901  0.5671
   6323SM  C16F 8160   4.281   4.589  14.488  0.5758 -0.1448  0.7734
   6323SM  H16F 8161   4.203   4.608  14.565 -0.0273  3.8469 -0.5525
   6323SM  H16G 8162   4.285   4.482  14.462 -2.1400 -0.1595  0.0354
   6323SM  C17F 8163   4.237   4.659  14.357 -0.7464  0.1526 -0.1891
   6323SM  H17F 8164   4.238   4.770  14.359 -0.2228  0.1429  0.3290
   6323SM  H17G 8165   4.130   4.646  14.330 -0.5099  0.7085 -1.4420
   6323SM  C18F 8166   4.313   4.605  14.232 -0.4739  0.1453 -0.3343
   6323SM  H18F 8167   4.297   4.496  14.217 -1.6829  0.2475  0.1286
   6323SM  H18G 8168   4.420   4.611  14.260 -0.9503 -0.5298  1.7542
   6323SM  C19F 8169   4.289   4.692  14.113  0.0298  0.2469  0.3570
   6323SM  H19F 8170   4.312   4.797  14.141 -1.7661  0.7319  0.1793
   6323SM  H19G 8171   4.179   4.694  14.092 -0.1384 -0.3209  1.1306
   6323SM  C20F 8172   4.384   4.657  13.995 -0.8846  0.2766 -0.2679
   6323SM  H20F 8173   4.468   4.587  14.014 -1.0191  0.6169  1.8232
   6323SM  H20G 8174   4.430   4.752  13.960  1.5473 -0.2315  1.3024
   6323SM  C21F 8175   4.309   4.614  13.870 -0.5029 -0.1931 -0.2183
   6323SM  H21F 8176   4.372   4.614  13.778  0.5742  1.0885  0.4866
   6323SM  H21G 8177   4.219   4.671  13.839 -1.0483 -1.4349 -1.0109
   6323SM  C22F 8178   4.264   4.469  13.887 -0.3491 -0.2906 -0.5354
   6323SM  H22F 8179   4.212   4.466  13.985 -2.0588  0.0632 -1.4093
   6323SM  H22G 8180   4.355   4.404  13.884 -0.5008 -0.6301  1.0586
   6323SM  C23F 8181   4.159   4.424  13.784  0.2620  0.2031 -1.2750
   6323SM  H23F 8182   4.204   4.407  13.683 -0.2627 -0.2820 -1.4313
   6323SM  H23G 8183   4.081   4.500  13.764 -0.4374 -0.5388 -1.4107
   6323SM  H23H 8184   4.121   4.324  13.814  1.3784  0.0362 -0.3563
   6423SM     N 8185   5.969   6.008  16.760  0.0715  0.3077  0.0545
   6423SM   C15 8186   5.983   6.153  16.748  0.2362 -0.2427  0.3773
   6423SM  H15A 8187   6.075   6.182  16.797  1.0638 -1.6973 -0.2597
   6423SM  H15B 8188   5.905   6.199  16.807  0.5296  0.6977  0.0544
   6423SM  H15C 8189   5.974   6.189  16.646  0.6568 -1.2957 -0.0469
   6423SM   C14 8190   6.059   5.968  16.869 -0.3655  0.2562 -0.5750
   6423SM  H14A 8191   6.157   6.013  16.862 -0.4395  0.3664 -0.9200
   6423SM  H14B 8192   6.079   5.863  16.886 -2.5070  0.0880  1.4731
   6423SM  H14C 8193   6.023   5.978  16.971  0.0191 -0.6358 -0.3399
   6423SM   C13 8194   5.829   5.976  16.797 -0.2312 -0.2886 -0.4687
   6423SM  H13A 8195   5.763   6.001  16.715 -1.4168 -1.8322 -0.0265
   6423SM  H13B 8196   5.795   6.034  16.881  0.5667  0.6317 -0.7704
   6423SM  H13C 8197   5.808   5.873  16.823 -2.2195  0.4675  1.1625
   6423SM   C12 8198   6.019   5.941  16.636  0.0809 -0.3541  0.0237
   6423SM  H12A 8199   6.029   5.834  16.646 -0.6606 -0.6326 -1.7224
   6423SM  H12B 8200   6.112   5.993  16.618 -1.1160  1.4729 -1.3267
   6423SM   C11 8201   5.926   5.967  16.516  0.0132 -0.3903 -0.1587
   6423SM  H11A 8202   5.821   5.941  16.541 -0.1835 -0.0852 -0.6464
   6423SM  H11B 8203   5.947   5.893  16.436  1.3268  0.4117 -0.5864
   6423SM     P 8204   6.021   6.161  16.366 -0.1908 -0.0742  0.2024
   6423SM   O13 8205   5.965   6.281  16.301  0.1856 -0.0528  0.0349
   6423SM   O14 8206   6.156   6.190  16.427  0.2039  0.1595  0.1701
   6423SM   O11 8207   6.033   6.046  16.258  0.5313  0.3290  0.1700
   6423SM   O12 8208   5.921   6.100  16.476 -0.4509  0.0176  0.2270
   6423SM   C1S 8209   5.922   6.008  16.178 -0.5895  1.0908 -0.3577
   6423SM   H1S 8210   5.829   6.064  16.203 -0.8500  0.1884  0.7612
   6423SM   H1T 8211   5.905   5.900  16.196 -0.2871  1.0194 -0.4915
   6423SM    NF 8212   5.843   5.983  15.941 -0.1780  0.2577 -0.4674
   6423SM   HNF 8213   5.836   5.891  15.904  2.6790 -0.2884  0.1394
   6423SM   C2S 8214   5.957   6.017  16.025  1.0832 -0.1632  1.0230
   6423SM   H2S 8215   5.988   6.123  16.014  0.9985 -0.1679  0.7119
   6423SM   C3S 8216   6.083   5.928  15.997 -0.0887 -0.5707 -0.8370
   6423SM   H3S 8217   6.039   5.826  15.991 -0.2441 -0.6179  0.7861
   6423SM    O3 8218   6.186   5.923  16.096  0.4955  0.3634 -0.1663
   6423SM   HO3 8219   6.146   5.980  16.162  1.7610  0.8049  0.2499
   6423SM   C4S 8220   6.147   5.942  15.866  0.3550 -0.4227  0.6024
   6423SM   H4S 8221   6.092   5.886  15.789  0.9583  0.5394 -0.5636
   6423SM   C5S 8222   6.255   6.012  15.822 -0.2372 -0.5197  0.7126
   6423SM   H5S 8223   6.304   6.079  15.895  0.2309 -0.4295  0.3212
   6423SM   C6S 8224   6.305   6.007  15.671  0.5138  0.0573 -0.1746
   6423SM   H6S 8225   6.412   5.979  15.666  0.5029 -1.1206  3.4364
   6423SM   H6T 8226   6.295   6.112  15.634  2.1310 -0.0492 -0.9792
   6423SM   C7S 8227   6.236   5.893  15.586 -0.0963 -0.7685  0.5657
   6423SM   H7S 8228   6.126   5.910  15.578  0.0257 -0.7513 -1.8809
   6423SM   H7T 8229   6.262   5.802  15.645  1.6802 -0.6222  0.0593
   6423SM   C8S 8230   6.301   5.868  15.448  0.0601  0.0547 -0.1191
   6423SM   H8S 8231   6.411   5.874  15.460  0.1159 -2.4081  1.2950
   6423SM   H8T 8232   6.266   5.936  15.368 -0.9553 -0.8577 -0.4734
   6423SM   C9S 8233   6.266   5.730  15.387 -0.2195 -0.0067  0.7388
   6423SM   H9S 8234   6.156   5.722  15.376 -0.2062  1.2969 -0.5505
   6423SM   H9T 8235   6.297   5.656  15.464 -4.0334 -1.3055  1.2310
   6423SM  C10S 8236   6.328   5.702  15.249 -0.6766  0.0675 -0.4267
   6423SM  H10S 8237   6.438   5.713  15.266  0.0521 -1.7922 -3.1775
   6423SM  H10T 8238   6.288   5.780  15.180 -1.5443  0.6934  0.7561
   6423SM  C11S 8239   6.286   5.564  15.200 -0.2818  0.4719  0.3701
   6423SM  H11S 8240   6.289   5.489  15.282 -0.2498 -0.4755 -0.4746
   6423SM  H11T 8241   6.354   5.512  15.129 -2.7190 -1.6370 -0.6172
   6423SM  C12S 8242   6.149   5.569  15.137 -0.3696  0.7988 -0.4066
   6423SM  H12S 8243   6.160   5.644  15.056  1.5497  1.7070  0.6328
   6423SM  H12T 8244   6.073   5.614  15.204  0.1861  1.2872 -0.0989
   6423SM  C13S 8245   6.100   5.430  15.089 -1.0784 -0.6631 -0.6019
   6423SM  H13S 8246   6.096   5.374  15.185  2.2833 -0.2435 -0.0799
   6423SM  H13T 8247   6.180   5.384  15.026  0.4206 -0.8300  1.3260
   6423SM  C14S 8248   5.970   5.444  15.013 -0.0692  0.1277  0.3921
   6423SM  H14S 8249   5.981   5.519  14.932  2.0276 -0.1540  0.3811
   6423SM  H14T 8250   5.909   5.494  15.092 -0.8556  1.0509 -0.7619
   6423SM  C15S 8251   5.911   5.315  14.961 -0.0056 -0.3728 -0.1991
   6423SM  H15S 8252   5.820   5.348  14.906  0.2936  0.0432 -0.4523
   6423SM  H15T 8253   5.892   5.243  15.043  0.5092 -0.0002  0.2477
   6423SM  C16S 8254   6.007   5.255  14.860  0.0623  0.8892  0.6959
   6423SM  H16S 8255   5.977   5.157  14.818 -0.3766  0.6391  1.5763
   6423SM  H16T 8256   6.093   5.231  14.927  1.5754  3.3028 -0.2067
   6423SM  C17S 8257   6.050   5.338  14.747 -0.2332 -0.3078 -0.3608
   6423SM  H17S 8258   6.105   5.417  14.803 -3.5905  1.2228  1.0662
   6423SM  H17T 8259   5.969   5.393  14.694  0.2127  0.8858  0.1660
   6423SM  C18S 8260   6.152   5.280  14.649 -0.3517  0.3728  0.3254
   6423SM  H18S 8261   6.089   5.226  14.576 -0.7732 -1.4980  1.9903
   6423SM  H18T 8262   6.215   5.204  14.701  2.5886  2.2237 -0.2572
   6423SM  H18U 8263   6.212   5.349  14.585 -0.3936  0.0797 -0.0361
   6423SM   C1F 8264   5.737   6.065  15.929 -0.2749 -0.2686  0.2792
   6423SM    OF 8265   5.740   6.174  15.985  0.2453 -0.3743 -0.2386
   6423SM   C2F 8266   5.618   6.020  15.849 -0.3082  0.1202 -0.2119
   6423SM   H2F 8267   5.528   6.012  15.913 -0.5642 -0.6040 -0.6443
   6423SM   H2G 8268   5.646   5.917  15.817 -1.6809 -1.3862  3.0101
   6423SM   C3F 8269   5.597   6.118  15.733 -0.1464 -0.3634  0.1879
   6423SM   H3F 8270   5.691   6.131  15.675  1.0651  1.6961  2.4278
   6423SM   H3G 8271   5.560   6.218  15.762 -0.5258 -0.5694  0.4214
   6423SM   C4F 8272   5.489   6.053  15.643 -0.7251 -0.2399  0.5465
   6423SM   H4F 8273   5.388   6.042  15.688 -1.2070  1.2371 -0.1318
   6423SM   H4G 8274   5.509   5.946  15.621 -1.2376  0.0656 -1.5940
   6423SM   C5F 8275   5.469   6.142  15.516 -0.2379 -0.1896 -0.5502
   6423SM   H5F 8276   5.568   6.147  15.466 -0.1846  1.3608 -0.3237
   6423SM   H5G 8277   5.435   6.245  15.539 -0.0762 -0.0826 -0.7896
   6423SM   C6F 8278   5.369   6.079  15.420 -0.1461 -0.5799  0.4688
   6423SM   H6F 8279   5.286   6.043  15.484  0.0016 -0.6112  0.6429
   6423SM   H6G 8280   5.402   5.990  15.362 -1.6543 -1.9497  1.6262
   6423SM   C7F 8281   5.297   6.185  15.345  0.4881 -0.5112  0.2639
   6423SM   H7F 8282   5.372   6.266  15.331  0.6885 -0.6470  0.5490
   6423SM   H7G 8283   5.214   6.227  15.406 -0.9089  0.2062 -2.0064
   6423SM   C8F 8284   5.252   6.147  15.201  0.1411 -0.3771  0.1904
   6423SM   H8F 8285   5.348   6.134  15.146  0.3547  0.6392  0.3066
   6423SM   H8G 8286   5.194   6.231  15.158 -1.3490 -1.5060 -0.0536
   6423SM   C9F 8287   5.165   6.025  15.197 -0.0439 -0.3064  0.1038
   6423SM   H9F 8288   5.074   6.043  15.259 -1.5907 -0.3398 -2.0546
   6423SM   H9G 8289   5.219   5.936  15.236  0.1484 -0.6534 -0.9283
   6423SM  C10F 8290   5.118   5.981  15.052 -0.9681 -0.0592 -0.6961
   6423SM  H10F 8291   5.206   5.976  14.984 -0.5600 -0.3567 -0.1588
   6423SM  H10G 8292   5.053   6.058  15.007 -0.3036  0.3020 -1.0590
   6423SM  C11F 8293   5.037   5.856  15.048 -0.1283 -0.0829 -0.2629
   6423SM  H11F 8294   5.088   5.774  15.104  2.1210  0.9226 -0.7320
   6423SM  H11G 8295   5.022   5.818  14.945  1.1765 -2.2969  0.2860
   6423SM  C12F 8296   4.897   5.871  15.109 -0.1824 -0.9333 -0.1319
   6423SM  H12F 8297   4.859   5.974  15.097 -0.3165 -0.6052  2.5296
   6423SM  H12G 8298   4.899   5.844  15.217 -2.2741 -1.8745 -0.2737
   6423SM  C13F 8299   4.794   5.772  15.053  0.2575  0.5608  0.0767
   6423SM  H13F 8300   4.837   5.669  15.053 -0.7998  0.0977 -1.6349
   6423SM  H13G 8301   4.768   5.808  14.952  0.2487  3.4210  1.0218
   6423SM  C14F 8302   4.665   5.774  15.138  0.3311 -0.4482  0.1072
   6423SM  H14F 8303   4.613   5.872  15.137  0.1569 -0.4237  2.9007
   6423SM  H14G 8304   4.697   5.760  15.243 -1.3353  1.2026  0.9058
   6423SM  C15F 8305   4.560   5.661  15.099  0.0339 -0.6463 -0.0179
   6423SM  H15F 8306   4.472   5.671  15.165  1.3720  1.1285  1.6087
   6423SM  H15G 8307   4.612   5.566  15.124 -0.5968 -0.7553  0.9225
   6423SM  C16F 8308   4.520   5.657  14.951  0.0869  1.1520  0.2187
   6423SM  H16F 8309   4.607   5.692  14.892 -1.8929  0.5997 -3.2608
   6423SM  H16G 8310   4.442   5.728  14.917 -1.5231 -0.9171 -0.5981
   6423SM  C17F 8311   4.473   5.515  14.902  0.8028 -0.4353  0.0508
   6423SM  H17F 8312   4.363   5.518  14.893  0.8989 -0.7712 -1.6124
   6423SM  H17G 8313   4.512   5.431  14.963  0.1179  0.0579  1.2159
   6423SM  C18F 8314   4.508   5.475  14.760 -0.9123 -0.6613  0.5739
   6423SM  H18F 8315   4.503   5.365  14.751  1.3992 -0.7629  0.1023
   6423SM  H18G 8316   4.613   5.503  14.737 -1.0826  0.3785  1.0007
   6423SM  C19F 8317   4.408   5.530  14.656  0.5269 -0.5208  0.2411
   6423SM  H19F 8318   4.386   5.636  14.683  0.7511  0.3344 -2.6099
   6423SM  H19G 8319   4.313   5.472  14.647  0.2550  0.0199 -0.4987
   6423SM  C20F 8320   4.476   5.542  14.517 -0.6929 -0.8207  0.2498
   6423SM  H20F 8321   4.517   5.442  14.495 -0.2918 -0.3473 -1.2852
   6423SM  H20G 8322   4.558   5.616  14.526 -1.2113 -0.1360 -0.4170
   6423SM  C21F 8323   4.379   5.594  14.412 -0.2200  0.6775  0.2013
   6423SM  H21F 8324   4.442   5.641  14.334  0.3771  0.6127  0.6325
   6423SM  H21G 8325   4.309   5.671  14.449 -0.5580  1.2173 -1.4923
   6423SM  C22F 8326   4.301   5.486  14.341 -0.2845 -0.3295  0.7324
   6423SM  H22F 8327   4.240   5.538  14.264  0.6960 -0.2536 -0.0246
   6423SM  H22G 8328   4.238   5.425  14.409 -3.4835  0.7048 -1.1164
   6423SM  C23F 8329   4.388   5.394  14.261  0.0326 -0.5176 -1.1831
   6423SM  H23F 8330   4.457   5.439  14.187 -0.6219  1.8683 -0.4415
   6423SM  H23G 8331   4.318   5.333  14.200 -1.6703 -1.7333  1.7728
   6423SM  H23H 8332   4.427   5.321  14.335 -0.7025 -2.9331 -3.0311
   6523SM     N 8333   4.054   7.006  16.039  0.5735 -0.4776  0.2900
   6523SM   C15 8334   4.091   6.925  16.162 -0.5085  0.3323 -0.4006
   6523SM  H15A 8335   4.130   6.831  16.125  0.0436  0.3957  0.0190
   6523SM  H15B 8336   4.010   6.918  16.234  0.1965  0.4613  0.4175
   6523SM  H15C 8337   4.168   6.981  16.212  0.3402  0.4732 -1.8140
   6523SM   C14 8338   3.944   6.933  15.972 -0.3977  0.3889  0.5034
   6523SM  H14A 8339   3.927   6.972  15.873  2.2590 -0.5530 -0.4012
   6523SM  H14B 8340   3.859   6.949  16.038  1.0158  0.6482  2.3477
   6523SM  H14C 8341   3.963   6.827  15.971  0.2715  0.3278  4.3178
   6523SM   C13 8342   4.007   7.145  16.085 -0.1637  0.2670  0.0303
   6523SM  H13A 8343   3.950   7.187  16.003  0.3857 -1.7542 -1.4636
   6523SM  H13B 8344   4.090   7.206  16.115 -0.2911  0.9664 -0.9658
   6523SM  H13C 8345   3.935   7.141  16.166 -1.1995  1.4284 -0.7823
   6523SM   C12 8346   4.171   7.019  15.943  0.5624 -0.3963 -0.2937
   6523SM  H12A 8347   4.254   7.060  15.999 -1.3015  1.7293  1.1195
   6523SM  H12B 8348   4.131   7.090  15.873 -0.2186  0.2516  0.7728
   6523SM   C11 8349   4.229   6.895  15.873  0.5873 -0.0693  0.1982
   6523SM  H11A 8350   4.295   6.941  15.797 -0.1628  0.8250  0.0769
   6523SM  H11B 8351   4.154   6.826  15.828  2.5947 -1.2588 -1.4958
   6523SM     P 8352   4.438   6.843  16.030  0.1177 -0.1720 -0.0000
   6523SM   O13 8353   4.455   6.992  16.037 -0.5576 -0.1651  0.1716
   6523SM   O14 8354   4.452   6.771  16.157 -0.3503 -0.1920 -0.1131
   6523SM   O11 8355   4.551   6.782  15.939 -0.0727  0.1957 -0.5139
   6523SM   O12 8356   4.299   6.813  15.964  0.3919 -0.0398 -0.4150
   6523SM   C1S 8357   4.521   6.697  15.829  0.0019  0.3810 -0.3658
   6523SM   H1S 8358   4.443   6.751  15.771 -0.7051  1.6315  1.6348
   6523SM   H1T 8359   4.484   6.603  15.873 -0.2435  0.3339 -0.6666
   6523SM    NF 8360   4.594   6.606  15.623  0.3263  0.7273  0.0374
   6523SM   HNF 8361   4.598   6.506  15.630  0.8655  0.6952 -0.7097
   6523SM   C2S 8362   4.642   6.678  15.737  0.2488 -0.5233 -0.4588
   6523SM   H2S 8363   4.669   6.785  15.722  1.9395 -0.7588  0.5899
   6523SM   C3S 8364   4.767   6.611  15.815 -0.2910 -0.9970 -0.2240
   6523SM   H3S 8365   4.731   6.513  15.853 -1.0794 -0.4605  0.4596
   6523SM    O3 8366   4.810   6.679  15.936 -0.2440 -0.5939  0.7560
   6523SM   HO3 8367   4.737   6.741  15.948  0.5482  0.5266 -0.0573
   6523SM   C4S 8368   4.884   6.597  15.722 -0.4730  0.1358 -0.3120
   6523SM   H4S 8369   4.928   6.691  15.685  0.3733  0.1146  0.5770
   6523SM   C5S 8370   4.920   6.478  15.670 -0.0810 -0.4472 -0.2209
   6523SM   H5S 8371   4.851   6.392  15.680 -1.6460  0.8491  0.5152
   6523SM   C6S 8372   5.027   6.468  15.565 -0.0066 -0.4087  0.4521
   6523SM   H6S 8373   5.004   6.410  15.472  0.3298 -0.8197  0.6187
   6523SM   H6T 8374   5.116   6.414  15.605 -1.4880 -2.2624  1.3914
   6523SM   C7S 8375   5.091   6.601  15.510  0.1456 -0.1713 -0.4344
   6523SM   H7S 8376   5.162   6.632  15.590  0.5805  0.8437 -1.1771
   6523SM   H7T 8377   5.019   6.682  15.486 -0.3209 -1.2860 -3.2299
   6523SM   C8S 8378   5.171   6.577  15.379 -0.5630 -0.2344  0.1454
   6523SM   H8S 8379   5.100   6.535  15.304 -0.3261  0.7179 -0.6296
   6523SM   H8T 8380   5.246   6.495  15.380  0.5433  0.7463  0.0009
   6523SM   C9S 8381   5.243   6.710  15.334 -0.3763 -0.2253  0.2115
   6523SM   H9S 8382   5.289   6.754  15.425  1.1167 -1.8960  0.3281
   6523SM   H9T 8383   5.169   6.785  15.300  0.6589 -0.8085 -3.8617
   6523SM  C10S 8384   5.358   6.707  15.232 -0.4196  0.3309 -0.4380
   6523SM  H10S 8385   5.438   6.648  15.282 -0.5139  1.2036  0.7874
   6523SM  H10T 8386   5.389   6.814  15.222  1.7152 -0.3000 -1.1247
   6523SM  C11S 8387   5.311   6.651  15.093 -0.2800 -0.2405  0.0529
   6523SM  H11S 8388   5.287   6.734  15.023  0.3443 -0.5077 -0.4885
   6523SM  H11T 8389   5.218   6.591  15.107  1.0085 -2.1585  0.7447
   6523SM  C12S 8390   5.422   6.569  15.026 -0.4717 -0.2610 -0.0801
   6523SM  H12S 8391   5.388   6.563  14.920 -2.5546  0.9696  0.4707
   6523SM  H12T 8392   5.420   6.470  15.075 -1.7941  0.4067  1.3316
   6523SM  C13S 8393   5.562   6.635  15.019 -0.1133 -0.1769  0.7904
   6523SM  H13S 8394   5.599   6.650  15.123  1.2374 -1.3413  0.5115
   6523SM  H13T 8395   5.561   6.732  14.965 -0.8933 -0.2951  0.5930
   6523SM  C14S 8396   5.665   6.549  14.939 -0.0792 -0.3296 -0.5572
   6523SM  H14S 8397   5.632   6.548  14.833  0.6611  2.8025 -0.9326
   6523SM  H14T 8398   5.656   6.446  14.981 -2.1415 -0.2426 -0.7043
   6523SM  C15S 8399   5.806   6.602  14.941  0.0296 -0.3059 -0.0620
   6523SM  H15S 8400   5.851   6.556  15.032 -0.4652 -1.6824 -0.4932
   6523SM  H15T 8401   5.806   6.713  14.946 -1.6675 -0.3010  0.4544
   6523SM  C16S 8402   5.900   6.553  14.828  0.0151  0.1381  0.2028
   6523SM  H16S 8403   5.858   6.576  14.728 -1.0611 -0.0552  0.5960
   6523SM  H16T 8404   5.909   6.443  14.828  1.4326  0.2250  1.1559
   6523SM  C17S 8405   6.031   6.620  14.827 -0.0169 -0.0641 -0.6177
   6523SM  H17S 8406   6.064   6.624  14.933 -0.0707  0.6108 -0.6189
   6523SM  H17T 8407   6.019   6.728  14.801  1.3836  0.0866 -0.7259
   6523SM  C18S 8408   6.136   6.552  14.745 -0.0325  0.2024  0.6834
   6523SM  H18S 8409   6.156   6.453  14.791  0.2652  1.1167  2.6236
   6523SM  H18T 8410   6.221   6.623  14.752 -1.0516  1.4044  1.3266
   6523SM  H18U 8411   6.103   6.543  14.640  1.5945 -1.9304  0.2839
   6523SM   C1F 8412   4.523   6.666  15.526 -0.1517  0.0035 -0.4802
   6523SM    OF 8413   4.525   6.788  15.526 -0.1863 -0.1293 -0.2383
   6523SM   C2F 8414   4.449   6.579  15.428  0.5736  0.0484  0.1048
   6523SM   H2F 8415   4.361   6.641  15.400  0.8716  0.8343  0.8727
   6523SM   H2G 8416   4.400   6.493  15.479 -1.4920 -0.2636 -2.2443
   6523SM   C3F 8417   4.533   6.537  15.308 -0.1664  0.1344 -0.4461
   6523SM   H3F 8418   4.572   6.620  15.245 -0.5032 -0.3733 -1.3323
   6523SM   H3G 8419   4.453   6.493  15.246 -2.1713  1.2319  1.2223
   6523SM   C4F 8420   4.642   6.442  15.348 -0.1431 -0.9785  0.1815
   6523SM   H4F 8421   4.591   6.360  15.403 -0.3653 -0.4489  0.7817
   6523SM   H4G 8422   4.705   6.490  15.426 -1.5792  1.2204  0.0738
   6523SM   C5F 8423   4.726   6.379  15.233 -0.1971  0.0725 -0.4277
   6523SM   H5F 8424   4.669   6.313  15.165 -0.2713  0.5107 -0.7982
   6523SM   H5G 8425   4.796   6.312  15.288 -0.1759  0.9382  0.6400
   6523SM   C6F 8426   4.806   6.482  15.146  0.1377  0.2450  0.0177
   6523SM   H6F 8427   4.869   6.541  15.216  0.8192 -2.0604  1.4837
   6523SM   H6G 8428   4.732   6.552  15.102  1.8783  1.8713 -0.4641
   6523SM   C7F 8429   4.892   6.407  15.037 -0.4153 -0.7432 -0.0253
   6523SM   H7F 8430   4.830   6.325  14.993 -0.9126 -1.4993  1.9601
   6523SM   H7G 8431   4.973   6.356  15.093  0.9692 -1.0240 -2.1860
   6523SM   C8F 8432   4.939   6.497  14.917  0.4280 -0.6677  0.2341
   6523SM   H8F 8433   4.971   6.601  14.938 -0.9031 -0.5102  1.6253
   6523SM   H8G 8434   4.862   6.490  14.837  0.1408  0.3663  0.4039
   6523SM   C9F 8435   5.067   6.435  14.846  0.4510 -0.8482  0.0696
   6523SM   H9F 8436   5.047   6.331  14.811  0.7070 -0.7271 -0.4490
   6523SM   H9G 8437   5.150   6.431  14.919  0.4122  2.9937  0.5148
   6523SM  C10F 8438   5.111   6.513  14.721 -0.7381  0.0990  0.1431
   6523SM  H10F 8439   5.126   6.616  14.759  3.2197 -0.7262  1.3462
   6523SM  H10G 8440   5.021   6.502  14.657  0.6191 -1.2946 -1.6166
   6523SM  C11F 8441   5.230   6.448  14.651  0.1533 -0.1062 -0.1162
   6523SM  H11F 8442   5.313   6.435  14.723 -1.4777 -2.5015  1.4681
   6523SM  H11G 8443   5.273   6.513  14.571  1.2869 -0.3528  0.2800
   6523SM  C12F 8444   5.208   6.313  14.579 -0.1143 -0.2076 -0.0125
   6523SM  H12F 8445   5.112   6.316  14.523 -0.0622  0.1855 -0.0836
   6523SM  H12G 8446   5.197   6.230  14.653 -2.4575 -0.3236 -0.3958
   6523SM  C13F 8447   5.322   6.261  14.486  0.5988 -0.3215 -0.0454
   6523SM  H13F 8448   5.324   6.333  14.402  0.7823 -1.7066 -1.2834
   6523SM  H13G 8449   5.296   6.160  14.446 -2.7704  0.7977 -1.0473
   6523SM  C14F 8450   5.451   6.257  14.553  0.1259  0.0577  0.1263
   6523SM  H14F 8451   5.470   6.170  14.620 -0.0689 -1.0373 -1.2034
   6523SM  H14G 8452   5.479   6.354  14.599  0.9515 -0.5999  1.0700
   6523SM  C15F 8453   5.553   6.236  14.443  0.1385 -0.0648  0.0812
   6523SM  H15F 8454   5.655   6.263  14.478 -0.2569  0.0163  1.2355
   6523SM  H15G 8455   5.523   6.296  14.355  0.4190 -0.5568 -0.3525
   6523SM  C16F 8456   5.553   6.093  14.392 -0.3216  0.9576  0.3306
   6523SM  H16F 8457   5.453   6.079  14.346 -0.3260  2.8280 -0.3477
   6523SM  H16G 8458   5.564   6.024  14.478 -1.3909  2.4489  1.7272
   6523SM  C17F 8459   5.669   6.064  14.293  0.1871  0.3571 -0.5966
   6523SM  H17F 8460   5.671   6.145  14.217  0.5569 -0.3824 -1.3880
   6523SM  H17G 8461   5.652   5.967  14.243 -2.2055  1.1111 -1.3456
   6523SM  C18F 8462   5.811   6.065  14.354  0.5052  0.2434  0.6370
   6523SM  H18F 8463   5.819   5.983  14.429 -1.2220 -1.7075 -1.1747
   6523SM  H18G 8464   5.833   6.163  14.400  0.9026  1.0876 -1.2266
   6523SM  C19F 8465   5.924   6.044  14.254 -0.7218 -0.2749  0.0828
   6523SM  H19F 8466   5.882   5.980  14.173  1.9897  0.6748 -2.2042
   6523SM  H19G 8467   6.012   5.993  14.298 -0.2783 -0.7393 -1.2958
   6523SM  C20F 8468   5.956   6.166  14.177  0.1559 -0.5363  0.1718
   6523SM  H20F 8469   5.945   6.241  14.258  0.7331 -1.7687  1.4402
   6523SM  H20G 8470   5.882   6.181  14.095 -0.6931  0.6384  1.1130
   6523SM  C21F 8471   6.094   6.176  14.112  0.6059  1.0942 -0.1541
   6523SM  H21F 8472   6.168   6.199  14.192  0.7140  0.0202  0.0706
   6523SM  H21G 8473   6.091   6.260  14.040  0.0702  1.0806 -0.1546
   6523SM  C22F 8474   6.135   6.041  14.041  0.0632 -0.4309 -1.1183
   6523SM  H22F 8475   6.110   5.958  14.111 -3.0420  0.7817 -0.6107
   6523SM  H22G 8476   6.243   6.043  14.017  0.1611  1.0903 -0.7064
   6523SM  C23F 8477   6.066   6.010  13.910  0.1671 -0.6111 -0.0102
   6523SM  H23F 8478   6.073   6.095  13.838  0.1790 -0.0462  0.6465
   6523SM  H23G 8479   5.955   6.010  13.922  0.2209 -1.4553  0.5731
   6523SM  H23H 8480   6.115   5.921  13.865  2.4938  0.5486  0.0748
   6623SM     N 8481   4.805   2.192  16.518 -0.2716 -0.4072  0.3754
   6623SM   C15 8482   4.758   2.294  16.609  0.5478 -0.6901  0.0481
   6623SM  H15A 8483   4.819   2.303  16.698  0.6263  1.6600 -0.1777
   6623SM  H15B 8484   4.654   2.284  16.635  1.2149 -0.9998  2.8885
   6623SM  H15C 8485   4.758   2.392  16.563 -0.2096 -1.8029 -2.4983
   6623SM   C14 8486   4.956   2.183  16.519 -0.6749  0.0683  0.1182
   6623SM  H14A 8487   5.002   2.162  16.614  2.7986 -1.2616 -1.6842
   6623SM  H14B 8488   5.001   2.278  16.497  0.9256 -0.9150 -1.0524
   6623SM  H14C 8489   4.993   2.114  16.445  0.3810  2.9357 -2.2230
   6623SM   C13 8490   4.765   2.053  16.554 -0.0149 -0.0765 -0.1622
   6623SM  H13A 8491   4.817   1.985  16.489 -0.3481 -0.0649 -0.4417
   6623SM  H13B 8492   4.657   2.052  16.548 -0.0857  2.5419 -0.4299
   6623SM  H13C 8493   4.784   2.023  16.656 -1.0935  0.3369  0.1830
   6623SM   C12 8494   4.767   2.231  16.377  0.0446 -0.3834 -0.4668
   6623SM  H12A 8495   4.661   2.241  16.357 -0.5831 -2.6542  1.2873
   6623SM  H12B 8496   4.813   2.155  16.315  1.6824 -1.4192  1.8884
   6623SM   C11 8497   4.822   2.366  16.330 -0.2691 -0.3421 -0.2128
   6623SM  H11A 8498   4.870   2.365  16.229 -0.6967 -1.3704 -0.4175
   6623SM  H11B 8499   4.916   2.385  16.385 -0.0971  0.9794 -0.9260
   6623SM     P 8500   4.610   2.510  16.286 -0.3506  0.0979 -0.6522
   6623SM   O13 8501   4.541   2.383  16.256 -0.2382 -0.5788 -0.1463
   6623SM   O14 8502   4.531   2.603  16.373  0.3258  0.0266  0.1274
   6623SM   O11 8503   4.647   2.582  16.152  0.2015 -0.4442 -0.7485
   6623SM   O12 8504   4.744   2.479  16.354 -0.0135  0.0278  0.3958
   6623SM   C1S 8505   4.703   2.710  16.156  0.0069  0.2840 -0.0281
   6623SM   H1S 8506   4.801   2.713  16.207  0.4133 -0.1268 -0.7619
   6623SM   H1T 8507   4.637   2.783  16.207 -0.0737  0.8710 -0.9470
   6623SM    NF 8508   4.815   2.887  16.009  0.4255 -0.0115  0.0167
   6623SM   HNF 8509   4.775   2.978  15.996 -2.2831 -0.9678  0.8055
   6623SM   C2S 8510   4.721   2.773  16.012  0.2641  1.0067  0.2347
   6623SM   H2S 8511   4.773   2.691  15.959 -1.6277  1.1554 -1.9794
   6623SM   C3S 8512   4.588   2.796  15.937 -0.0509 -0.3048 -0.4825
   6623SM   H3S 8513   4.530   2.870  15.995  0.9869 -1.3913  2.0914
   6623SM    O3 8514   4.496   2.692  15.943  0.1488  0.3315 -0.3010
   6623SM   HO3 8515   4.507   2.651  16.030 -3.3297  0.2270  0.2436
   6623SM   C4S 8516   4.605   2.852  15.800 -0.1354 -0.0525 -0.1725
   6623SM   H4S 8517   4.645   2.955  15.798  1.0427 -0.4802  0.1890
   6623SM   C5S 8518   4.595   2.788  15.683 -0.4629  0.0774 -0.5794
   6623SM   H5S 8519   4.563   2.683  15.675 -0.3726  0.0787 -1.0281
   6623SM   C6S 8520   4.631   2.840  15.549  0.7105  0.9383 -0.4035
   6623SM   H6S 8521   4.546   2.860  15.481  0.3160 -1.5308 -0.7416
   6623SM   H6T 8522   4.671   2.752  15.494 -1.0661 -1.1038  1.3667
   6623SM   C7S 8523   4.724   2.968  15.535 -0.2117 -0.3555 -0.2454
   6623SM   H7S 8524   4.823   2.932  15.569  0.0729  0.5952 -0.0545
   6623SM   H7T 8525   4.672   3.048  15.591 -1.1841  0.4720 -2.2062
   6623SM   C8S 8526   4.744   3.022  15.394  0.2500 -0.7550  0.1266
   6623SM   H8S 8527   4.648   3.024  15.338  1.3272  1.2642 -1.7972
   6623SM   H8T 8528   4.796   2.947  15.331 -2.9443 -0.6612 -2.9125
   6623SM   C9S 8529   4.805   3.162  15.382  0.0652  0.3172 -0.3673
   6623SM   H9S 8530   4.904   3.150  15.431 -0.3215  2.9110  1.2343
   6623SM   H9T 8531   4.753   3.236  15.446 -0.2085 -0.0283 -0.1895
   6623SM  C10S 8532   4.804   3.214  15.242 -1.1701 -0.1636 -0.3520
   6623SM  H10S 8533   4.851   3.137  15.177 -2.2821  0.6874 -2.2557
   6623SM  H10T 8534   4.859   3.310  15.232 -1.6982  0.1120 -0.6858
   6623SM  C11S 8535   4.666   3.250  15.175  0.1057 -0.2764 -0.3301
   6623SM  H11S 8536   4.618   3.151  15.165 -1.4686 -0.0628  3.4033
   6623SM  H11T 8537   4.696   3.285  15.074 -0.8346 -1.1374 -0.9209
   6623SM  C12S 8538   4.575   3.361  15.230  0.0437  0.1277  0.7959
   6623SM  H12S 8539   4.637   3.448  15.259  1.1350 -0.5734  0.6224
   6623SM  H12T 8540   4.519   3.334  15.322  0.0448 -0.2295  0.6913
   6623SM  C13S 8541   4.468   3.407  15.126  0.3099 -0.5273 -0.4859
   6623SM  H13S 8542   4.401   3.321  15.102 -0.8512  0.0865  0.4628
   6623SM  H13T 8543   4.498   3.455  15.031 -1.6163  0.1708 -0.7971
   6623SM  C14S 8544   4.377   3.520  15.174 -0.0585  0.2632 -0.4784
   6623SM  H14S 8545   4.421   3.620  15.154  0.0376  0.1644 -0.7652
   6623SM  H14T 8546   4.360   3.500  15.282 -0.0120 -2.7993 -0.9498
   6623SM  C15S 8547   4.238   3.516  15.112  0.3577 -0.8499  0.1083
   6623SM  H15S 8548   4.178   3.595  15.162 -3.1140 -0.6877 -3.7844
   6623SM  H15T 8549   4.192   3.418  15.135  0.7217 -0.6447  1.8975
   6623SM  C16S 8550   4.218   3.554  14.958  0.0818  0.0910 -1.3044
   6623SM  H16S 8551   4.305   3.524  14.895  0.6938 -2.2807  0.5411
   6623SM  H16T 8552   4.199   3.663  14.952 -1.4713  0.0144  0.9240
   6623SM  C17S 8553   4.084   3.491  14.909  0.4826 -0.4105  0.6995
   6623SM  H17S 8554   3.991   3.544  14.938  0.2302 -0.7419  0.5133
   6623SM  H17T 8555   4.082   3.386  14.945  0.4061 -0.5234  0.3698
   6623SM  C18S 8556   4.092   3.480  14.757  0.1673 -0.4647  0.1335
   6623SM  H18S 8557   4.191   3.435  14.734 -0.1977 -1.8167  1.0566
   6623SM  H18T 8558   4.090   3.583  14.715 -2.0848 -0.1023  0.9833
   6623SM  H18U 8559   4.010   3.419  14.712  0.0940 -0.7957  0.7046
   6623SM   C1F 8560   4.942   2.884  16.037 -0.8381  0.4427 -0.2159
   6623SM    OF 8561   4.993   2.787  16.088 -0.1747  0.2677  0.3624
   6623SM   C2F 8562   5.016   3.004  16.001 -0.6326 -0.6677 -0.2744
   6623SM   H2F 8563   5.070   3.041  16.091 -2.8953 -2.3664  1.9389
   6623SM   H2G 8564   4.965   3.095  15.963  1.9454  1.4040  0.8235
   6623SM   C3F 8565   5.123   2.977  15.894 -0.7118 -0.0164  0.4235
   6623SM   H3F 8566   5.177   2.890  15.938  0.7783  1.2486  1.1643
   6623SM   H3G 8567   5.202   3.055  15.892 -0.4135 -0.3209 -1.7785
   6623SM   C4F 8568   5.063   2.963  15.755 -0.8161  0.3038  0.2711
   6623SM   H4F 8569   4.995   3.047  15.729 -0.4145  0.0012 -1.9460
   6623SM   H4G 8570   4.995   2.876  15.762  1.2538 -1.3172  2.1834
   6623SM   C5F 8571   5.169   2.933  15.653  0.5411 -1.0561  0.4127
   6623SM   H5F 8572   5.194   2.826  15.666 -0.2875 -1.4175 -0.8630
   6623SM   H5G 8573   5.258   2.994  15.680  0.9549 -2.5681  2.8119
   6623SM   C6F 8574   5.122   2.946  15.505 -0.5144 -0.0791 -0.4284
   6623SM   H6F 8575   5.041   3.021  15.515  0.8404  1.6923 -1.8456
   6623SM   H6G 8576   5.088   2.847  15.469  1.6186 -1.1300  0.2801
   6623SM   C7F 8577   5.225   3.024  15.412  0.5196  0.0925 -0.3195
   6623SM   H7F 8578   5.325   2.976  15.409  0.0805 -0.9201  0.6125
   6623SM   H7G 8579   5.240   3.131  15.439 -0.0867  0.9946 -3.2083
   6623SM   C8F 8580   5.175   3.031  15.267  0.1196 -0.2080 -0.5033
   6623SM   H8F 8581   5.222   3.126  15.233 -0.4891  1.4025  2.7853
   6623SM   H8G 8582   5.068   3.059  15.275  0.7668  1.9124  2.1725
   6623SM   C9F 8583   5.218   2.898  15.196  0.8527  0.1775 -0.2828
   6623SM   H9F 8584   5.183   2.811  15.255 -3.4111  0.9569 -1.2817
   6623SM   H9G 8585   5.329   2.897  15.202  0.8149 -0.6626  0.4321
   6623SM  C10F 8586   5.166   2.873  15.050 -0.4364 -0.9820 -0.4976
   6623SM  H10F 8587   5.203   2.777  15.009 -1.1179 -0.7243 -1.7986
   6623SM  H10G 8588   5.213   2.955  14.991 -2.0399  0.4327  0.0990
   6623SM  C11F 8589   5.011   2.877  15.034 -0.1401  0.4531  0.1611
   6623SM  H11F 8590   4.997   2.872  14.924 -1.4248  0.7315  0.2932
   6623SM  H11G 8591   4.962   2.973  15.061  0.2397  0.8867 -0.6733
   6623SM  C12F 8592   4.956   2.756  15.107 -0.1213  0.1830 -0.4178
   6623SM  H12F 8593   4.966   2.767  15.217 -0.5942 -1.1665 -0.2316
   6623SM  H12G 8594   5.016   2.670  15.072  1.1206  1.1558 -0.7805
   6623SM  C13F 8595   4.807   2.736  15.084  0.4034 -0.0411 -0.9563
   6623SM  H13F 8596   4.782   2.671  14.998 -1.2232  0.9314 -1.2633
   6623SM  H13G 8597   4.768   2.839  15.066 -0.6038 -0.5251 -1.6497
   6623SM  C14F 8598   4.738   2.677  15.211 -0.0821 -0.0106 -0.0457
   6623SM  H14F 8599   4.745   2.733  15.306  0.9840 -1.2669  0.6552
   6623SM  H14G 8600   4.793   2.581  15.223  1.2039  0.4667 -1.7824
   6623SM  C15F 8601   4.585   2.654  15.196  0.1833  1.4246 -0.7599
   6623SM  H15F 8602   4.562   2.621  15.093  0.8855 -0.3346 -0.3897
   6623SM  H15G 8603   4.533   2.749  15.223 -0.2324  1.0500 -0.2056
   6623SM  C16F 8604   4.552   2.551  15.300  0.2478  0.1480  0.1228
   6623SM  H16F 8605   4.618   2.538  15.387  1.2048 -1.0575 -0.7596
   6623SM  H16G 8606   4.569   2.453  15.250  2.7848  0.6162 -0.0676
   6623SM  C17F 8607   4.417   2.561  15.350 -0.2761  0.3369 -0.4083
   6623SM  H17F 8608   4.336   2.519  15.287  0.3081 -2.2887  0.4492
   6623SM  H17G 8609   4.397   2.667  15.375  2.0609  0.6866  0.2847
   6623SM  C18F 8610   4.401   2.484  15.485  0.9923  0.7195  0.0408
   6623SM  H18F 8611   4.309   2.527  15.531 -0.3954 -0.7336 -1.2573
   6623SM  H18G 8612   4.486   2.511  15.551  1.1328  2.4309 -0.7654
   6623SM  C19F 8613   4.394   2.335  15.468  0.4489  0.0099 -0.5851
   6623SM  H19F 8614   4.486   2.300  15.418  0.9641 -0.7261  0.8083
   6623SM  H19G 8615   4.308   2.314  15.401 -0.4314  0.9707  0.1971
   6623SM  C20F 8616   4.357   2.258  15.606 -0.3992 -0.0628 -0.5714
   6623SM  H20F 8617   4.254   2.288  15.634 -0.6823 -0.9543 -0.6390
   6623SM  H20G 8618   4.424   2.297  15.686  2.0736 -1.3456 -1.8811
   6623SM  C21F 8619   4.361   2.104  15.604  0.0242  0.0433 -0.1200
   6623SM  H21F 8620   4.284   2.067  15.532 -0.3973 -0.5152  0.6071
   6623SM  H21G 8621   4.349   2.050  15.700  1.1456 -2.3138 -1.1960
   6623SM  C22F 8622   4.495   2.041  15.553 -0.6879 -0.6087  0.4948
   6623SM  H22F 8623   4.569   2.067  15.633 -0.7823 -2.4777  1.2340
   6623SM  H22G 8624   4.530   2.090  15.459 -0.3434 -0.6763  0.5854
   6623SM  C23F 8625   4.487   1.890  15.543  0.5637 -0.4874  1.4413
   6623SM  H23F 8626   4.581   1.836  15.520 -0.0662 -1.1763  0.3454
   6623SM  H23G 8627   4.415   1.853  15.467  1.1534 -1.1095  1.1727
   6623SM  H23H 8628   4.466   1.853  15.646  2.8653  1.0133  2.5088
   6723SM     N 8629   4.631   7.937  16.715  0.0825 -0.0808  0.8172
   6723SM   C15 8630   4.494   7.972  16.754 -0.1523 -0.5767 -0.6334
   6723SM  H15A 8631   4.495   8.000  16.858  1.0844 -1.7679 -0.2852
   6723SM  H15B 8632   4.425   7.889  16.759  0.1211 -0.7602  0.3872
   6723SM  H15C 8633   4.457   8.059  16.701  0.4591  0.4304  0.5447
   6723SM   C14 8634   4.712   8.051  16.769 -0.1093 -0.2328 -0.1291
   6723SM  H14A 8635   4.818   8.029  16.762  0.4114  1.7508  0.9143
   6723SM  H14B 8636   4.690   8.071  16.872 -1.4975  0.2285 -0.5008
   6723SM  H14C 8637   4.686   8.139  16.712 -1.1114 -0.5396 -0.1713
   6723SM   C13 8638   4.669   7.816  16.795  0.0700 -0.0998  0.5808
   6723SM  H13A 8639   4.667   7.838  16.901 -0.9874  2.6273  0.0917
   6723SM  H13B 8640   4.768   7.781  16.771 -0.3428 -1.6495  1.0465
   6723SM  H13C 8641   4.601   7.737  16.771 -2.7927  2.4060 -0.1917
   6723SM   C12 8642   4.645   7.917  16.563 -0.1810  0.4163  0.1106
   6723SM  H12A 8643   4.596   7.823  16.545  0.1146 -0.0709  1.7554
   6723SM  H12B 8644   4.749   7.900  16.542 -0.0515 -0.9165  1.6985
   6723SM   C11 8645   4.594   8.028  16.473  0.1582 -0.0562  0.2710
   6723SM  H11A 8646   4.492   8.059  16.503  0.7765  1.3175  1.0371
   6723SM  H11B 8647   4.596   7.998  16.366  1.6591  1.2885 -0.1105
   6723SM     P 8648   4.823   8.149  16.410  0.4904 -0.3789 -0.0835
   6723SM   O13 8649   4.877   8.291  16.432 -0.4554  0.3560  0.1473
   6723SM   O14 8650   4.909   8.041  16.457 -0.1861 -0.0044  0.4149
   6723SM   O11 8651   4.793   8.131  16.256  0.0739  0.6850 -0.3957
   6723SM   O12 8652   4.685   8.131  16.484 -0.0104 -0.3112  0.0387
   6723SM   C1S 8653   4.756   8.237  16.176  0.6074 -0.1156 -0.2472
   6723SM   H1S 8654   4.822   8.326  16.185  0.1972  0.2579 -0.8271
   6723SM   H1T 8655   4.657   8.270  16.214  1.6950 -0.1500  2.8848
   6723SM    NF 8656   4.696   8.295  15.945 -0.0038 -0.2457 -0.2183
   6723SM   HNF 8657   4.611   8.290  15.893 -0.7188  1.3380  0.7239
   6723SM   C2S 8658   4.760   8.198  16.024 -0.2623 -0.3059  0.4667
   6723SM   H2S 8659   4.870   8.193  16.008  0.3022  3.4301  2.0921
   6723SM   C3S 8660   4.695   8.055  15.990 -0.4042 -0.4576 -0.5343
   6723SM   H3S 8661   4.588   8.067  16.018 -0.1249  0.5567  0.1737
   6723SM    O3 8662   4.745   7.940  16.061  0.0603  0.2707 -0.7685
   6723SM   HO3 8663   4.803   7.979  16.126 -0.0915  0.4918 -0.7664
   6723SM   C4S 8664   4.692   8.031  15.839  0.2640  0.3646 -0.6085
   6723SM   H4S 8665   4.787   8.054  15.788  2.4035 -1.6773  2.1532
   6723SM   C5S 8666   4.589   7.986  15.771  0.4165 -0.4376  0.3648
   6723SM   H5S 8667   4.499   7.967  15.831  0.6830 -2.7748  0.1576
   6723SM   C6S 8668   4.566   7.960  15.621  0.3123 -0.4759 -0.8689
   6723SM   H6S 8669   4.473   8.016  15.596 -0.8012 -1.5752  0.5883
   6723SM   H6T 8670   4.541   7.853  15.602 -0.3615 -0.5679  0.4292
   6723SM   C7S 8671   4.677   8.006  15.523  0.2703  0.0925  0.0888
   6723SM   H7S 8672   4.778   7.966  15.550  0.1276  1.3134  2.7949
   6723SM   H7T 8673   4.693   8.116  15.530 -1.7973  0.4917 -0.8101
   6723SM   C8S 8674   4.648   7.964  15.377  1.0231 -0.2780 -0.5599
   6723SM   H8S 8675   4.555   8.019  15.350  1.0605  0.0893  0.0253
   6723SM   H8T 8676   4.637   7.854  15.369  0.5492 -0.3206  0.4869
   6723SM   C9S 8677   4.760   8.002  15.284 -0.6445  0.1599 -0.3449
   6723SM   H9S 8678   4.753   7.928  15.201  1.2653 -3.7184  2.6660
   6723SM   H9T 8679   4.844   7.964  15.345 -0.1638  2.3327  0.4365
   6723SM  C10S 8680   4.790   8.157  15.264  0.0680  0.4552 -0.2678
   6723SM  H10S 8681   4.794   8.214  15.360 -1.7151  0.8936 -0.4200
   6723SM  H10T 8682   4.703   8.198  15.210  0.9193  1.5619 -0.8414
   6723SM  C11S 8683   4.929   8.184  15.204 -0.1627 -0.3872 -0.0121
   6723SM  H11S 8684   5.002   8.116  15.253 -1.1781  0.4699  2.8872
   6723SM  H11T 8685   4.962   8.286  15.231  0.9229 -0.6937 -0.1415
   6723SM  C12S 8686   4.934   8.167  15.051 -0.1435 -0.0383 -0.6978
   6723SM  H12S 8687   5.008   8.245  15.022 -2.7969  2.6378 -0.6922
   6723SM  H12T 8688   4.831   8.185  15.014 -0.5871  0.2127  0.6029
   6723SM  C13S 8689   4.975   8.026  15.008 -0.0416 -0.4295  0.6447
   6723SM  H13S 8690   4.927   7.953  15.077 -4.5493  2.3572  0.9172
   6723SM  H13T 8691   5.085   8.019  15.009 -0.0285 -0.1844  1.4046
   6723SM  C14S 8692   4.925   8.007  14.864 -0.0415 -0.5463 -0.3722
   6723SM  H14S 8693   4.950   8.090  14.795 -0.7375  1.1411  1.3019
   6723SM  H14T 8694   4.814   8.006  14.868 -0.0364 -2.0831  0.1082
   6723SM  C15S 8695   4.975   7.885  14.800 -0.3120 -1.1444 -1.2554
   6723SM  H15S 8696   4.961   7.802  14.871  0.4886  0.8279  1.3496
   6723SM  H15T 8697   5.085   7.900  14.799 -0.5788  1.7167  0.6468
   6723SM  C16S 8698   4.914   7.861  14.664 -0.4037  0.2523  0.0247
   6723SM  H16S 8699   4.926   7.947  14.594  2.8792 -0.9754 -1.1485
   6723SM  H16T 8700   4.812   7.821  14.682 -1.7345  2.8000 -1.2861
   6723SM  C17S 8701   5.010   7.760  14.597 -0.0103  0.0099  0.3376
   6723SM  H17S 8702   4.939   7.703  14.532 -2.5104 -0.4474  3.2325
   6723SM  H17T 8703   5.054   7.693  14.673  0.9375  1.5808  1.2263
   6723SM  C18S 8704   5.121   7.827  14.520 -0.2790  0.6577 -1.1322
   6723SM  H18S 8705   5.091   7.893  14.436  1.3440 -0.6946 -2.8802
   6723SM  H18T 8706   5.195   7.752  14.484  3.0529  1.8777  2.4230
   6723SM  H18U 8707   5.184   7.880  14.594 -0.5819 -0.9895  0.3760
   6723SM   C1F 8708   4.740   8.419  15.932  0.5154  0.5580 -0.1233
   6723SM    OF 8709   4.859   8.444  15.943  0.5835  0.0182  0.5979
   6723SM   C2F 8710   4.636   8.517  15.890  0.9224 -0.0419  0.3645
   6723SM   H2F 8711   4.582   8.535  15.985  0.4496 -1.2444  0.3405
   6723SM   H2G 8712   4.577   8.476  15.805  0.0746 -3.1444  2.2947
   6723SM   C3F 8713   4.710   8.647  15.845  0.2317  0.0629  0.6881
   6723SM   H3F 8714   4.783   8.632  15.762 -1.1392 -3.1166 -0.0929
   6723SM   H3G 8715   4.770   8.679  15.933  1.3042  1.4493 -0.4774
   6723SM   C4F 8716   4.622   8.772  15.828  0.2804 -0.1468  0.3500
   6723SM   H4F 8717   4.687   8.859  15.847  1.3739 -0.9017  0.1592
   6723SM   H4G 8718   4.556   8.781  15.917  0.2882  2.2576  0.1645
   6723SM   C5F 8719   4.534   8.777  15.698  0.5954 -0.3852  0.4952
   6723SM   H5F 8720   4.455   8.698  15.706  0.1859 -0.0331 -0.0667
   6723SM   H5G 8721   4.606   8.754  15.616  2.0683 -0.1078  1.6599
   6723SM   C6F 8722   4.481   8.921  15.669 -0.1475 -0.2871  0.4498
   6723SM   H6F 8723   4.574   8.980  15.653 -0.8627  0.7258 -0.0876
   6723SM   H6G 8724   4.431   8.966  15.757  0.3921  1.0763  0.0815
   6723SM   C7F 8725   4.401   8.934  15.536 -0.0819 -0.7673 -0.5261
   6723SM   H7F 8726   4.383   9.041  15.513  0.6853 -0.3821  0.5658
   6723SM   H7G 8727   4.304   8.883  15.555  0.8581 -1.9192  1.5836
   6723SM   C8F 8728   4.460   8.869  15.409 -0.4436 -0.0294 -0.0726
   6723SM   H8F 8729   4.470   8.760  15.427 -0.9209 -0.0505  0.0824
   6723SM   H8G 8730   4.561   8.912  15.391 -1.1344  1.5175 -0.4234
   6723SM   C9F 8731   4.381   8.884  15.280  0.4196  0.2608  0.3391
   6723SM   H9F 8732   4.448   8.844  15.200 -1.4519 -0.9771 -0.6844
   6723SM   H9G 8733   4.361   8.992  15.261  0.7170  0.2783  0.1171
   6723SM  C10F 8734   4.242   8.825  15.271  0.4900 -0.1109  0.4292
   6723SM  H10F 8735   4.186   8.872  15.355  0.4090  2.1567 -0.7938
   6723SM  H10G 8736   4.245   8.715  15.281  0.9378 -0.1197  0.2179
   6723SM  C11F 8737   4.160   8.853  15.140  0.3635 -0.3714 -0.0501
   6723SM  H11F 8738   4.217   8.816  15.053  0.9674  0.8749 -0.2026
   6723SM  H11G 8739   4.142   8.961  15.123  1.5107 -0.1867 -0.1474
   6723SM  C12F 8740   4.026   8.771  15.148 -0.3199 -0.5432  0.1717
   6723SM  H12F 8741   4.043   8.663  15.164 -2.0479 -0.8113  0.3311
   6723SM  H12G 8742   3.981   8.788  15.048 -0.7545 -0.3670  0.3946
   6723SM  C13F 8743   3.920   8.816  15.247  0.6115 -1.0937 -0.3886
   6723SM  H13F 8744   3.892   8.923  15.238 -1.7705 -1.6849 -0.7204
   6723SM  H13G 8745   3.958   8.801  15.350  1.3994  0.6580 -0.3886
   6723SM  C14F 8746   3.801   8.727  15.237  0.2695  0.2656  0.3716
   6723SM  H14F 8747   3.798   8.682  15.135 -1.1941  1.2071 -0.0244
   6723SM  H14G 8748   3.705   8.780  15.252  0.1156  0.0084  0.2976
   6723SM  C15F 8749   3.815   8.607  15.331 -0.7862  0.3626 -0.8254
   6723SM  H15F 8750   3.764   8.644  15.423 -0.4921  0.6930 -0.7893
   6723SM  H15G 8751   3.921   8.597  15.365 -1.2621  0.1140  0.6455
   6723SM  C16F 8752   3.751   8.475  15.293 -0.3156  0.4264  0.7859
   6723SM  H16F 8753   3.642   8.498  15.288 -0.2417  0.5865 -0.1780
   6723SM  H16G 8754   3.762   8.395  15.370 -2.3610 -0.3175  0.3812
   6723SM  C17F 8755   3.794   8.410  15.156 -0.0916  0.3716 -0.0658
   6723SM  H17F 8756   3.895   8.364  15.162 -0.3968 -0.3467 -0.3253
   6723SM  H17G 8757   3.798   8.500  15.090  1.1445  0.4993  0.1738
   6723SM  C18F 8758   3.693   8.310  15.100  0.6195  0.3222 -0.5247
   6723SM  H18F 8759   3.590   8.351  15.093  0.1436 -0.8158 -0.4241
   6723SM  H18G 8760   3.696   8.218  15.163  0.5078 -0.7183 -1.9793
   6723SM  C19F 8761   3.728   8.269  14.957  0.2293  0.4575  0.1477
   6723SM  H19F 8762   3.657   8.188  14.931  1.5148 -0.0654 -2.0837
   6723SM  H19G 8763   3.834   8.235  14.948 -0.3453 -1.1728 -0.9220
   6723SM  C20F 8764   3.705   8.381  14.853  0.0029 -0.0877  0.7715
   6723SM  H20F 8765   3.755   8.476  14.880 -0.8372  0.4068  0.6377
   6723SM  H20G 8766   3.599   8.413  14.845 -0.0470 -0.0503  1.5709
   6723SM  C21F 8767   3.734   8.327  14.711 -0.2963  0.1364  0.6638
   6723SM  H21F 8768   3.684   8.229  14.694  0.8473 -0.1937 -1.0139
   6723SM  H21G 8769   3.844   8.311  14.709  0.0247  2.0863 -0.1370
   6723SM  C22F 8770   3.708   8.413  14.589  0.0181  0.2802  0.5044
   6723SM  H22F 8771   3.602   8.445  14.580  0.4751  1.2143 -3.5948
   6723SM  H22G 8772   3.725   8.351  14.498 -0.1629  1.9096 -0.6757
   6723SM  C23F 8773   3.795   8.537  14.598 -0.5768  0.4728 -0.0989
   6723SM  H23F 8774   3.743   8.629  14.565 -1.0624  0.1722 -0.1752
   6723SM  H23G 8775   3.886   8.511  14.539  0.3182 -1.3169  1.9488
   6723SM  H23H 8776   3.816   8.567  14.703 -1.4577 -0.9704  0.5102
   6823SM     N 8777   4.153   2.732  16.089 -0.4213 -0.1863  0.1862
   6823SM   C15 8778   4.190   2.779  15.948  0.4498  0.1181 -0.1217
   6823SM  H15A 8779   4.279   2.727  15.916 -0.0894 -2.2682  1.9368
   6823SM  H15B 8780   4.210   2.885  15.952  1.8942 -0.1374 -0.0787
   6823SM  H15C 8781   4.122   2.769  15.864  0.4541  1.3181 -0.2899
   6823SM   C14 8782   4.237   2.815  16.185  0.2626  0.3246 -0.1588
   6823SM  H14A 8783   4.226   2.769  16.282 -1.4092 -0.9423 -0.9107
   6823SM  H14B 8784   4.206   2.919  16.187 -0.4169  0.1289 -0.3840
   6823SM  H14C 8785   4.340   2.807  16.154 -0.6588  0.4059 -3.5739
   6823SM   C13 8786   4.017   2.762  16.114  0.2327 -0.4824 -0.3004
   6823SM  H13A 8787   3.946   2.713  16.049 -2.1978  1.7741  0.4348
   6823SM  H13B 8788   3.993   2.867  16.107 -0.5133 -0.5525  0.8133
   6823SM  H13C 8789   3.996   2.725  16.214  0.5455 -1.1671 -0.4810
   6823SM   C12 8790   4.183   2.578  16.110  0.0955  0.2882 -0.0462
   6823SM  H12A 8791   4.291   2.570  16.104  0.4108  0.9668  3.1946
   6823SM  H12B 8792   4.140   2.508  16.040 -1.8488  0.3054  1.0737
   6823SM   C11 8793   4.155   2.522  16.248 -0.2711  0.2292  0.1199
   6823SM  H11A 8794   4.214   2.571  16.328  0.8929 -0.2260 -0.4342
   6823SM  H11B 8795   4.186   2.416  16.255 -1.2953 -0.0890 -0.0213
   6823SM     P 8796   3.906   2.436  16.223 -0.4547 -0.1786 -0.3060
   6823SM   O13 8797   3.873   2.339  16.333 -0.3983  0.5588  0.4551
   6823SM   O14 8798   3.795   2.513  16.168 -0.3388  0.3223  0.5194
   6823SM   O11 8799   3.981   2.363  16.103  0.1309  0.2332  0.6575
   6823SM   O12 8800   4.018   2.536  16.283 -0.0637  0.0683 -0.6420
   6823SM   C1S 8801   3.902   2.343  15.978 -0.0923 -0.1639 -0.9889
   6823SM   H1S 8802   3.903   2.430  15.909  1.7146 -0.8595 -1.9074
   6823SM   H1T 8803   3.797   2.315  16.001  0.2459 -1.2589 -0.7142
   6823SM    NF 8804   3.852   2.219  15.772  0.3677  0.0241 -0.4068
   6823SM   HNF 8805   3.810   2.130  15.755  0.9262 -0.3406  0.0777
   6823SM   C2S 8806   3.951   2.229  15.878  0.1263  0.8547 -0.3729
   6823SM   H2S 8807   4.047   2.260  15.832 -0.0851 -0.1206 -1.5338
   6823SM   C3S 8808   3.990   2.102  15.958 -0.3777  0.5064  0.8905
   6823SM   H3S 8809   3.899   2.046  15.985  0.8072  0.1652  4.8481
   6823SM    O3 8810   4.055   2.115  16.085 -0.4857 -0.2111  0.0159
   6823SM   HO3 8811   4.066   2.210  16.093  1.3730 -0.5405  3.3519
   6823SM   C4S 8812   4.068   2.009  15.869 -0.4317 -0.4695  0.0072
   6823SM   H4S 8813   4.154   2.059  15.821 -0.6235 -1.8169 -1.8417
   6823SM   C5S 8814   4.035   1.882  15.843 -0.1839  0.1318  0.2508
   6823SM   H5S 8815   3.945   1.845  15.894 -0.5186 -0.0103 -0.4326
   6823SM   C6S 8816   4.098   1.779  15.752 -0.0392 -0.4315 -0.2617
   6823SM   H6S 8817   4.066   1.675  15.773 -1.8940  0.3273  0.9178
   6823SM   H6T 8818   4.209   1.782  15.759  0.0175  0.4443 -1.2533
   6823SM   C7S 8819   4.074   1.823  15.611 -0.2583 -0.1288  0.6920
   6823SM   H7S 8820   4.140   1.764  15.544 -0.7395  0.5940 -0.4562
   6823SM   H7T 8821   4.100   1.926  15.579  0.9795 -0.6623 -0.0965
   6823SM   C8S 8822   3.934   1.807  15.565 -0.3985 -0.4624  0.0199
   6823SM   H8S 8823   3.879   1.897  15.598 -1.4696 -0.4839 -1.6363
   6823SM   H8T 8824   3.885   1.719  15.612  0.1423  0.4985  2.5928
   6823SM   C9S 8825   3.911   1.811  15.411 -0.4863 -0.1893  0.0546
   6823SM   H9S 8826   3.943   1.719  15.358 -1.1331 -0.3764 -0.0193
   6823SM   H9T 8827   3.978   1.890  15.372  1.0942 -1.8484 -0.7034
   6823SM  C10S 8828   3.767   1.843  15.365  0.1307  0.0888  0.0045
   6823SM  H10S 8829   3.744   1.945  15.401  2.4766  0.9076 -0.6467
   6823SM  H10T 8830   3.703   1.773  15.422 -0.7290 -0.9415 -2.1166
   6823SM  C11S 8831   3.748   1.832  15.206 -0.5252 -0.1162  0.1193
   6823SM  H11S 8832   3.808   1.750  15.162  0.2968  0.2131  0.6006
   6823SM  H11T 8833   3.784   1.922  15.151 -0.1879 -1.6302 -2.2765
   6823SM  C12S 8834   3.597   1.828  15.166 -0.2501 -0.2661 -0.2529
   6823SM  H12S 8835   3.535   1.915  15.194  0.1063  0.0542 -0.4384
   6823SM  H12T 8836   3.557   1.745  15.228 -2.0634  1.2942  0.7559
   6823SM  C13S 8837   3.578   1.790  15.021 -0.4641  0.3594  0.6720
   6823SM  H13S 8838   3.620   1.689  15.009 -3.9420 -1.0578 -1.1597
   6823SM  H13T 8839   3.630   1.864  14.956  0.1197 -0.8197 -0.2325
   6823SM  C14S 8840   3.432   1.774  14.984  0.8320  0.0545  0.0282
   6823SM  H14S 8841   3.397   1.729  15.080  0.5443 -1.2991 -0.6883
   6823SM  H14T 8842   3.429   1.700  14.902  0.9687 -2.2040  1.9348
   6823SM  C15S 8843   3.367   1.905  14.951  0.4117  0.0815 -0.1595
   6823SM  H15S 8844   3.432   1.966  14.885  1.8799 -0.9547  0.2781
   6823SM  H15T 8845   3.343   1.956  15.047  1.2049  0.3216 -0.0849
   6823SM  C16S 8846   3.230   1.896  14.874 -0.0408 -0.0380 -0.1086
   6823SM  H16S 8847   3.161   1.849  14.948  1.0761 -1.8255 -0.1301
   6823SM  H16T 8848   3.244   1.827  14.788  2.3688 -0.2744  0.3993
   6823SM  C17S 8849   3.165   2.028  14.829  0.9390 -0.3392  0.0995
   6823SM  H17S 8850   3.056   2.010  14.825  1.0181 -0.6378 -0.9056
   6823SM  H17T 8851   3.193   2.056  14.725 -0.5988  1.0039  0.0255
   6823SM  C18S 8852   3.195   2.150  14.916  0.5816 -0.0455 -0.0055
   6823SM  H18S 8853   3.173   2.126  15.022 -0.7954 -0.8836 -0.4594
   6823SM  H18T 8854   3.141   2.238  14.875 -1.5129 -2.2113 -2.2231
   6823SM  H18U 8855   3.304   2.169  14.899  0.8358  0.1622  1.6825
   6823SM   C1F 8856   3.828   2.310  15.683  0.1579 -0.4298  0.4860
   6823SM    OF 8857   3.904   2.400  15.656 -0.3487 -0.4940 -0.1732
   6823SM   C2F 8858   3.694   2.297  15.617 -0.2447  0.3214 -0.1775
   6823SM   H2F 8859   3.644   2.395  15.602 -1.3161 -0.3646 -1.3411
   6823SM   H2G 8860   3.633   2.222  15.671  2.3841 -0.0453  2.5442
   6823SM   C3F 8861   3.713   2.244  15.465  0.1048  0.0220 -0.3259
   6823SM   H3F 8862   3.752   2.140  15.464 -1.9784 -0.8057 -0.0993
   6823SM   H3G 8863   3.784   2.318  15.422 -0.0132  2.1817  2.8594
   6823SM   C4F 8864   3.583   2.239  15.385 -0.5801  0.1053 -0.6478
   6823SM   H4F 8865   3.615   2.217  15.281  0.9370  1.4758 -0.5074
   6823SM   H4G 8866   3.538   2.340  15.389 -0.4118  0.1838 -0.7850
   6823SM   C5F 8867   3.469   2.149  15.443 -0.3291  0.2860  0.7075
   6823SM   H5F 8868   3.460   2.180  15.550 -2.4674  0.1680  0.6049
   6823SM   H5G 8869   3.501   2.043  15.435 -0.3059  0.4173 -1.2808
   6823SM   C6F 8870   3.339   2.180  15.362 -0.2985  0.7883  0.8640
   6823SM   H6F 8871   3.360   2.192  15.253  0.0436 -0.0154  0.8375
   6823SM   H6G 8872   3.318   2.286  15.389 -1.0687  1.2309 -1.2661
   6823SM   C7F 8873   3.213   2.105  15.414 -0.7257  0.4874 -0.5700
   6823SM   H7F 8874   3.124   2.162  15.379 -1.4672 -0.3580 -0.0946
   6823SM   H7G 8875   3.213   2.099  15.525 -0.7896  0.4476 -0.5726
   6823SM   C8F 8876   3.200   1.965  15.345 -0.0248 -0.0852  0.0523
   6823SM   H8F 8877   3.287   1.901  15.373 -0.2803 -0.7965 -0.7324
   6823SM   H8G 8878   3.214   1.974  15.235  3.6019 -1.7429  0.2512
   6823SM   C9F 8879   3.074   1.886  15.394 -0.3549  0.2350  0.1169
   6823SM   H9F 8880   2.982   1.932  15.354  0.9435  2.0648 -0.9267
   6823SM   H9G 8881   3.069   1.893  15.504  2.3636 -0.2785  0.3504
   6823SM  C10F 8882   3.078   1.731  15.356  1.0154  0.0425 -0.4665
   6823SM  H10F 8883   2.981   1.683  15.383  0.5775  1.1555  0.0388
   6823SM  H10G 8884   3.147   1.688  15.432 -0.8886  1.1580  2.0558
   6823SM  C11F 8885   3.096   1.698  15.204 -0.6475 -0.3066 -0.5904
   6823SM  H11F 8886   3.196   1.734  15.171  0.0718 -0.2546  1.4805
   6823SM  H11G 8887   3.020   1.760  15.152  0.2311 -1.3806 -3.3050
   6823SM  C12F 8888   3.090   1.550  15.166  0.1411  0.3615 -0.1609
   6823SM  H12F 8889   2.998   1.516  15.218  1.5944 -1.2974  1.4596
   6823SM  H12G 8890   3.180   1.502  15.209  0.3232 -0.0017 -0.9207
   6823SM  C13F 8891   3.095   1.525  15.011 -0.4325 -0.8409  0.1505
   6823SM  H13F 8892   3.111   1.416  14.998 -2.1559 -0.9283 -1.7722
   6823SM  H13G 8893   3.194   1.567  14.982 -0.0826 -0.9977  1.1011
   6823SM  C14F 8894   2.966   1.578  14.941 -0.2672  0.6888 -0.2892
   6823SM  H14F 8895   2.972   1.689  14.945  0.0844  0.6355  1.5592
   6823SM  H14G 8896   2.880   1.540  15.000  1.7743 -0.6952  2.0098
   6823SM  C15F 8897   2.951   1.524  14.804  0.2026 -0.1880  0.5219
   6823SM  H15F 8898   2.947   1.415  14.827 -1.7747 -0.3383 -0.2764
   6823SM  H15G 8899   3.043   1.534  14.744 -1.2018 -1.8992 -2.1053
   6823SM  C16F 8900   2.834   1.572  14.720 -1.0333 -0.2973  0.1854
   6823SM  H16F 8901   2.846   1.678  14.687 -1.6168 -0.5156 -0.7709
   6823SM  H16G 8902   2.738   1.574  14.776 -1.4582 -2.5499 -0.3605
   6823SM  C17F 8903   2.797   1.482  14.603  0.2868  0.0029  0.1218
   6823SM  H17F 8904   2.721   1.532  14.539  0.2410  0.0671  0.2286
   6823SM  H17G 8905   2.746   1.396  14.652  1.1920 -0.6492 -0.0544
   6823SM  C18F 8906   2.910   1.449  14.503  0.7564 -0.4039 -0.5685
   6823SM  H18F 8907   2.982   1.384  14.558  0.8837  1.7083  1.9199
   6823SM  H18G 8908   2.955   1.549  14.486 -1.5922  0.3274 -3.3117
   6823SM  C19F 8909   2.853   1.375  14.384  0.7411  0.0305 -0.1005
   6823SM  H19F 8910   2.759   1.422  14.348  0.2791 -0.8736 -0.1055
   6823SM  H19G 8911   2.835   1.267  14.408  2.8262 -0.3842 -0.2418
   6823SM  C20F 8912   2.950   1.378  14.268 -0.1382 -0.2073  0.3089
   6823SM  H20F 8913   3.048   1.352  14.312  0.3927  0.3319 -0.5356
   6823SM  H20G 8914   2.968   1.479  14.225 -0.8255 -1.1634 -2.4078
   6823SM  C21F 8915   2.916   1.278  14.148  0.4938 -0.9052  0.4057
   6823SM  H21F 8916   2.858   1.330  14.069  2.4248  0.9160  0.0939
   6823SM  H21G 8917   2.849   1.196  14.181 -0.1223 -1.2061 -1.4443
   6823SM  C22F 8918   3.027   1.196  14.090  0.2594 -0.3981 -0.0412
   6823SM  H22F 8919   2.990   1.109  14.031  0.0072 -0.8827  0.8067
   6823SM  H22G 8920   3.095   1.158  14.170  1.9113  2.3305 -0.0480
   6823SM  C23F 8921   3.109   1.280  13.995 -0.6026 -0.8918  0.2275
   6823SM  H23F 8922   3.176   1.227  13.924 -0.8104  0.3695 -0.9564
   6823SM  H23G 8923   3.163   1.353  14.060  1.5780 -1.4321 -0.8745
   6823SM  H23H 8924   3.036   1.335  13.931  1.3307  1.0061 -0.4919
   6923SM     N 8925   5.099   3.732  16.800 -0.1954 -0.2264  0.5938
   6923SM   C15 8926   5.105   3.845  16.903  0.2834  0.3929  0.2902
   6923SM  H15A 8927   5.160   3.809  16.988  1.1799 -1.6673 -1.0781
   6923SM  H15B 8928   5.011   3.872  16.950 -0.3606  2.9197 -2.1455
   6923SM  H15C 8929   5.147   3.940  16.872  1.2044  0.2155  0.9764
   6923SM   C14 8930   5.239   3.682  16.761  0.6490 -0.2207  0.4353
   6923SM  H14A 8931   5.301   3.647  16.843 -0.6809  0.6108  1.8519
   6923SM  H14B 8932   5.303   3.760  16.722  0.8942 -1.0703 -0.9262
   6923SM  H14C 8933   5.237   3.611  16.680  1.3831  0.2586 -0.0125
   6923SM   C13 8934   5.033   3.615  16.855  0.2027  0.0416 -0.7341
   6923SM  H13A 8935   4.938   3.643  16.897 -0.4162 -1.5694 -1.0055
   6923SM  H13B 8936   5.083   3.565  16.937 -2.1692  0.8624  1.3146
   6923SM  H13C 8937   5.008   3.546  16.776  0.0191  1.3777 -1.8952
   6923SM   C12 8938   5.025   3.784  16.679  0.3330 -0.6498 -0.3634
   6923SM  H12A 8939   5.071   3.878  16.649  1.5329 -0.8807  0.6750
   6923SM  H12B 8940   4.920   3.795  16.701  0.7142 -0.6869  1.5730
   6923SM   C11 8941   5.039   3.695  16.550 -0.8962 -0.4717 -0.6786
   6923SM  H11A 8942   4.963   3.615  16.563  0.0179 -1.5194 -1.5497
   6923SM  H11B 8943   5.143   3.656  16.539  0.7888  2.8121  1.8471
   6923SM     P 8944   5.109   3.889  16.376  0.1072  0.3833 -0.0676
   6923SM   O13 8945   5.040   3.972  16.274 -0.2723 -0.3756 -0.1736
   6923SM   O14 8946   5.188   3.960  16.473  0.7050 -0.8660 -0.3257
   6923SM   O11 8947   5.198   3.781  16.298  0.0884 -0.2580 -0.1136
   6923SM   O12 8948   5.011   3.790  16.445  0.2862 -0.6597 -0.1530
   6923SM   C1S 8949   5.139   3.664  16.227  0.1796  0.6414 -0.1590
   6923SM   H1S 8950   5.029   3.657  16.244  0.2882 -2.9483 -0.3429
   6923SM   H1T 8951   5.193   3.573  16.260  1.4279  2.2025  2.4911
   6923SM    NF 8952   5.078   3.548  16.011 -1.0440 -0.3216  0.6791
   6923SM   HNF 8953   5.144   3.479  15.982  2.1258  3.1943 -1.4150
   6923SM   C2S 8954   5.151   3.659  16.072  0.7162 -0.2897 -0.2609
   6923SM   H2S 8955   5.096   3.750  16.039  0.0934 -0.9255 -1.0156
   6923SM   C3S 8956   5.294   3.677  16.026  0.9144 -0.2515 -0.1196
   6923SM   H3S 8957   5.352   3.600  16.081  1.4356  1.1419  1.3595
   6923SM    O3 8958   5.346   3.801  16.065  0.2321  0.4912 -0.3540
   6923SM   HO3 8959   5.336   3.821  16.158 -0.3192  1.8771 -0.6814
   6923SM   C4S 8960   5.320   3.665  15.881 -0.1828  0.7758 -0.5395
   6923SM   H4S 8961   5.239   3.700  15.815 -0.9133  0.3127  0.0834
   6923SM   C5S 8962   5.422   3.593  15.832 -0.7088  0.3865  0.0497
   6923SM   H5S 8963   5.502   3.557  15.898 -0.9095 -1.4566 -0.6729
   6923SM   C6S 8964   5.439   3.545  15.681 -0.2278  0.0132 -0.1288
   6923SM   H6S 8965   5.523   3.605  15.640  1.3371 -2.5642 -0.9315
   6923SM   H6T 8966   5.350   3.565  15.617  2.2009  0.4457 -3.6197
   6923SM   C7S 8967   5.492   3.408  15.664 -0.0686 -0.6300 -0.3894
   6923SM   H7S 8968   5.419   3.338  15.710 -0.1864 -0.0857  0.2721
   6923SM   H7T 8969   5.587   3.393  15.720 -1.3598  0.2494  2.1854
   6923SM   C8S 8970   5.500   3.362  15.516  0.5290 -0.2236  0.0877
   6923SM   H8S 8971   5.398   3.383  15.479  0.6226 -1.0548 -0.6645
   6923SM   H8T 8972   5.504   3.251  15.520 -0.0417 -0.3640 -2.1050
   6923SM   C9S 8973   5.620   3.412  15.445  0.8932  0.3979 -0.0023
   6923SM   H9S 8974   5.713   3.383  15.498  0.8417 -0.5292 -0.4161
   6923SM   H9T 8975   5.620   3.523  15.450  0.3063  0.4435 -0.8254
   6923SM  C10S 8976   5.622   3.360  15.304  0.2613  0.2511  0.5456
   6923SM  H10S 8977   5.686   3.428  15.244 -1.9247  1.3684 -0.6466
   6923SM  H10T 8978   5.522   3.384  15.263  1.3343  1.9707 -1.1908
   6923SM  C11S 8979   5.657   3.217  15.283  0.1712  0.3365 -0.2489
   6923SM  H11S 8980   5.585   3.150  15.335  0.8998  0.3723  0.8456
   6923SM  H11T 8981   5.756   3.199  15.331 -0.6999 -0.0037  1.4835
   6923SM  C12S 8982   5.662   3.183  15.129  0.0856 -0.0623  0.2522
   6923SM  H12S 8983   5.728   3.260  15.083 -0.6990 -0.4566 -1.6312
   6923SM  H12T 8984   5.557   3.186  15.093  0.5007 -0.9800 -1.1242
   6923SM  C13S 8985   5.702   3.040  15.097 -0.4038 -1.3035  0.4461
   6923SM  H13S 8986   5.617   2.977  15.130 -0.6985 -0.5968  1.0722
   6923SM  H13T 8987   5.794   3.026  15.157 -0.3507  0.0137  0.7058
   6923SM  C14S 8988   5.726   3.009  14.946 -0.2278  1.0686 -0.6764
   6923SM  H14S 8989   5.820   3.063  14.919  1.4417 -1.7461 -0.8458
   6923SM  H14T 8990   5.648   3.052  14.880 -1.3951  1.1081  0.6789
   6923SM  C15S 8991   5.752   2.863  14.909  0.3056  0.2724  0.2961
   6923SM  H15S 8992   5.658   2.806  14.922  0.1760  0.1574 -0.9974
   6923SM  H15T 8993   5.827   2.806  14.968  1.0113 -2.0052 -2.5628
   6923SM  C16S 8994   5.798   2.846  14.765  0.0777 -0.3455 -0.1189
   6923SM  H16S 8995   5.902   2.885  14.764 -0.5457  1.4229  0.8789
   6923SM  H16T 8996   5.742   2.911  14.695  0.8568 -1.9365 -2.3442
   6923SM  C17S 8997   5.796   2.703  14.706  0.3622 -0.6900  0.1329
   6923SM  H17S 8998   5.689   2.675  14.693  0.1038  0.0772  0.5185
   6923SM  H17T 8999   5.837   2.631  14.780 -1.6078  0.0770  2.0807
   6923SM  C18S 9000   5.875   2.695  14.578 -0.3269 -0.4430  0.8987
   6923SM  H18S 9001   5.860   2.602  14.519 -1.4332  0.4766 -0.3202
   6923SM  H18T 9002   5.984   2.701  14.598 -0.0913 -1.1450 -0.0730
   6923SM  H18U 9003   5.856   2.775  14.504  2.1679 -0.0597  0.5949
   6923SM   C1F 9004   4.947   3.523  16.009 -0.0561  0.1572 -1.0202
   6923SM    OF 9005   4.867   3.599  16.066 -0.3580  0.5679  0.7415
   6923SM   C2F 9006   4.887   3.395  15.950  0.4522  0.1250 -0.0532
   6923SM   H2F 9007   4.784   3.423  15.918 -0.5860  0.1511  3.0400
   6923SM   H2G 9008   4.872   3.310  16.019 -0.4539  0.1598 -0.2038
   6923SM   C3F 9009   4.974   3.337  15.836 -0.2776 -0.0558  0.8092
   6923SM   H3F 9010   4.919   3.244  15.808  1.0070 -0.7645  0.5296
   6923SM   H3G 9011   5.074   3.304  15.872 -0.3265  0.1329  1.1154
   6923SM   C4F 9012   4.984   3.433  15.715 -0.6949  0.3880 -0.3634
   6923SM   H4F 9013   5.019   3.532  15.749  1.5153  0.2614 -2.0378
   6923SM   H4G 9014   4.877   3.435  15.687 -0.6888 -0.8934 -0.5612
   6923SM   C5F 9015   5.066   3.383  15.592 -0.8032  0.8758 -0.1814
   6923SM   H5F 9016   5.027   3.289  15.548 -0.1003  1.4441 -2.1309
   6923SM   H5G 9017   5.169   3.361  15.627 -0.9132  1.8736  0.8549
   6923SM   C6F 9018   5.058   3.490  15.481 -0.6919  0.1285  0.4040
   6923SM   H6F 9019   5.102   3.578  15.532  0.2492 -0.0750 -0.0334
   6923SM   H6G 9020   4.953   3.505  15.451 -0.3273 -0.4806 -1.2637
   6923SM   C7F 9021   5.148   3.454  15.359 -0.3254  0.1165 -0.0019
   6923SM   H7F 9022   5.161   3.345  15.345  1.5659  0.3160 -0.0729
   6923SM   H7G 9023   5.255   3.482  15.376  0.4515 -1.8606 -1.2443
   6923SM   C8F 9024   5.106   3.528  15.230  0.0040 -0.2126  0.2478
   6923SM   H8F 9025   5.114   3.638  15.247  0.3397  0.1001 -1.6925
   6923SM   H8G 9026   4.998   3.512  15.210  0.0332  2.3522 -2.8891
   6923SM   C9F 9027   5.185   3.492  15.101 -0.1513 -1.0521 -0.2940
   6923SM   H9F 9028   5.291   3.476  15.131 -0.0447 -0.3318 -0.2675
   6923SM   H9G 9029   5.192   3.587  15.045 -0.6664 -0.1105  1.1763
   6923SM  C10F 9030   5.130   3.376  15.019 -0.0022  0.2547  0.0893
   6923SM  H10F 9031   5.028   3.398  14.981  0.7501  1.3651 -1.3512
   6923SM  H10G 9032   5.129   3.284  15.082  0.7173 -0.4425 -0.8787
   6923SM  C11F 9033   5.208   3.337  14.894 -0.1429  0.9769  0.1405
   6923SM  H11F 9034   5.311   3.306  14.923 -0.8090 -0.0219  1.5304
   6923SM  H11G 9035   5.212   3.426  14.827 -0.4053  2.2384  1.7489
   6923SM  C12F 9036   5.136   3.230  14.807 -0.8826 -0.4439  0.0011
   6923SM  H12F 9037   5.124   3.145  14.878 -1.9639 -0.0880  0.2708
   6923SM  H12G 9038   5.194   3.202  14.717 -2.3603 -2.0443 -0.5064
   6923SM  C13F 9039   4.994   3.259  14.752 -0.0218  0.9650 -0.1539
   6923SM  H13F 9040   4.926   3.265  14.840 -0.1433 -1.1822 -0.0421
   6923SM  H13G 9041   4.965   3.161  14.707  0.0756 -0.0965  1.9298
   6923SM  C14F 9042   4.977   3.379  14.655  0.6497  0.5593 -0.6669
   6923SM  H14F 9043   5.048   3.371  14.570  2.0992  1.9847  0.3603
   6923SM  H14G 9044   4.987   3.474  14.712 -0.1849  1.1956 -1.5247
   6923SM  C15F 9045   4.835   3.383  14.589 -0.1148 -0.3567 -0.1530
   6923SM  H15F 9046   4.750   3.404  14.658  0.3048  2.1423 -0.2773
   6923SM  H15G 9047   4.815   3.286  14.539  1.3081 -0.4972 -0.4713
   6923SM  C16F 9048   4.825   3.497  14.485 -0.2816 -0.2271  0.0324
   6923SM  H16F 9049   4.912   3.490  14.415 -1.0490 -1.4820 -0.8457
   6923SM  H16G 9050   4.842   3.595  14.535  5.0374  0.8277 -3.0349
   6923SM  C17F 9051   4.694   3.492  14.403 -0.0094 -0.2545  0.1122
   6923SM  H17F 9052   4.603   3.512  14.463 -0.9978 -1.2927 -0.9878
   6923SM  H17G 9053   4.678   3.391  14.359  0.0416 -0.1762 -0.0896
   6923SM  C18F 9054   4.696   3.585  14.282 -0.5578 -0.5380 -0.0566
   6923SM  H18F 9055   4.803   3.584  14.252 -0.2551 -1.3766  0.9706
   6923SM  H18G 9056   4.667   3.689  14.312 -1.0275 -0.6305 -0.1769
   6923SM  C19F 9057   4.601   3.547  14.167  0.1577 -0.1083  0.0021
   6923SM  H19F 9058   4.505   3.509  14.208  0.0850  0.0435 -0.0278
   6923SM  H19G 9059   4.648   3.464  14.109  0.0727  0.0944 -0.3564
   6923SM  C20F 9060   4.581   3.661  14.070  0.0607 -0.1384 -0.0586
   6923SM  H20F 9061   4.672   3.706  14.025  0.9482 -2.9126 -1.2314
   6923SM  H20G 9062   4.537   3.749  14.122 -0.4847  0.0477 -0.8225
   6923SM  C21F 9063   4.468   3.628  13.962  0.3830 -0.2770  0.0289
   6923SM  H21F 9064   4.394   3.566  14.017  0.5519  1.4597  2.3544
   6923SM  H21G 9065   4.512   3.570  13.877 -0.1505 -2.1566  0.9675
   6923SM  C22F 9066   4.398   3.753  13.915  0.0998  0.3314 -0.1100
   6923SM  H22F 9067   4.470   3.825  13.870 -1.2157  0.8493 -1.4840
   6923SM  H22G 9068   4.349   3.795  14.005 -2.5343 -1.2331 -0.6911
   6923SM  C23F 9069   4.282   3.727  13.825 -0.2815  0.6804  0.1163
   6923SM  H23F 9070   4.206   3.807  13.812 -1.3059 -0.2086  0.4632
   6923SM  H23G 9071   4.238   3.632  13.861  1.3792  0.0605  0.6206
   6923SM  H23H 9072   4.313   3.706  13.720  0.4588  1.6266  0.1345
   7023SM     N 9073   4.116   1.606  16.453 -0.4821 -0.4448 -0.1332
   7023SM   C15 9074   4.074   1.471  16.402  0.1591 -0.4237 -0.3146
   7023SM  H15A 9075   4.160   1.408  16.387 -0.1333 -1.3263  1.6173
   7023SM  H15B 9076   4.028   1.472  16.304 -1.6751  0.4787  0.5161
   7023SM  H15C 9077   4.001   1.429  16.469  0.6111  1.8001  1.7206
   7023SM   C14 9078   4.001   1.692  16.487  0.0410 -0.3133 -0.0665
   7023SM  H14A 9079   3.934   1.704  16.403  0.2488  2.7048  0.1221
   7023SM  H14B 9080   4.025   1.785  16.536 -1.5179 -0.6056  1.3309
   7023SM  H14C 9081   3.938   1.638  16.556 -1.5971 -0.5416 -1.6640
   7023SM   C13 9082   4.194   1.597  16.581 -0.1910 -0.1115  0.6261
   7023SM  H13A 9083   4.235   1.693  16.609  1.0324 -1.0647  2.3064
   7023SM  H13B 9084   4.268   1.520  16.564 -1.4139 -1.3422  0.6243
   7023SM  H13C 9085   4.121   1.564  16.655 -0.4392 -1.9678 -0.3683
   7023SM   C12 9086   4.201   1.676  16.345 -0.1451  0.1936 -0.3850
   7023SM  H12A 9087   4.228   1.775  16.379  0.4829  0.3099 -1.1871
   7023SM  H12B 9088   4.145   1.688  16.253  3.1575 -0.1236 -2.5873
   7023SM   C11 9089   4.337   1.612  16.312  0.2073  0.7240 -0.1241
   7023SM  H11A 9090   4.397   1.667  16.237  1.4942 -0.1489  0.2142
   7023SM  H11B 9091   4.322   1.507  16.280 -0.4169  0.8373 -0.2093
   7023SM     P 9092   4.542   1.709  16.463  0.1100  0.0251 -0.1276
   7023SM   O13 9093   4.489   1.842  16.509  0.0383  0.1569  0.0835
   7023SM   O14 9094   4.631   1.642  16.561  0.2894  0.3240 -0.0631
   7023SM   O11 9095   4.602   1.728  16.324  0.6201 -0.3837 -0.1248
   7023SM   O12 9096   4.423   1.613  16.428  0.2929 -0.4698 -0.4535
   7023SM   C1S 9097   4.680   1.627  16.254  0.2403 -0.0046  0.3397
   7023SM   H1S 9098   4.632   1.527  16.251 -0.0845  0.1705 -0.8385
   7023SM   H1T 9099   4.781   1.625  16.300 -0.0771  1.1381  1.1258
   7023SM    NF 9100   4.753   1.535  16.040  0.7778  0.4886  0.2643
   7023SM   HNF 9101   4.851   1.551  16.034  0.6412  1.7745  1.0599
   7023SM   C2S 9102   4.686   1.649  16.098 -0.5984  0.1146 -0.1061
   7023SM   H2S 9103   4.580   1.654  16.067 -0.7757 -2.1698 -0.0737
   7023SM   C3S 9104   4.748   1.786  16.063 -0.0126 -0.1594  0.9201
   7023SM   H3S 9105   4.849   1.784  16.110  0.3050 -3.9395  0.3926
   7023SM    O3 9106   4.676   1.892  16.119  0.1421 -0.2976 -0.8708
   7023SM   HO3 9107   4.631   1.842  16.187  0.0918  1.5295  0.5139
   7023SM   C4S 9108   4.753   1.813  15.916  0.1310  0.1655  0.1684
   7023SM   H4S 9109   4.660   1.793  15.861 -0.9189  1.5859  1.3381
   7023SM   C5S 9110   4.864   1.827  15.845 -0.0282  0.3172  0.3337
   7023SM   H5S 9111   4.961   1.830  15.897 -0.4404 -3.4075  1.5586
   7023SM   C6S 9112   4.874   1.840  15.695 -0.2552 -0.0924 -0.0500
   7023SM   H6S 9113   4.772   1.836  15.651 -0.0107  2.5606 -0.9879
   7023SM   H6T 9114   4.940   1.754  15.668  0.5496  0.1540  1.0675
   7023SM   C7S 9115   4.922   1.980  15.648  0.0434  0.0014  0.1210
   7023SM   H7S 9116   5.031   1.982  15.672  0.0993  2.4867 -0.0770
   7023SM   H7T 9117   4.871   2.057  15.709  0.4619 -0.4880  1.1164
   7023SM   C8S 9118   4.881   1.994  15.501  0.0546 -0.4891 -0.4123
   7023SM   H8S 9119   4.776   1.956  15.507 -0.1912  0.2810  0.4688
   7023SM   H8T 9120   4.939   1.922  15.440  1.1394  0.4861 -0.5648
   7023SM   C9S 9121   4.875   2.139  15.450 -0.1472  0.1941  0.2069
   7023SM   H9S 9122   4.802   2.189  15.516 -0.1857  1.2664 -0.6184
   7023SM   H9T 9123   4.834   2.155  15.348 -1.0271  1.0743  0.6888
   7023SM  C10S 9124   5.006   2.216  15.468  0.6836 -0.0542 -0.2046
   7023SM  H10S 9125   5.086   2.171  15.406  0.1215  0.3670 -1.2567
   7023SM  H10T 9126   5.025   2.219  15.577 -0.7030  1.6922  0.0442
   7023SM  C11S 9127   4.987   2.360  15.407 -0.7419  0.2808  0.5405
   7023SM  H11S 9128   4.881   2.388  15.424 -1.7625 -2.5316 -0.5920
   7023SM  H11T 9129   4.999   2.347  15.297 -1.1321 -1.2643  0.6568
   7023SM  C12S 9130   5.086   2.473  15.452 -0.4958  0.3931  0.5180
   7023SM  H12S 9131   5.065   2.576  15.419  1.2353  1.0803  1.4560
   7023SM  H12T 9132   5.181   2.451  15.400 -0.3787  1.2560  0.3636
   7023SM  C13S 9133   5.118   2.489  15.604 -0.2307  0.7442  0.2063
   7023SM  H13S 9134   5.221   2.526  15.623  0.2060 -1.4916  2.8999
   7023SM  H13T 9135   5.103   2.387  15.646 -3.7220  1.2136  0.3982
   7023SM  C14S 9136   5.025   2.575  15.689  0.0482 -0.2236  0.0526
   7023SM  H14S 9137   4.997   2.664  15.629 -0.0093 -0.5848 -0.4620
   7023SM  H14T 9138   5.077   2.600  15.784 -1.0178  1.5475  0.2163
   7023SM  C15S 9139   4.893   2.507  15.720 -0.3993 -0.3611  0.7464
   7023SM  H15S 9140   4.854   2.446  15.635 -2.2053 -0.0762  1.3307
   7023SM  H15T 9141   4.819   2.587  15.743 -0.4178 -0.3394  0.6155
   7023SM  C16S 9142   4.888   2.407  15.837  0.1030 -0.1201  0.0424
   7023SM  H16S 9143   4.936   2.452  15.927  0.1896  0.0267 -0.0775
   7023SM  H16T 9144   4.948   2.323  15.796 -0.0660 -0.2573  0.0743
   7023SM  C17S 9145   4.749   2.364  15.866  0.1601 -0.4575 -0.5251
   7023SM  H17S 9146   4.697   2.342  15.770  1.6462  0.8184 -1.6828
   7023SM  H17T 9147   4.686   2.441  15.915 -1.0788 -0.5054 -1.9605
   7023SM  C18S 9148   4.739   2.237  15.948 -0.0558 -0.4649 -0.0693
   7023SM  H18S 9149   4.766   2.144  15.894 -1.9503 -0.7470 -0.6165
   7023SM  H18T 9150   4.633   2.225  15.979 -0.3758  1.4246 -0.3258
   7023SM  H18U 9151   4.796   2.248  16.043  0.4440 -2.1843 -0.1343
   7023SM   C1F 9152   4.688   1.429  15.994 -1.0110  0.0078  0.2879
   7023SM    OF 9153   4.572   1.424  16.022 -1.0359  0.6897 -0.6844
   7023SM   C2F 9154   4.770   1.321  15.925  0.4256  0.1357 -0.0590
   7023SM   H2F 9155   4.740   1.226  15.973  0.3308  0.5497  0.7141
   7023SM   H2G 9156   4.881   1.335  15.920  0.5121 -0.8531 -1.8773
   7023SM   C3F 9157   4.720   1.318  15.779  0.4227  0.2713  0.1722
   7023SM   H3F 9158   4.624   1.262  15.779  0.8212 -0.4611 -1.4055
   7023SM   H3G 9159   4.794   1.253  15.727  0.7504 -0.3004  1.3030
   7023SM   C4F 9160   4.708   1.451  15.703 -0.6327  0.0819  0.7965
   7023SM   H4F 9161   4.787   1.516  15.748 -0.4425  0.0134  0.5664
   7023SM   H4G 9162   4.608   1.493  15.727 -1.2558 -0.5980 -0.5069
   7023SM   C5F 9163   4.734   1.426  15.553 -0.4455 -0.5917 -0.5679
   7023SM   H5F 9164   4.654   1.358  15.515 -1.6736 -0.7721  2.1057
   7023SM   H5G 9165   4.830   1.373  15.535 -0.2957 -0.0749 -1.3552
   7023SM   C6F 9166   4.734   1.564  15.482  0.0100 -0.4764 -0.5919
   7023SM   H6F 9167   4.810   1.629  15.531  0.0078 -0.4107 -0.6748
   7023SM   H6G 9168   4.633   1.611  15.488 -0.8377 -2.3298  0.6575
   7023SM   C7F 9169   4.772   1.551  15.334 -0.1737  0.2657 -1.1973
   7023SM   H7F 9170   4.850   1.472  15.332  0.8142  1.0815  1.3246
   7023SM   H7G 9171   4.823   1.644  15.302 -1.3495  2.4574  2.6317
   7023SM   C8F 9172   4.657   1.509  15.245  0.0065 -0.3530  0.2312
   7023SM   H8F 9173   4.580   1.589  15.244  1.6128  1.2706 -0.0345
   7023SM   H8G 9174   4.615   1.414  15.286  0.8451 -1.6797 -1.8421
   7023SM   C9F 9175   4.712   1.493  15.103  0.0945  0.1858  0.2608
   7023SM   H9F 9176   4.654   1.405  15.068 -2.9400  1.6732  1.1137
   7023SM   H9G 9177   4.816   1.457  15.115  0.2950  0.7083  0.1367
   7023SM  C10F 9178   4.710   1.598  14.996  0.0228 -0.3861  0.8688
   7023SM  H10F 9179   4.608   1.621  14.961  0.1416 -0.2654  0.6014
   7023SM  H10G 9180   4.761   1.556  14.906  1.2897 -0.3230  1.5294
   7023SM  C11F 9181   4.779   1.723  15.045  0.1264  0.0120 -0.0726
   7023SM  H11F 9182   4.874   1.698  15.097 -0.3884 -1.8321  0.0689
   7023SM  H11G 9183   4.715   1.787  15.109  1.6369  2.1638 -0.6114
   7023SM  C12F 9184   4.812   1.821  14.934 -0.0050  0.3736 -1.0497
   7023SM  H12F 9185   4.713   1.836  14.886 -1.4065 -1.9843  0.9121
   7023SM  H12G 9186   4.876   1.771  14.858  0.8223  0.6187 -0.5320
   7023SM  C13F 9187   4.857   1.963  14.985 -0.7057 -0.6834 -0.3548
   7023SM  H13F 9188   4.783   1.989  15.064 -2.2600 -0.1258 -1.9309
   7023SM  H13G 9189   4.873   2.045  14.912  0.2063 -0.6453 -0.1164
   7023SM  C14F 9190   4.995   1.962  15.046  0.2090 -0.1274  0.3511
   7023SM  H14F 9191   4.999   1.876  15.116  1.2142 -2.1080 -1.9743
   7023SM  H14G 9192   5.010   2.058  15.099  0.5915 -0.8014  1.4864
   7023SM  C15F 9193   5.112   1.934  14.955  0.2652  0.3901 -0.2119
   7023SM  H15F 9194   5.099   1.986  14.858  1.6465 -0.6457 -0.9963
   7023SM  H15G 9195   5.110   1.825  14.931 -2.7831  0.7571 -2.1209
   7023SM  C16F 9196   5.253   1.967  15.006 -0.1573  0.4886 -0.2847
   7023SM  H16F 9197   5.272   1.913  15.101 -5.2440  1.0865  1.3411
   7023SM  H16G 9198   5.258   2.072  15.044 -1.1027  0.6461 -0.5830
   7023SM  C17F 9199   5.363   1.943  14.902  0.0892 -0.1109 -0.9775
   7023SM  H17F 9200   5.333   1.988  14.806  0.3274  0.0627 -0.9713
   7023SM  H17G 9201   5.378   1.832  14.900 -1.0755 -0.3491  0.9688
   7023SM  C18F 9202   5.490   2.022  14.946  0.1780 -0.2773  0.3769
   7023SM  H18F 9203   5.521   1.991  15.048 -0.0022 -0.8360  0.2665
   7023SM  H18G 9204   5.453   2.126  14.956  0.0883 -0.3430  0.7640
   7023SM  C19F 9205   5.618   2.019  14.863 -0.5701 -0.1741 -0.2453
   7023SM  H19F 9206   5.648   1.912  14.853  2.4068  0.0505  3.6711
   7023SM  H19G 9207   5.697   2.075  14.917 -3.6958  1.6601  2.8648
   7023SM  C20F 9208   5.606   2.081  14.727  0.3076 -0.7876  0.4692
   7023SM  H20F 9209   5.501   2.076  14.691  1.1496 -0.0003 -2.3298
   7023SM  H20G 9210   5.658   2.025  14.647 -1.6898  1.5294 -2.6778
   7023SM  C21F 9211   5.645   2.236  14.733  0.0327  0.4616  0.3871
   7023SM  H21F 9212   5.750   2.232  14.769  0.4291  1.4064 -0.6081
   7023SM  H21G 9213   5.565   2.283  14.793 -0.9074 -0.8738  0.2400
   7023SM  C22F 9214   5.649   2.301  14.591  0.3979 -0.0243 -0.6570
   7023SM  H22F 9215   5.607   2.404  14.597 -0.2532 -0.3638  2.9946
   7023SM  H22G 9216   5.559   2.258  14.542  0.3843 -0.1380 -0.5343
   7023SM  C23F 9217   5.771   2.274  14.501 -0.6634 -0.5802  0.5110
   7023SM  H23F 9218   5.805   2.169  14.513 -0.8561 -0.5598  1.2590
   7023SM  H23G 9219   5.853   2.346  14.522 -2.0182  1.1018  0.3151
   7023SM  H23H 9220   5.746   2.292  14.394 -0.4817  1.8910  0.8207
   7123SM     N 9221   5.232   0.171  16.674  0.4799 -0.3583  0.6583
   7123SM   C15 9222   5.110   0.080  16.681  0.0329 -0.2678  0.4483
   7123SM  H15A 9223   5.084   0.063  16.578 -0.5523  1.4352  0.2861
   7123SM  H15B 9224   5.026   0.127  16.730  1.1716  0.5257  1.7291
   7123SM  H15C 9225   5.134  -0.013  16.730 -2.9217 -0.8214  1.0430
   7123SM   C14 9226   5.181   0.318  16.664 -0.2640  0.8600  0.8249
   7123SM  H14A 9227   5.142   0.350  16.760  3.1003  1.8803  1.9978
   7123SM  H14B 9228   5.103   0.323  16.590 -0.0585 -0.7706  0.4550
   7123SM  H14C 9229   5.268   0.376  16.638  0.4527 -1.2928 -2.0181
   7123SM   C13 9230   5.310   0.156  16.803 -0.2918  0.0344  0.0156
   7123SM  H13A 9231   5.242   0.159  16.887 -1.0378  1.6391 -0.6059
   7123SM  H13B 9232   5.376   0.241  16.811 -0.2626  0.1042 -0.8485
   7123SM  H13C 9233   5.377   0.071  16.795 -0.1251  0.1338  0.3757
   7123SM   C12 9234   5.321   0.135  16.552 -0.3977 -0.1393 -0.1245
   7123SM  H12A 9235   5.350   0.032  16.564  3.1640  0.7928  0.4293
   7123SM  H12B 9236   5.413   0.188  16.574 -1.9621  2.3005  1.1201
   7123SM   C11 9237   5.268   0.175  16.413  0.4406  0.2801 -0.1815
   7123SM  H11A 9238   5.346   0.151  16.337  0.6983 -0.9938  0.4601
   7123SM  H11B 9239   5.259   0.283  16.389 -1.4771  0.2593  0.3031
   7123SM     P 9240   5.032   0.168  16.301 -0.6151 -0.0728 -0.5364
   7123SM   O13 9241   4.938   0.060  16.283  0.1137  0.3940  0.5665
   7123SM   O14 9242   4.970   0.290  16.356 -0.2109  0.1746  0.5458
   7123SM   O11 9243   5.118   0.213  16.174  0.3256  0.6821  0.3576
   7123SM   O12 9244   5.149   0.105  16.390 -0.1346  0.0068 -0.5996
   7123SM   C1S 9245   5.111   0.134  16.058  0.7160 -0.2790  0.3438
   7123SM   H1S 9246   5.010   0.135  16.012  1.4160  1.2568 -1.2801
   7123SM   H1T 9247   5.140   0.030  16.081 -0.8227 -1.1304 -1.3824
   7123SM    NF 9248   5.188   0.085  15.837  0.3169  0.4906 -0.2005
   7123SM   HNF 9249   5.255   0.012  15.825 -0.9236 -0.4384 -1.8693
   7123SM   C2S 9250   5.209   0.179  15.943 -0.3850 -0.3330 -0.4616
   7123SM   H2S 9251   5.174   0.276  15.901 -2.0345 -0.7518 -0.1339
   7123SM   C3S 9252   5.356   0.197  15.998 -0.3652 -0.6254 -0.7683
   7123SM   H3S 9253   5.384   0.100  16.044  0.1552  0.1946  0.7572
   7123SM    O3 9254   5.366   0.292  16.100  0.0960  0.4354  0.0380
   7123SM   HO3 9255   5.280   0.288  16.141  0.7530 -4.0974  1.4696
   7123SM   C4S 9256   5.447   0.243  15.894 -0.6673  0.6862 -0.6541
   7123SM   H4S 9257   5.421   0.339  15.847  0.5271  0.5802 -1.5665
   7123SM   C5S 9258   5.563   0.183  15.853  0.1296  0.2910  0.0555
   7123SM   H5S 9259   5.600   0.094  15.906 -0.3603  0.4508  0.6723
   7123SM   C6S 9260   5.648   0.235  15.739 -0.1749  0.1984 -0.1339
   7123SM   H6S 9261   5.678   0.148  15.676  0.4172 -0.7788  1.4437
   7123SM   H6T 9262   5.741   0.282  15.778  0.0219 -1.5497  1.6502
   7123SM   C7S 9263   5.588   0.335  15.635 -0.7980 -0.3725 -0.3713
   7123SM   H7S 9264   5.561   0.425  15.694  1.2555  0.6438 -0.8712
   7123SM   H7T 9265   5.491   0.293  15.600 -1.4130  0.4721  0.2837
   7123SM   C8S 9266   5.677   0.366  15.519 -0.0004  0.2773 -0.4826
   7123SM   H8S 9267   5.676   0.274  15.456 -2.5939  1.7115 -2.7886
   7123SM   H8T 9268   5.773   0.406  15.556 -0.0565 -0.3724  0.3859
   7123SM   C9S 9269   5.616   0.475  15.430 -0.0425 -0.1942 -0.4744
   7123SM   H9S 9270   5.615   0.561  15.500 -0.7300 -0.9459  0.4615
   7123SM   H9T 9271   5.516   0.434  15.404 -0.5988  1.0078 -0.2878
   7123SM  C10S 9272   5.702   0.504  15.303  0.2466  0.2789 -0.5913
   7123SM  H10S 9273   5.804   0.514  15.346 -1.0242  2.3904  2.2607
   7123SM  H10T 9274   5.672   0.603  15.263  0.6889  0.6740  0.0463
   7123SM  C11S 9275   5.701   0.396  15.194 -0.3619 -0.4578  0.4741
   7123SM  H11S 9276   5.723   0.295  15.236 -2.6807 -0.0973  2.8170
   7123SM  H11T 9277   5.785   0.412  15.123 -0.5700 -0.4075  0.2388
   7123SM  C12S 9278   5.567   0.383  15.113 -0.4607 -0.1562  0.4189
   7123SM  H12S 9279   5.562   0.480  15.059  1.6925 -0.0241  0.3701
   7123SM  H12T 9280   5.485   0.380  15.187  2.7509 -0.1685  4.3336
   7123SM  C13S 9281   5.561   0.250  15.032 -0.0531  0.3410  0.2114
   7123SM  H13S 9282   5.537   0.162  15.095 -0.3276  0.5137  0.3487
   7123SM  H13T 9283   5.663   0.245  14.988 -0.3940  0.8998 -0.6637
   7123SM  C14S 9284   5.447   0.252  14.928 -0.2889  0.1554  0.4265
   7123SM  H14S 9285   5.445   0.331  14.850  1.0071 -0.5069 -0.3047
   7123SM  H14T 9286   5.356   0.259  14.991 -0.4780 -2.9104  0.6573
   7123SM  C15S 9287   5.431   0.118  14.850  0.1767 -0.2109  0.1967
   7123SM  H15S 9288   5.337   0.137  14.795  0.1202  1.6204  0.8614
   7123SM  H15T 9289   5.416   0.026  14.912  0.5963 -1.8521 -2.0313
   7123SM  C16S 9290   5.541   0.086  14.739  0.4894  0.6218  0.0607
   7123SM  H16S 9291   5.627   0.039  14.791  0.6211  2.5627  1.7527
   7123SM  H16T 9292   5.568   0.184  14.694 -1.8009  1.3419  0.1599
   7123SM  C17S 9293   5.473  -0.001  14.635  0.6298 -0.9750 -0.1430
   7123SM  H17S 9294   5.545  -0.011  14.551  1.6385  2.5273  0.1255
   7123SM  H17T 9295   5.381   0.053  14.602  0.5215 -1.6973 -1.0503
   7123SM  C18S 9296   5.432  -0.143  14.679  0.7146  0.1868 -0.4355
   7123SM  H18S 9297   5.524  -0.192  14.715  1.0585  1.1431  0.0347
   7123SM  H18T 9298   5.388  -0.197  14.592  0.8097  1.1816 -1.1251
   7123SM  H18U 9299   5.354  -0.150  14.758  1.4820  0.3702  0.3435
   7123SM   C1F 9300   5.084   0.078  15.754  0.0973  0.6665 -0.1703
   7123SM    OF 9301   4.992   0.160  15.764  0.8034  0.1356 -0.7323
   7123SM   C2F 9302   5.086  -0.037  15.649  0.0633 -0.1846  0.5015
   7123SM   H2F 9303   5.164  -0.114  15.666 -0.6455 -1.1334 -0.3675
   7123SM   H2G 9304   5.105   0.011  15.551  0.2413 -2.1272 -0.4503
   7123SM   C3F 9305   4.951  -0.102  15.641  0.0724 -0.1067 -0.3123
   7123SM   H3F 9306   4.862  -0.035  15.642  0.5505  0.7056  3.4197
   7123SM   H3G 9307   4.949  -0.167  15.731  3.4137  2.7358  2.0849
   7123SM   C4F 9308   4.936  -0.206  15.525 -0.8657 -0.2070 -0.1110
   7123SM   H4F 9309   4.858  -0.280  15.552 -0.8258  0.2373  1.3351
   7123SM   H4G 9310   5.030  -0.265  15.512  0.6861  2.4771 -2.2230
   7123SM   C5F 9311   4.905  -0.140  15.386 -0.3280 -0.1330  0.3467
   7123SM   H5F 9312   4.994  -0.086  15.349  1.5121 -2.7534  0.6465
   7123SM   H5G 9313   4.811  -0.082  15.401 -1.9416 -2.7449  1.1227
   7123SM   C6F 9314   4.867  -0.246  15.277  0.0055 -0.1651 -0.2550
   7123SM   H6F 9315   4.820  -0.330  15.333  1.8665 -0.8625  0.3565
   7123SM   H6G 9316   4.957  -0.292  15.230 -0.0409 -1.4015  0.7974
   7123SM   C7F 9317   4.776  -0.174  15.173 -0.7447  0.0773 -0.5193
   7123SM   H7F 9318   4.833  -0.105  15.108  1.3696 -0.5700  0.5603
   7123SM   H7G 9319   4.701  -0.123  15.238 -0.7256  1.8786 -1.8496
   7123SM   C8F 9320   4.705  -0.276  15.080  0.3308  0.3862 -0.0371
   7123SM   H8F 9321   4.653  -0.357  15.134 -2.4867  1.8022 -0.4305
   7123SM   H8G 9322   4.784  -0.324  15.017 -0.5805 -1.7168  0.3563
   7123SM   C9F 9323   4.598  -0.206  14.993  0.0584  0.3310  0.1496
   7123SM   H9F 9324   4.650  -0.141  14.919  0.0263 -0.0986 -0.2528
   7123SM   H9G 9325   4.543  -0.131  15.054  1.4980  1.6650 -0.1396
   7123SM  C10F 9326   4.508  -0.308  14.922 -0.2074  0.2942 -0.1854
   7123SM  H10F 9327   4.435  -0.350  14.994  1.8695  0.4573  2.1833
   7123SM  H10G 9328   4.576  -0.390  14.890 -2.5492 -0.8949 -2.3976
   7123SM  C11F 9329   4.420  -0.258  14.810  0.4107  0.7558 -0.4008
   7123SM  H11F 9330   4.474  -0.197  14.734  1.6797  1.5947  1.1119
   7123SM  H11G 9331   4.338  -0.192  14.846 -0.7089 -0.6650 -0.2883
   7123SM  C12F 9332   4.355  -0.378  14.742 -0.3165 -0.6874 -0.6241
   7123SM  H12F 9333   4.288  -0.430  14.814 -1.5146 -0.1453 -1.3144
   7123SM  H12G 9334   4.437  -0.442  14.703  0.4001 -0.6181  0.7231
   7123SM  C13F 9335   4.266  -0.326  14.628  0.5507  0.6704 -0.2564
   7123SM  H13F 9336   4.323  -0.260  14.560  1.2799 -1.0619 -1.4099
   7123SM  H13G 9337   4.174  -0.280  14.668 -0.7309 -2.7261  1.1195
   7123SM  C14F 9338   4.234  -0.445  14.529 -0.7823 -0.7654  0.1024
   7123SM  H14F 9339   4.328  -0.497  14.498  0.3562 -0.0630  2.2073
   7123SM  H14G 9340   4.185  -0.404  14.438  0.5385 -0.3956 -0.4754
   7123SM  C15F 9341   4.139  -0.551  14.587 -0.3057 -0.4974 -0.3551
   7123SM  H15F 9342   4.034  -0.516  14.577 -0.1520  0.4164  1.0048
   7123SM  H15G 9343   4.157  -0.566  14.696  0.5118 -0.1932 -0.4431
   7123SM  C16F 9344   4.155  -0.701  14.539  0.8864  0.4341 -0.0880
   7123SM  H16F 9345   4.081  -0.772  14.582  1.8764 -0.1323  0.7091
   7123SM  H16G 9346   4.259  -0.725  14.568  0.4155 -0.0542  1.2632
   7123SM  C17F 9347   4.159  -0.711  14.384  0.3602  0.5742  0.8843
   7123SM  H17F 9348   4.181  -0.815  14.352 -1.6600  0.0480  1.0665
   7123SM  H17G 9349   4.231  -0.644  14.333 -1.9747  1.7272 -1.1278
   7123SM  C18F 9350   4.032  -0.673  14.292  0.3860  0.0647 -0.2273
   7123SM  H18F 9351   3.994  -0.571  14.315 -1.2363 -0.0305 -2.1769
   7123SM  H18G 9352   3.941  -0.731  14.320  0.1619 -0.2177 -1.4903
   7123SM  C19F 9353   4.059  -0.675  14.139  0.2214  0.0589 -0.3537
   7123SM  H19F 9354   3.963  -0.662  14.086  0.4102 -0.2880 -0.7845
   7123SM  H19G 9355   4.109  -0.768  14.105  0.4964 -0.3879  1.1732
   7123SM  C20F 9356   4.136  -0.543  14.093  0.3546  0.2396  0.7119
   7123SM  H20F 9357   4.157  -0.556  13.985  0.2278 -0.3410  0.7491
   7123SM  H20G 9358   4.239  -0.539  14.134  1.4460  0.5061 -1.8685
   7123SM  C21F 9359   4.041  -0.422  14.115  0.6494 -0.4337 -0.4806
   7123SM  H21F 9360   4.005  -0.411  14.219  1.2198 -2.7323  0.0170
   7123SM  H21G 9361   3.956  -0.431  14.044  1.3815 -2.2119 -1.1976
   7123SM  C22F 9362   4.112  -0.300  14.058 -0.3903  0.4937 -0.9336
   7123SM  H22F 9363   4.136  -0.316  13.951 -0.8546  0.6374 -1.0626
   7123SM  H22G 9364   4.201  -0.278  14.120 -1.7737  0.6247  1.1373
   7123SM  C23F 9365   4.029  -0.174  14.082 -0.5422 -0.1873 -0.4486
   7123SM  H23F 9366   3.934  -0.184  14.024  0.4339  0.3189 -2.2052
   7123SM  H23G 9367   4.082  -0.090  14.033  0.2023  0.0477  0.7232
   7123SM  H23H 9368   4.018  -0.163  14.192  0.6610 -0.1368 -0.3203
   7223SM     N 9369   6.516   4.020  16.525  0.3882  0.3285 -0.2810
   7223SM   C15 9370   6.435   4.147  16.501 -0.1973 -0.0466 -0.5545
   7223SM  H15A 9371   6.430   4.166  16.394  1.3860  1.4279 -0.4111
   7223SM  H15B 9372   6.491   4.226  16.547  1.7895 -1.8646  0.3066
   7223SM  H15C 9373   6.332   4.152  16.531 -0.0429  1.9847 -0.2379
   7223SM   C14 9374   6.528   3.993  16.670 -0.0419  0.0571  0.3737
   7223SM  H14A 9375   6.431   3.967  16.710 -0.6255  2.2200  0.4848
   7223SM  H14B 9376   6.576   4.074  16.723 -0.7340  1.4908 -1.0865
   7223SM  H14C 9377   6.589   3.905  16.683  0.3822  0.2272 -0.3886
   7223SM   C13 9378   6.453   3.901  16.455 -0.4314 -0.3473 -0.2942
   7223SM  H13A 9379   6.435   3.909  16.349  2.0370  1.6086 -0.6519
   7223SM  H13B 9380   6.356   3.885  16.502  0.1059 -1.7246  0.3891
   7223SM  H13C 9381   6.494   3.805  16.481 -2.1655 -0.6335  1.7743
   7223SM   C12 9382   6.657   4.037  16.473 -0.5155  0.1150 -0.3207
   7223SM  H12A 9383   6.658   4.040  16.365 -1.6136 -1.9051 -0.4368
   7223SM  H12B 9384   6.711   3.948  16.502 -1.5412 -0.7001 -0.8385
   7223SM   C11 9385   6.748   4.154  16.522  0.2791 -0.1256  0.0509
   7223SM  H11A 9386   6.844   4.146  16.468 -0.1944  0.3388 -0.8936
   7223SM  H11B 9387   6.766   4.125  16.628 -0.1662 -0.4587  0.0392
   7223SM     P 9388   6.739   4.380  16.388 -0.3056 -0.1513  0.0226
   7223SM   O13 9389   6.627   4.461  16.347  0.4201 -0.5177 -0.6198
   7223SM   O14 9390   6.858   4.454  16.440 -0.2189 -0.0725 -0.1921
   7223SM   O11 9391   6.779   4.287  16.264  0.0631 -0.5922  0.2638
   7223SM   O12 9392   6.691   4.279  16.493 -0.1673 -0.8602 -0.5522
   7223SM   C1S 9393   6.890   4.329  16.183  0.0769 -0.2235  0.2283
   7223SM   H1S 9394   6.984   4.288  16.225 -0.9411 -0.5036  2.4059
   7223SM   H1T 9395   6.903   4.439  16.174  1.0109 -0.1709  1.7728
   7223SM    NF 9396   7.011   4.288  15.976  0.7582 -0.3615 -0.3523
   7223SM   HNF 9397   7.014   4.365  15.912  0.5519 -0.1633 -0.1268
   7223SM   C2S 9398   6.886   4.254  16.047 -0.2236 -0.0213  0.8743
   7223SM   H2S 9399   6.895   4.145  16.067 -1.0962 -0.4910 -1.0543
   7223SM   C3S 9400   6.755   4.277  15.966  0.2508 -0.5659  0.1580
   7223SM   H3S 9401   6.740   4.381  15.930  0.4283 -0.6013 -0.0259
   7223SM    O3 9402   6.641   4.247  16.048  0.1687  0.9874  0.5127
   7223SM   HO3 9403   6.672   4.223  16.136  0.2061  1.0070  0.5053
   7223SM   C4S 9404   6.755   4.194  15.839  0.1479  0.2575 -0.5925
   7223SM   H4S 9405   6.756   4.086  15.857  1.3552 -0.0291 -2.1961
   7223SM   C5S 9406   6.768   4.237  15.708 -0.4069  0.3623  0.2754
   7223SM   H5S 9407   6.775   4.344  15.685  0.4057  0.2215 -0.1920
   7223SM   C6S 9408   6.783   4.148  15.590  0.0979  0.3149  0.2493
   7223SM   H6S 9409   6.892   4.130  15.578  0.1078  0.5792 -0.0706
   7223SM   H6T 9410   6.751   4.209  15.503  2.8845  1.7240  0.1057
   7223SM   C7S 9411   6.712   4.015  15.590  0.0046 -0.1057 -0.1272
   7223SM   H7S 9412   6.605   4.025  15.619 -0.3003 -0.8783 -0.9257
   7223SM   H7T 9413   6.759   3.940  15.657  0.2499 -1.0141 -1.2823
   7223SM   C8S 9414   6.726   3.948  15.450  0.4537 -0.0287 -0.5523
   7223SM   H8S 9415   6.675   4.019  15.381  0.2057 -2.3476 -2.9053
   7223SM   H8T 9416   6.668   3.854  15.443  0.5345 -0.0349 -1.2334
   7223SM   C9S 9417   6.865   3.930  15.391 -0.5142  0.3768 -0.2319
   7223SM   H9S 9418   6.925   3.869  15.462 -1.6608 -0.5005 -0.0016
   7223SM   H9T 9419   6.910   4.031  15.379  2.5850 -0.7548  0.7060
   7223SM  C10S 9420   6.863   3.869  15.251  0.5835  0.0262 -0.3878
   7223SM  H10S 9421   6.970   3.855  15.226  0.6171 -0.6329  0.0909
   7223SM  H10T 9422   6.812   3.941  15.184  0.6635  0.5434  0.1045
   7223SM  C11S 9423   6.797   3.729  15.258 -0.3270  0.6000  0.1221
   7223SM  H11S 9424   6.690   3.745  15.283  0.1243  1.1722  1.8245
   7223SM  H11T 9425   6.836   3.670  15.344 -0.3932  0.5942  0.1486
   7223SM  C12S 9426   6.813   3.643  15.137  0.5705  0.0345  0.3154
   7223SM  H12S 9427   6.918   3.630  15.104  0.1526 -2.0184 -0.2962
   7223SM  H12T 9428   6.756   3.697  15.058  0.9126 -0.7043 -0.4404
   7223SM  C13S 9429   6.752   3.504  15.163  0.3169 -0.6170 -0.5240
   7223SM  H13S 9430   6.646   3.522  15.190  0.3317 -2.1500  0.7326
   7223SM  H13T 9431   6.807   3.463  15.250  2.5305  0.3691 -1.3654
   7223SM  C14S 9432   6.760   3.412  15.044 -0.3289 -0.4936  1.0810
   7223SM  H14S 9433   6.870   3.396  15.031 -0.1209  0.4031  1.6779
   7223SM  H14T 9434   6.718   3.452  14.950  1.3801 -0.4747  0.2932
   7223SM  C15S 9435   6.687   3.280  15.073  0.0635  0.2100  0.3968
   7223SM  H15S 9436   6.585   3.298  15.114  0.5423 -1.4675  2.5265
   7223SM  H15T 9437   6.743   3.223  15.151 -0.3935 -1.8313 -0.6806
   7223SM  C16S 9438   6.674   3.195  14.949  0.0385  0.0397 -0.1697
   7223SM  H16S 9439   6.649   3.089  14.971  2.1310 -0.5123 -0.2919
   7223SM  H16T 9440   6.773   3.192  14.898  0.3403  1.3658  0.2825
   7223SM  C17S 9441   6.575   3.248  14.845  0.6580 -0.3301  0.9200
   7223SM  H17S 9442   6.601   3.352  14.817 -0.0057  0.9159  4.4947
   7223SM  H17T 9443   6.467   3.247  14.868  0.1350 -0.9110 -1.2736
   7223SM  C18S 9444   6.577   3.154  14.722  0.0437  0.4209  0.1358
   7223SM  H18S 9445   6.503   3.073  14.739  0.5409  0.3686  2.3520
   7223SM  H18T 9446   6.680   3.118  14.697 -0.3419 -1.9684  1.6565
   7223SM  H18U 9447   6.550   3.210  14.630  0.0686 -2.4237 -1.7234
   7223SM   C1F 9448   7.137   4.246  16.004 -0.1283  0.0073  0.0014
   7223SM    OF 9449   7.155   4.154  16.082  0.2253 -0.2334 -0.0564
   7223SM   C2F 9450   7.247   4.317  15.933 -0.0633 -0.2634 -0.3956
   7223SM   H2F 9451   7.326   4.339  16.008  1.3644  0.5676 -2.0950
   7223SM   H2G 9452   7.206   4.410  15.891 -0.3866 -0.0892  0.2843
   7223SM   C3F 9453   7.312   4.234  15.815  0.0168  0.3223  0.0717
   7223SM   H3F 9454   7.234   4.190  15.748  2.4942 -0.4670 -2.4940
   7223SM   H3G 9455   7.355   4.149  15.872  0.3956 -0.0628 -0.7735
   7223SM   C4F 9456   7.412   4.319  15.738  0.0170 -0.9856  0.9806
   7223SM   H4F 9457   7.478   4.377  15.805 -0.9524  2.3789 -0.7469
   7223SM   H4G 9458   7.352   4.394  15.682 -0.6239 -1.8857  0.4237
   7223SM   C5F 9459   7.484   4.233  15.630  0.0882 -0.3987 -0.3454
   7223SM   H5F 9460   7.401   4.193  15.568 -2.3825  1.8052  1.3249
   7223SM   H5G 9461   7.548   4.152  15.672 -0.3555 -0.7241 -0.2872
   7223SM   C6F 9462   7.578   4.317  15.552 -0.8890  0.6737 -0.3727
   7223SM   H6F 9463   7.647   4.364  15.626 -1.0295  0.5601 -0.1701
   7223SM   H6G 9464   7.525   4.405  15.511  1.5013  1.9565 -0.9333
   7223SM   C7F 9465   7.656   4.230  15.450  0.3519 -0.4241  0.0476
   7223SM   H7F 9466   7.583   4.169  15.392 -1.0923  0.7915  0.5459
   7223SM   H7G 9467   7.715   4.155  15.507  1.2569 -1.5683 -2.2599
   7223SM   C8F 9468   7.744   4.311  15.350  0.3910 -0.3749  0.0327
   7223SM   H8F 9469   7.808   4.235  15.300  0.9415 -1.0931  1.7637
   7223SM   H8G 9470   7.803   4.393  15.398  1.4293 -1.5481  0.8206
   7223SM   C9F 9471   7.652   4.371  15.239 -0.1102  0.1125  0.1648
   7223SM   H9F 9472   7.568   4.426  15.286  0.4690  0.3052  0.9948
   7223SM   H9G 9473   7.612   4.289  15.176  2.0724  0.2258 -1.5027
   7223SM  C10F 9474   7.723   4.478  15.150 -0.3268  0.1699 -0.1430
   7223SM  H10F 9475   7.807   4.446  15.085  0.9301  0.6788  1.1929
   7223SM  H10G 9476   7.770   4.560  15.208  0.1455 -0.8097  0.8856
   7223SM  C11F 9477   7.622   4.563  15.068  0.4696  1.4193 -0.2733
   7223SM  H11F 9478   7.679   4.633  15.003  1.7512  0.3289 -0.3856
   7223SM  H11G 9479   7.549   4.613  15.135 -0.8349 -0.3234 -0.3062
   7223SM  C12F 9480   7.530   4.469  14.994  0.8983 -0.0325  0.5964
   7223SM  H12F 9481   7.475   4.399  15.061  1.1731 -0.7087  0.1311
   7223SM  H12G 9482   7.593   4.407  14.927  0.5656 -0.9551  1.1160
   7223SM  C13F 9483   7.435   4.541  14.895 -0.3751 -0.5441  0.0796
   7223SM  H13F 9484   7.503   4.585  14.819 -0.9467 -0.5851 -0.4673
   7223SM  H13G 9485   7.370   4.621  14.937  1.1727 -0.0965  1.7101
   7223SM  C14F 9486   7.342   4.447  14.812  0.0181  0.2008 -0.5076
   7223SM  H14F 9487   7.262   4.388  14.860 -0.4237  0.9262 -0.3546
   7223SM  H14G 9488   7.412   4.372  14.768  0.6540 -0.8946  2.1598
   7223SM  C15F 9489   7.291   4.524  14.688 -0.0549  0.3903 -0.2700
   7223SM  H15F 9490   7.377   4.572  14.637  0.7485 -0.4067  0.3135
   7223SM  H15G 9491   7.218   4.605  14.705 -0.8437  0.4375 -3.2550
   7223SM  C16F 9492   7.228   4.433  14.583  0.0696  0.1893  0.6763
   7223SM  H16F 9493   7.204   4.511  14.508  0.1852  0.0584  0.5005
   7223SM  H16G 9494   7.128   4.396  14.614 -0.2245  0.7797  0.4339
   7223SM  C17F 9495   7.312   4.313  14.526  0.0666 -0.0505  0.2906
   7223SM  H17F 9496   7.340   4.244  14.609  0.6743 -1.0435 -0.7100
   7223SM  H17G 9497   7.412   4.346  14.491 -0.0035 -0.1950 -0.0440
   7223SM  C18F 9498   7.242   4.225  14.425 -0.2996 -0.1963 -0.6207
   7223SM  H18F 9499   7.186   4.292  14.356 -2.5918  1.0625  2.2358
   7223SM  H18G 9500   7.166   4.170  14.485  0.0516  1.7935  1.8038
   7223SM  C19F 9501   7.339   4.126  14.357  0.4162  0.3006  0.4071
   7223SM  H19F 9502   7.278   4.068  14.284  1.5780  2.3212 -2.3810
   7223SM  H19G 9503   7.388   4.063  14.434  1.6920  0.9700  0.1768
   7223SM  C20F 9504   7.437   4.197  14.271 -0.2601 -0.6103  0.3414
   7223SM  H20F 9505   7.529   4.229  14.325  0.3325 -1.4694 -0.1342
   7223SM  H20G 9506   7.379   4.284  14.233 -1.2506 -1.2158  0.4315
   7223SM  C21F 9507   7.480   4.118  14.143  0.2162 -1.0842  0.0903
   7223SM  H21F 9508   7.389   4.079  14.091 -1.2094 -1.1275  2.4701
   7223SM  H21G 9509   7.535   4.026  14.173 -0.7043 -2.1663 -1.3897
   7223SM  C22F 9510   7.573   4.191  14.048 -1.0414 -0.7912  0.0771
   7223SM  H22F 9511   7.667   4.222  14.098 -2.1992 -0.5535  2.1966
   7223SM  H22G 9512   7.531   4.289  14.016 -0.4051 -0.0020  1.5595
   7223SM  C23F 9513   7.609   4.106  13.925 -1.0694 -0.3536  0.0830
   7223SM  H23F 9514   7.671   4.158  13.849  0.3583 -1.8443  0.1872
   7223SM  H23G 9515   7.520   4.075  13.865  0.2989 -1.7882 -1.3005
   7223SM  H23H 9516   7.674   4.020  13.952  1.2284  1.5461  0.9127
   7323SM     N 9517   5.176   1.128  16.500 -0.6381  0.0464 -0.4273
   7323SM   C15 9518   5.094   1.036  16.582  0.2780 -0.4576 -0.3307
   7323SM  H15A 9519   5.124   1.027  16.685  2.2575  1.1875 -0.7034
   7323SM  H15B 9520   5.102   0.933  16.551 -1.0410 -0.8603  0.5778
   7323SM  H15C 9521   4.989   1.062  16.586  0.4187  0.1245 -0.2732
   7323SM   C14 9522   5.303   1.052  16.470  0.2983 -0.4831 -0.1589
   7323SM  H14A 9523   5.281   0.980  16.393 -0.1942  1.6623 -2.1267
   7323SM  H14B 9524   5.334   0.987  16.551  0.5647 -1.7163 -1.2347
   7323SM  H14C 9525   5.382   1.118  16.437 -0.9686  1.5779  0.7257
   7323SM   C13 9526   5.109   1.160  16.378 -0.5331 -0.1574  0.9553
   7323SM  H13A 9527   5.159   1.234  16.317 -1.8062 -1.7701 -2.2294
   7323SM  H13B 9528   5.013   1.202  16.403 -0.2001 -0.4963  3.0253
   7323SM  H13C 9529   5.097   1.078  16.309  2.8838  0.2905 -0.3621
   7323SM   C12 9530   5.219   1.256  16.567  0.7932  0.6440  0.3676
   7323SM  H12A 9531   5.274   1.235  16.658  3.8800 -0.5520 -1.6001
   7323SM  H12B 9532   5.128   1.311  16.585  0.9809  1.7932 -1.8359
   7323SM   C11 9533   5.301   1.360  16.490  0.1832  0.7955  0.3250
   7323SM  H11A 9534   5.398   1.314  16.459 -1.0136 -0.7757 -1.2613
   7323SM  H11B 9535   5.333   1.433  16.568 -2.4196  2.3208  0.0697
   7323SM     P 9536   5.121   1.528  16.414  0.0653 -0.0626 -0.0480
   7323SM   O13 9537   5.024   1.519  16.298 -0.1726  0.3372  0.2394
   7323SM   O14 9538   5.064   1.510  16.549  0.2730 -0.1606 -0.1529
   7323SM   O11 9539   5.186   1.664  16.423  0.2802 -0.3843 -0.5731
   7323SM   O12 9540   5.233   1.425  16.381 -0.0326  0.4670  0.3832
   7323SM   C1S 9541   5.284   1.708  16.333  0.0182 -0.1166  0.5366
   7323SM   H1S 9542   5.340   1.626  16.282 -0.7047 -0.4911  0.3390
   7323SM   H1T 9543   5.366   1.769  16.377 -0.1512  0.1303  0.5039
   7323SM    NF 9544   5.302   1.811  16.101 -0.4864 -0.3971  0.3382
   7323SM   HNF 9545   5.337   1.902  16.085 -2.9241  0.2886 -1.6192
   7323SM   C2S 9546   5.216   1.793  16.218  0.0876  0.3268 -0.2347
   7323SM   H2S 9547   5.128   1.731  16.191 -0.2352 -0.8616  3.0128
   7323SM   C3S 9548   5.150   1.926  16.279  0.4255 -0.2791 -0.1489
   7323SM   H3S 9549   5.221   1.959  16.358 -1.9573 -0.9366  2.4404
   7323SM    O3 9550   5.024   1.898  16.338  0.0372  0.1215 -0.0298
   7323SM   HO3 9551   5.027   1.808  16.373 -0.6043  0.0745 -0.0855
   7323SM   C4S 9552   5.116   2.036  16.181 -0.5550  0.0200 -1.1567
   7323SM   H4S 9553   5.030   2.022  16.115 -0.9746  1.0047 -0.8488
   7323SM   C5S 9554   5.187   2.152  16.186  0.1620  0.0532 -0.5035
   7323SM   H5S 9555   5.270   2.143  16.258  1.0237 -1.7084 -1.6483
   7323SM   C6S 9556   5.171   2.282  16.116  0.0522 -0.2268  0.7171
   7323SM   H6S 9557   5.183   2.360  16.195  0.4553 -1.2676  1.7008
   7323SM   H6T 9558   5.068   2.293  16.077  1.3050  1.2268 -2.5200
   7323SM   C7S 9559   5.269   2.291  15.996 -0.5847 -0.4693 -0.0007
   7323SM   H7S 9560   5.373   2.313  16.028  0.0773 -0.4546 -2.0446
   7323SM   H7T 9561   5.234   2.387  15.952  1.0018  0.7638  1.2853
   7323SM   C8S 9562   5.267   2.181  15.887 -0.5598 -0.2094  0.5740
   7323SM   H8S 9563   5.167   2.161  15.843 -0.1488 -0.5154 -0.2362
   7323SM   H8T 9564   5.318   2.098  15.939 -0.7789  0.8704  2.6248
   7323SM   C9S 9565   5.364   2.219  15.776 -0.3772 -0.5163 -0.1945
   7323SM   H9S 9566   5.466   2.241  15.816  0.3393 -1.7511 -1.2559
   7323SM   H9T 9567   5.322   2.316  15.740  0.5953  0.1306  0.3490
   7323SM  C10S 9568   5.358   2.116  15.664 -0.0110  0.4375  0.8919
   7323SM  H10S 9569   5.258   2.088  15.626  0.9804  1.4014 -2.8262
   7323SM  H10T 9570   5.406   2.027  15.710 -1.4920 -1.2683 -0.7643
   7323SM  C11S 9571   5.438   2.169  15.547 -0.1163 -0.0826 -0.3309
   7323SM  H11S 9572   5.540   2.189  15.586 -0.0405  0.0023 -0.5687
   7323SM  H11T 9573   5.400   2.267  15.513  0.4664  0.5118  0.6778
   7323SM  C12S 9574   5.445   2.069  15.431 -0.4327 -0.2363  0.4696
   7323SM  H12S 9575   5.349   2.074  15.376  0.4947 -0.9039 -1.3114
   7323SM  H12T 9576   5.468   1.965  15.463 -0.1638 -2.4498 -5.6074
   7323SM  C13S 9577   5.552   2.104  15.325  0.0209 -0.3409 -0.6385
   7323SM  H13S 9578   5.549   2.033  15.239 -0.5749  0.9193 -1.6948
   7323SM  H13T 9579   5.653   2.107  15.372 -0.7634 -0.3420  1.1043
   7323SM  C14S 9580   5.522   2.238  15.249  0.7672  0.0778  0.6566
   7323SM  H14S 9581   5.503   2.325  15.315 -0.5041 -0.9201  1.6670
   7323SM  H14T 9582   5.432   2.223  15.186  2.4425 -0.9838 -1.6339
   7323SM  C15S 9583   5.626   2.284  15.148 -0.3713  0.0836  0.5868
   7323SM  H15S 9584   5.647   2.213  15.064 -0.4025  1.0203 -0.2352
   7323SM  H15T 9585   5.723   2.291  15.202 -0.4634 -0.8623  0.8995
   7323SM  C16S 9586   5.591   2.417  15.081 -0.4913 -0.0380 -0.1544
   7323SM  H16S 9587   5.571   2.490  15.162 -1.1600 -2.0615  1.6046
   7323SM  H16T 9588   5.512   2.416  15.002  1.2858  0.1847 -2.0075
   7323SM  C17S 9589   5.712   2.467  15.004  0.0846  0.6290  0.3199
   7323SM  H17S 9590   5.679   2.548  14.935 -1.5661 -2.5047 -2.8717
   7323SM  H17T 9591   5.750   2.389  14.935 -0.8814  0.3412  0.1053
   7323SM  C18S 9592   5.830   2.521  15.095 -0.7642 -0.3718 -0.4274
   7323SM  H18S 9593   5.890   2.440  15.141 -1.1192 -0.1313  0.4777
   7323SM  H18T 9594   5.799   2.587  15.178  0.1342 -1.4776  0.8317
   7323SM  H18U 9595   5.894   2.580  15.026  1.7117 -1.5735  0.7193
   7323SM   C1F 9596   5.330   1.713  16.011  0.0796 -0.1575  0.0640
   7323SM    OF 9597   5.302   1.593  16.022 -0.2454  0.4863 -0.2989
   7323SM   C2F 9598   5.391   1.761  15.886 -0.4314 -0.2382  0.3071
   7323SM   H2F 9599   5.485   1.813  15.914 -0.5907 -0.2057  0.7796
   7323SM   H2G 9600   5.324   1.841  15.851 -0.1729 -1.2480 -2.8394
   7323SM   C3F 9601   5.414   1.666  15.763 -0.2103  0.1928  0.2488
   7323SM   H3F 9602   5.322   1.605  15.751 -1.9379  2.1471  2.5301
   7323SM   H3G 9603   5.492   1.594  15.796 -0.4472  0.3042  1.0918
   7323SM   C4F 9604   5.449   1.731  15.634 -1.0596  0.3258  0.5405
   7323SM   H4F 9605   5.547   1.783  15.644 -0.2765 -0.5833 -1.7959
   7323SM   H4G 9606   5.387   1.807  15.583  0.2860  0.5376 -0.8711
   7323SM   C5F 9607   5.475   1.617  15.530 -0.2646  0.0541 -0.2648
   7323SM   H5F 9608   5.377   1.566  15.513  0.4026 -1.1720 -0.5833
   7323SM   H5G 9609   5.557   1.548  15.560 -0.1894 -0.8934 -2.4630
   7323SM   C6F 9610   5.511   1.683  15.396 -0.1539  0.0531 -0.0400
   7323SM   H6F 9611   5.595   1.754  15.410 -0.6521  0.4690  0.8868
   7323SM   H6G 9612   5.426   1.739  15.352  0.0559  0.5935  0.2423
   7323SM   C7F 9613   5.551   1.579  15.284 -0.2639  0.2352 -0.3727
   7323SM   H7F 9614   5.475   1.499  15.288 -0.0680 -0.0352 -1.6299
   7323SM   H7G 9615   5.645   1.528  15.315 -0.5340 -2.4878 -3.4659
   7323SM   C8F 9616   5.574   1.652  15.153 -0.0284 -0.2451  0.2146
   7323SM   H8F 9617   5.629   1.747  15.172  0.2862 -0.0610 -1.4171
   7323SM   H8G 9618   5.473   1.677  15.114  0.5236 -0.3775 -1.4058
   7323SM   C9F 9619   5.650   1.583  15.045 -0.1459 -0.4933  0.0867
   7323SM   H9F 9620   5.590   1.493  15.021  1.1911 -1.3448 -0.1587
   7323SM   H9G 9621   5.750   1.563  15.088  0.2960 -0.3805 -0.8732
   7323SM  C10F 9622   5.683   1.648  14.909 -0.2826 -0.5563  0.3108
   7323SM  H10F 9623   5.741   1.741  14.926  1.3890 -1.3641 -0.6567
   7323SM  H10G 9624   5.580   1.668  14.871 -0.7475  0.1260  1.8480
   7323SM  C11F 9625   5.756   1.553  14.805  0.2314 -0.7318  0.5845
   7323SM  H11F 9626   5.696   1.461  14.824  0.6808 -1.0966  0.2715
   7323SM  H11G 9627   5.858   1.522  14.838  0.3570 -2.4812 -1.2583
   7323SM  C12F 9628   5.748   1.616  14.663  0.2324  0.5487 -0.2625
   7323SM  H12F 9629   5.799   1.714  14.667  0.4036  0.4587 -0.2209
   7323SM  H12G 9630   5.642   1.622  14.630  0.1123  0.4923  0.1088
   7323SM  C13F 9631   5.834   1.529  14.561  0.2889  0.1805 -0.3522
   7323SM  H13F 9632   5.796   1.427  14.578  1.0519 -0.0068  0.2908
   7323SM  H13G 9633   5.938   1.540  14.598 -0.3029 -0.7875  1.7289
   7323SM  C14F 9634   5.828   1.581  14.414 -0.2653  0.1646 -0.0649
   7323SM  H14F 9635   5.852   1.689  14.415  0.1236  0.0814 -0.0020
   7323SM  H14G 9636   5.723   1.576  14.379 -0.0094  0.2405 -0.8763
   7323SM  C15F 9637   5.925   1.495  14.328 -0.3260 -0.2626 -0.3304
   7323SM  H15F 9638   5.902   1.388  14.347  0.3093 -0.4831 -0.7683
   7323SM  H15G 9639   6.027   1.500  14.372 -0.0640 -4.1473 -0.1495
   7323SM  C16F 9640   5.922   1.525  14.177 -0.2868  0.1936 -0.1228
   7323SM  H16F 9641   6.019   1.493  14.134  0.6555  0.5290  1.6544
   7323SM  H16G 9642   5.903   1.633  14.157  0.4693  0.8834  2.4798
   7323SM  C17F 9643   5.804   1.442  14.115 -0.5946  0.1366  0.3709
   7323SM  H17F 9644   5.705   1.473  14.154 -0.7856  0.5698 -0.4245
   7323SM  H17G 9645   5.813   1.332  14.128  0.7522 -0.0544 -1.6649
   7323SM  C18F 9646   5.801   1.481  13.961  0.5788  0.1049 -0.3602
   7323SM  H18F 9647   5.883   1.427  13.909  0.8379  0.3314 -0.1902
   7323SM  H18G 9648   5.800   1.592  13.949  0.4539  0.2131  0.5980
   7323SM  C19F 9649   5.672   1.430  13.898  0.4215  0.1408 -1.1291
   7323SM  H19F 9650   5.591   1.443  13.973  0.9795  0.6326 -0.6026
   7323SM  H19G 9651   5.686   1.320  13.890  2.1158 -0.0621  2.5125
   7323SM  C20F 9652   5.632   1.501  13.774  0.2887 -0.1811 -0.1251
   7323SM  H20F 9653   5.722   1.538  13.721 -0.3926  0.4757 -0.8514
   7323SM  H20G 9654   5.587   1.601  13.795 -0.5377 -0.4968 -0.3679
   7323SM  C21F 9655   5.543   1.417  13.684 -0.1511  0.1675  0.6454
   7323SM  H21F 9656   5.503   1.499  13.621 -0.0873  0.6340  1.2040
   7323SM  H21G 9657   5.461   1.373  13.746  0.2998 -0.4784  0.7989
   7323SM  C22F 9658   5.617   1.307  13.604  0.2572 -0.3648 -0.0075
   7323SM  H22F 9659   5.674   1.240  13.671 -2.6097 -1.2533  1.6900
   7323SM  H22G 9660   5.690   1.367  13.545 -0.2333 -0.2624 -0.5141
   7323SM  C23F 9661   5.531   1.234  13.508  0.6626  0.5591  0.3141
   7323SM  H23F 9662   5.447   1.187  13.564  0.0614  1.4158  0.1414
   7323SM  H23G 9663   5.590   1.154  13.458  0.7613  0.2978  0.8443
   7323SM  H23H 9664   5.490   1.299  13.428 -1.3929 -0.5352  0.4293
   7423SM     N 9665   0.610   3.791  16.834 -0.1144  0.4163  0.1141
   7423SM   C15 9666   0.602   3.677  16.925  0.0049 -0.3714 -0.3273
   7423SM  H15A 9667   0.686   3.663  16.991  0.3260  1.3752 -0.2976
   7423SM  H15B 9668   0.586   3.581  16.880 -1.0401 -0.8275  0.9399
   7423SM  H15C 9669   0.519   3.696  16.992 -0.7412  1.2285 -1.6135
   7423SM   C14 9670   0.608   3.918  16.909 -0.1652  0.0174 -0.3820
   7423SM  H14A 9671   0.520   3.932  16.969 -0.3001 -0.6314 -0.4192
   7423SM  H14B 9672   0.625   3.993  16.834  0.0260  1.2424  0.8573
   7423SM  H14C 9673   0.692   3.924  16.977 -1.6163 -0.5274  1.5284
   7423SM   C13 9674   0.736   3.781  16.768 -0.1466 -0.3314 -0.1518
   7423SM  H13A 9675   0.820   3.798  16.834 -1.9349 -0.9388  2.4274
   7423SM  H13B 9676   0.746   3.864  16.699 -0.2020  1.7419  2.2151
   7423SM  H13C 9677   0.756   3.693  16.709 -0.3000  0.6801 -1.7929
   7423SM   C12 9678   0.486   3.794  16.745  0.5362  0.2284 -0.2541
   7423SM  H12A 9679   0.399   3.814  16.806  1.6250 -0.9233  1.7680
   7423SM  H12B 9680   0.464   3.696  16.705  0.7650 -1.0212  2.4781
   7423SM   C11 9681   0.484   3.881  16.623  0.0094 -0.0608 -0.0642
   7423SM  H11A 9682   0.389   3.858  16.570 -1.4220  0.0180  2.3448
   7423SM  H11B 9683   0.565   3.857  16.551 -0.9692  1.6816 -1.8629
   7423SM     P 9684   0.372   4.122  16.619  0.0055  0.0558 -0.1601
   7423SM   O13 9685   0.263   4.108  16.722  0.4754 -0.1750 -0.1958
   7423SM   O14 9686   0.445   4.251  16.608 -0.2593  0.6749 -0.3316
   7423SM   O11 9687   0.315   4.078  16.483  0.0123  0.1493 -0.6517
   7423SM   O12 9688   0.487   4.017  16.657 -0.2521  0.3966 -0.2851
   7423SM   C1S 9689   0.405   4.081  16.372 -0.1827  0.5637 -0.8255
   7423SM   H1S 9690   0.447   3.981  16.350 -0.4562  0.0634  0.7736
   7423SM   H1T 9691   0.491   4.150  16.391  2.6925 -3.1452  0.8995
   7423SM    NF 9692   0.416   4.149  16.135 -0.4248 -0.0011  0.3800
   7423SM   HNF 9693   0.465   4.234  16.117 -2.0841  0.7910 -0.5937
   7423SM   C2S 9694   0.330   4.140  16.249 -0.3601  0.5035  0.3198
   7423SM   H2S 9695   0.253   4.063  16.226  0.6997 -1.3722  2.5960
   7423SM   C3S 9696   0.250   4.272  16.273  0.3052  0.3230 -0.5331
   7423SM   H3S 9697   0.331   4.346  16.292  1.9328 -1.7023  0.8548
   7423SM    O3 9698   0.170   4.274  16.392 -0.4871 -0.1067 -0.6088
   7423SM   HO3 9699   0.199   4.192  16.433  1.4404  0.2287 -1.2118
   7423SM   C4S 9700   0.168   4.312  16.151 -0.9230  0.4728  0.2349
   7423SM   H4S 9701   0.233   4.361  16.077 -0.0268 -0.3288  0.4818
   7423SM   C5S 9702   0.048   4.264  16.114 -0.3922 -0.6668 -0.4907
   7423SM   H5S 9703  -0.006   4.202  16.186  1.6842 -0.7938  1.0352
   7423SM   C6S 9704  -0.026   4.310  15.992 -0.2113  0.6794 -0.1479
   7423SM   H6S 9705  -0.015   4.421  15.989  0.1731  0.6228 -1.0083
   7423SM   H6T 9706  -0.133   4.295  16.017 -0.0325 -0.1940  0.1176
   7423SM   C7S 9707   0.015   4.224  15.865  0.0498  0.2041 -0.1094
   7423SM   H7S 9708  -0.052   4.255  15.782  1.4015 -1.3367 -1.8650
   7423SM   H7T 9709  -0.004   4.116  15.877  3.7374 -0.9437 -2.7445
   7423SM   C8S 9710   0.170   4.243  15.818 -0.4911  0.0059  0.3691
   7423SM   H8S 9711   0.224   4.166  15.877 -1.7374 -0.6690  0.6742
   7423SM   H8T 9712   0.195   4.346  15.853 -3.6303  0.4939  1.5095
   7423SM   C9S 9713   0.176   4.209  15.670 -0.1274 -0.9518 -0.0579
   7423SM   H9S 9714   0.281   4.211  15.637 -0.0709 -3.1502 -0.1190
   7423SM   H9T 9715   0.122   4.288  15.613 -0.5577 -1.5463 -0.4867
   7423SM  C10S 9716   0.132   4.067  15.636  0.4516  0.4187 -0.6899
   7423SM  H10S 9717   0.026   4.052  15.666  0.4363  1.0989 -0.3928
   7423SM  H10T 9718   0.189   3.995  15.699 -0.1295  0.6051  0.0580
   7423SM  C11S 9719   0.130   4.036  15.488  0.5224  0.0315  0.6046
   7423SM  H11S 9720   0.090   3.933  15.477 -0.5717  0.5142 -0.0959
   7423SM  H11T 9721   0.232   4.037  15.444  0.5620  2.1528  0.6160
   7423SM  C12S 9722   0.042   4.138  15.405 -0.3337  0.6117  0.0715
   7423SM  H12S 9723   0.095   4.231  15.378  1.3627  0.1902  1.7856
   7423SM  H12T 9724  -0.050   4.165  15.461 -1.0190 -0.2431 -0.6057
   7423SM  C13S 9725   0.015   4.073  15.268  0.0069 -0.0850 -0.4122
   7423SM  H13S 9726   0.105   4.026  15.223  1.0576 -0.2822  1.7802
   7423SM  H13T 9727  -0.022   4.152  15.199  1.0816  1.0252  0.2538
   7423SM  C14S 9728  -0.089   3.957  15.263  0.0166 -0.1222 -0.6542
   7423SM  H14S 9729  -0.162   3.987  15.342 -1.8293 -2.1994 -1.4604
   7423SM  H14T 9730  -0.038   3.869  15.308  2.5795  2.2395  1.4054
   7423SM  C15S 9731  -0.173   3.949  15.139  0.2621 -0.2028 -0.1855
   7423SM  H15S 9732  -0.209   4.053  15.119  0.4212 -0.1046  0.0380
   7423SM  H15T 9733  -0.257   3.879  15.156  0.7066 -0.6129  0.3484
   7423SM  C16S 9734  -0.114   3.893  15.002  0.0783 -0.3363  0.2779
   7423SM  H16S 9735  -0.087   3.786  15.009 -2.0614 -0.8559  1.3371
   7423SM  H16T 9736  -0.017   3.944  14.985  0.8983 -0.1332  4.4778
   7423SM  C17S 9737  -0.209   3.921  14.883 -0.0103 -0.2565 -0.6005
   7423SM  H17S 9738  -0.145   3.902  14.794 -1.3236 -0.8396 -1.4681
   7423SM  H17T 9739  -0.235   4.029  14.886  0.5084 -0.1487  1.7727
   7423SM  C18S 9740  -0.333   3.843  14.881 -0.7650  0.1306 -0.2530
   7423SM  H18S 9741  -0.317   3.734  14.867 -0.8951  0.2569 -1.5767
   7423SM  H18T 9742  -0.397   3.874  14.795 -0.9226  0.6096  0.0341
   7423SM  H18U 9743  -0.398   3.865  14.969  0.9505  1.1798  0.7976
   7423SM   C1F 9744   0.468   4.037  16.075  1.1636 -0.2459 -0.0116
   7423SM    OF 9745   0.444   3.921  16.110 -0.9001 -0.1920 -0.0670
   7423SM   C2F 9746   0.558   4.061  15.961 -0.6136  0.3504 -0.5419
   7423SM   H2F 9747   0.657   4.074  16.009 -0.2724 -1.5357 -0.6431
   7423SM   H2G 9748   0.527   4.156  15.913 -3.2580 -0.8725 -1.4616
   7423SM   C3F 9749   0.560   3.954  15.851  0.4958  0.5169  0.4804
   7423SM   H3F 9750   0.457   3.931  15.817  1.2001 -1.3570 -0.4990
   7423SM   H3G 9751   0.608   3.861  15.886 -1.7392 -0.8785  0.0723
   7423SM   C4F 9752   0.625   4.017  15.724 -0.0264  0.4828  0.1587
   7423SM   H4F 9753   0.734   4.032  15.741  0.4823 -1.0868 -1.4981
   7423SM   H4G 9754   0.584   4.119  15.705  0.9871  1.2348  1.7851
   7423SM   C5F 9755   0.617   3.934  15.596 -0.4518 -0.3192  0.1441
   7423SM   H5F 9756   0.641   4.000  15.510 -1.4856 -0.3144 -0.1567
   7423SM   H5G 9757   0.510   3.908  15.584 -0.1992 -1.3230  0.0033
   7423SM   C6F 9758   0.710   3.810  15.589 -0.1177  0.3267  0.3453
   7423SM   H6F 9759   0.710   3.750  15.683  0.6432 -0.5825 -0.2228
   7423SM   H6G 9760   0.815   3.847  15.587 -0.1847  0.5629  0.8577
   7423SM   C7F 9761   0.671   3.727  15.465  0.6595  0.6268  0.5892
   7423SM   H7F 9762   0.694   3.780  15.371 -0.9437 -1.2628 -0.9747
   7423SM   H7G 9763   0.560   3.714  15.463  0.5094  1.6988  1.1168
   7423SM   C8F 9764   0.746   3.595  15.469 -0.4160  0.6404 -0.4607
   7423SM   H8F 9765   0.740   3.546  15.568  1.1161  2.0704  0.3917
   7423SM   H8G 9766   0.854   3.614  15.454  0.0625 -1.7550 -0.4143
   7423SM   C9F 9767   0.691   3.508  15.355  0.0603 -0.1567 -0.0822
   7423SM   H9F 9768   0.580   3.512  15.349 -0.1848 -1.6887  2.1022
   7423SM   H9G 9769   0.702   3.400  15.380 -0.6810 -0.3814 -0.6785
   7423SM  C10F 9770   0.742   3.542  15.216  0.2062 -0.6130  0.3117
   7423SM  H10F 9771   0.852   3.549  15.218  0.2718 -1.1523  2.9695
   7423SM  H10G 9772   0.712   3.647  15.194  0.4873 -0.9039 -1.6358
   7423SM  C11F 9773   0.677   3.461  15.101 -0.5249  0.3241  0.1137
   7423SM  H11F 9774   0.566   3.466  15.111 -0.6560 -1.4339 -0.1828
   7423SM  H11G 9775   0.713   3.359  15.124  1.0283  1.0749  1.2015
   7423SM  C12F 9776   0.706   3.507  14.961  0.5776 -0.0907  0.9275
   7423SM  H12F 9777   0.813   3.522  14.935 -0.2946  1.9001 -2.0031
   7423SM  H12G 9778   0.652   3.605  14.956 -0.7175 -0.7168  1.9131
   7423SM  C13F 9779   0.635   3.414  14.855 -0.7523  0.3868 -0.3798
   7423SM  H13F 9780   0.526   3.414  14.878 -0.2274  0.1906  2.5746
   7423SM  H13G 9781   0.669   3.310  14.868 -3.6028 -0.4869  1.0118
   7423SM  C14F 9782   0.659   3.441  14.708 -0.4444  0.4765  0.5716
   7423SM  H14F 9783   0.768   3.426  14.695 -0.4265  0.4493  0.7411
   7423SM  H14G 9784   0.635   3.548  14.689  0.5706  0.7818  0.9627
   7423SM  C15F 9785   0.589   3.344  14.612  0.4040 -0.1535  0.5752
   7423SM  H15F 9786   0.481   3.346  14.636  0.0553 -1.3496 -0.8089
   7423SM  H15G 9787   0.629   3.245  14.643 -1.5431 -1.0365  0.3977
   7423SM  C16F 9788   0.605   3.376  14.465  0.0611 -0.3426 -0.0384
   7423SM  H16F 9789   0.560   3.469  14.426  0.8465 -0.4850 -1.3332
   7423SM  H16G 9790   0.547   3.300  14.409 -2.7695  0.8079  1.1355
   7423SM  C17F 9791   0.748   3.377  14.420  0.6445 -0.4479 -0.0866
   7423SM  H17F 9792   0.803   3.288  14.456  2.9972  1.3651  1.1500
   7423SM  H17G 9793   0.816   3.458  14.455 -0.6869  0.3661  0.6931
   7423SM  C18F 9794   0.764   3.347  14.270  0.2698  0.5917 -0.6197
   7423SM  H18F 9795   0.705   3.416  14.206  0.4368  0.3031 -1.0926
   7423SM  H18G 9796   0.719   3.248  14.246 -1.3246  1.8194 -3.0476
   7423SM  C19F 9797   0.906   3.323  14.211  0.0565 -0.8451  0.8998
   7423SM  H19F 9798   0.954   3.231  14.250  2.7116  0.1204  0.0992
   7423SM  H19G 9799   0.974   3.409  14.222 -0.4850  0.1388 -2.3920
   7423SM  C20F 9800   0.898   3.301  14.056  0.4295  1.0502 -0.5314
   7423SM  H20F 9801   0.868   3.396  14.008 -1.5620  0.2577 -0.9664
   7423SM  H20G 9802   0.815   3.232  14.028  0.1430  0.4322  1.6313
   7423SM  C21F 9803   1.023   3.231  14.002 -0.3499  0.0270  0.2305
   7423SM  H21F 9804   1.025   3.133  14.054 -4.2571  1.1654  2.9906
   7423SM  H21G 9805   1.109   3.297  14.029 -1.0138  0.8553  0.3730
   7423SM  C22F 9806   1.012   3.219  13.843  0.5129  0.3438  0.8221
   7423SM  H22F 9807   0.908   3.191  13.818  0.0711  2.0274  0.6612
   7423SM  H22G 9808   1.082   3.136  13.817 -0.9962 -1.5146  2.3540
   7423SM  C23F 9809   1.042   3.344  13.766 -0.2643 -0.1060  0.4535
   7423SM  H23F 9810   0.959   3.415  13.784  0.2125  0.8408 -0.9208
   7423SM  H23G 9811   1.065   3.334  13.658 -0.2490  2.2700  0.1857
   7423SM  H23H 9812   1.136   3.389  13.805  0.1171  0.0836 -0.6597
   7523SM     N 9813   7.711   5.479  16.445 -0.1400 -0.5248  0.0823
   7523SM   C15 9814   7.620   5.581  16.388 -0.3528  0.5121 -0.4355
   7523SM  H15A 9815   7.536   5.606  16.450  0.2552  0.4013  0.4477
   7523SM  H15B 9816   7.575   5.553  16.294  1.5704  2.7438 -2.1360
   7523SM  H15C 9817   7.676   5.672  16.373  1.3976  0.0790  2.6563
   7523SM   C14 9818   7.788   5.542  16.560  0.7350 -0.6236 -0.1037
   7523SM  H14A 9819   7.863   5.610  16.521 -0.5395  1.1070  0.3407
   7523SM  H14B 9820   7.834   5.463  16.618  1.0477 -0.1498  0.3040
   7523SM  H14C 9821   7.726   5.586  16.636  1.4689  1.0604 -0.4390
   7523SM   C13 9822   7.634   5.354  16.483  0.5793  0.1820 -0.1234
   7523SM  H13A 9823   7.698   5.279  16.528  0.1952 -0.8910 -1.3119
   7523SM  H13B 9824   7.581   5.312  16.399  0.0192 -1.7909  1.1329
   7523SM  H13C 9825   7.557   5.380  16.554 -0.8270 -1.9201 -0.7951
   7523SM   C12 9826   7.819   5.434  16.342  0.4946 -0.7742 -0.1957
   7523SM  H12A 9827   7.761   5.376  16.271 -0.1546 -0.2856 -0.0771
   7523SM  H12B 9828   7.888   5.371  16.395  1.6569 -0.7774 -1.6401
   7523SM   C11 9829   7.898   5.531  16.256  0.0549 -0.5774  0.4210
   7523SM  H11A 9830   7.840   5.604  16.195  0.6629  1.1582  1.8433
   7523SM  H11B 9831   7.962   5.478  16.182  0.8343 -0.4581  1.0086
   7523SM     P 9832   8.096   5.706  16.297 -0.0843 -0.0216  0.7328
   7523SM   O13 9833   8.052   5.844  16.316 -0.1822 -0.5451 -0.2404
   7523SM   O14 9834   8.222   5.664  16.365 -0.0435 -0.1392 -0.2893
   7523SM   O11 9835   8.105   5.671  16.145 -0.4417 -0.1668  0.3395
   7523SM   O12 9836   7.981   5.612  16.339  0.8785 -0.0036  0.7874
   7523SM   C1S 9837   8.173   5.759  16.058 -0.6244  0.1336 -0.1105
   7523SM   H1S 9838   8.278   5.767  16.095 -0.0701 -0.6170 -1.4187
   7523SM   H1T 9839   8.124   5.857  16.073  0.2868  0.3495  1.7193
   7523SM    NF 9840   8.253   5.767  15.822  0.0291 -0.2686 -0.0439
   7523SM   HNF 9841   8.226   5.835  15.754 -1.5862 -0.3045  0.5225
   7523SM   C2S 9842   8.151   5.719  15.912  0.0385  0.1641  0.2241
   7523SM   H2S 9843   8.166   5.609  15.919  0.5583  0.1975 -0.3413
   7523SM   C3S 9844   8.005   5.754  15.857 -0.5378 -0.3289  0.0403
   7523SM   H3S 9845   8.004   5.865  15.849 -1.9565 -0.3829 -0.8099
   7523SM    O3 9846   7.902   5.729  15.954  0.0799 -0.5130 -0.0674
   7523SM   HO3 9847   7.948   5.696  16.031 -0.3638 -1.5554 -0.2412
   7523SM   C4S 9848   7.976   5.688  15.730  0.6176  0.8098  0.3592
   7523SM   H4S 9849   7.966   5.756  15.644 -0.7615 -0.1543 -0.2909
   7523SM   C5S 9850   7.952   5.557  15.703 -0.0879 -0.1613 -0.8280
   7523SM   H5S 9851   7.949   5.476  15.777 -0.4524 -1.0668 -1.8059
   7523SM   C6S 9852   7.932   5.494  15.565 -0.0034  0.0108 -0.4598
   7523SM   H6S 9853   7.954   5.387  15.583  0.5372  0.4489  1.7962
   7523SM   H6T 9854   8.001   5.539  15.491 -0.0294 -0.2394 -0.6373
   7523SM   C7S 9855   7.786   5.506  15.515  0.6337 -0.4080 -0.1301
   7523SM   H7S 9856   7.755   5.612  15.503  2.2072  0.0165 -0.5611
   7523SM   H7T 9857   7.722   5.460  15.594  1.1517 -1.2004 -0.1587
   7523SM   C8S 9858   7.766   5.422  15.377  0.2012 -0.3309 -0.5225
   7523SM   H8S 9859   7.659   5.432  15.349 -0.4402  2.4327  2.3634
   7523SM   H8T 9860   7.788   5.315  15.401  1.1723 -0.8026 -3.1873
   7523SM   C9S 9861   7.869   5.471  15.276 -0.4795  0.2493 -0.7273
   7523SM   H9S 9862   7.964   5.415  15.291 -1.4068 -1.0468  0.5533
   7523SM   H9T 9863   7.885   5.580  15.292 -1.1702  0.2534  0.0081
   7523SM  C10S 9864   7.835   5.457  15.130  0.1725 -0.6371 -0.2001
   7523SM  H10S 9865   7.742   5.515  15.115  0.5395  0.4320  1.3932
   7523SM  H10T 9866   7.816   5.348  15.122  2.3342 -1.3581  2.6074
   7523SM  C11S 9867   7.948   5.488  15.030  0.3489 -0.3560 -0.3477
   7523SM  H11S 9868   7.919   5.446  14.931  0.0452 -0.6730 -0.1254
   7523SM  H11T 9869   8.045   5.446  15.066 -0.0050  0.3910  1.5803
   7523SM  C12S 9870   7.966   5.643  15.005 -0.1391 -0.3084  0.3660
   7523SM  H12S 9871   7.866   5.692  15.007 -0.3074 -0.5620 -0.8034
   7523SM  H12T 9872   8.008   5.640  14.902  1.3391 -2.4170  0.9621
   7523SM  C13S 9873   8.059   5.717  15.101  0.3641  0.3113 -0.3714
   7523SM  H13S 9874   8.136   5.644  15.135  2.2324  0.9697 -2.8598
   7523SM  H13T 9875   8.013   5.748  15.197  1.4245 -0.4531  0.4183
   7523SM  C14S 9876   8.108   5.848  15.045  0.8201  0.6794  0.3182
   7523SM  H14S 9877   8.139   5.916  15.127  0.2313 -0.1226  1.2221
   7523SM  H14T 9878   8.019   5.887  14.991  0.3551 -1.2879 -0.4334
   7523SM  C15S 9879   8.207   5.836  14.937  0.1497  0.5373 -0.0414
   7523SM  H15S 9880   8.201   5.741  14.881 -1.8530  1.3298 -1.2835
   7523SM  H15T 9881   8.304   5.838  14.992 -0.9661  2.2312  2.0099
   7523SM  C16S 9882   8.197   5.949  14.834  0.7384  0.9764 -0.2547
   7523SM  H16S 9883   8.100   5.926  14.786  0.8862  1.2130 -0.6714
   7523SM  H16T 9884   8.272   5.937  14.753 -2.4025  0.3954 -3.3134
   7523SM  C17S 9885   8.177   6.093  14.884 -0.3276  0.0476  0.2614
   7523SM  H17S 9886   8.251   6.132  14.956  0.5092  0.9691 -1.0543
   7523SM  H17T 9887   8.082   6.100  14.941  2.0538  1.9152  4.4297
   7523SM  C18S 9888   8.160   6.188  14.767  0.3326  0.7336 -0.4868
   7523SM  H18S 9889   8.082   6.150  14.697 -0.5624 -0.1335  0.9418
   7523SM  H18T 9890   8.261   6.185  14.721  1.1870  1.4134  1.2615
   7523SM  H18U 9891   8.150   6.296  14.790  3.0705  0.6272  1.6203
   7523SM   C1F 9892   8.377   5.740  15.851 -0.3798  0.0499 -0.1986
   7523SM    OF 9893   8.411   5.644  15.925  0.1817  0.2024  0.2289
   7523SM   C2F 9894   8.478   5.826  15.800  0.0120 -0.2588 -0.0485
   7523SM   H2F 9895   8.431   5.920  15.764  0.6314 -0.0947 -0.4634
   7523SM   H2G 9896   8.532   5.773  15.718  1.0169 -1.2537  1.2152
   7523SM   C3F 9897   8.591   5.851  15.903  0.1239 -0.4243 -0.1793
   7523SM   H3F 9898   8.633   5.751  15.929  0.9673 -0.3461 -1.1799
   7523SM   H3G 9899   8.550   5.899  15.995  1.7167  1.9900 -0.6424
   7523SM   C4F 9900   8.698   5.948  15.852 -0.3372 -0.2147 -0.8027
   7523SM   H4F 9901   8.650   6.044  15.823  0.6895  0.5296 -0.0974
   7523SM   H4G 9902   8.734   5.912  15.754 -0.1371  1.0805 -1.2213
   7523SM   C5F 9903   8.813   5.980  15.951 -0.4091 -0.3341  0.1694
   7523SM   H5F 9904   8.860   5.888  15.993 -1.8012 -1.4908 -0.6950
   7523SM   H5G 9905   8.780   6.052  16.029 -0.2339 -0.1382  0.0630
   7523SM   C6F 9906   8.932   6.039  15.873  0.3817  0.6858 -0.2287
   7523SM   H6F 9907   8.971   5.961  15.805  0.5479 -0.2952  0.9564
   7523SM   H6G 9908   9.007   6.074  15.948 -0.7137  0.6507  0.9182
   7523SM   C7F 9909   8.901   6.172  15.798 -0.4184  0.4174  0.8686
   7523SM   H7F 9910   8.816   6.145  15.732 -0.7012 -0.8419  1.7044
   7523SM   H7G 9911   8.991   6.203  15.741 -0.5936 -0.5421  0.0450
   7523SM   C8F 9912   8.857   6.288  15.886 -0.3607 -0.4323 -0.0389
   7523SM   H8F 9913   8.917   6.289  15.979  0.7058 -1.1044 -0.7045
   7523SM   H8G 9914   8.761   6.257  15.933  0.3943  0.5074  2.2786
   7523SM   C9F 9915   8.840   6.428  15.825 -0.0142  0.4011 -0.3631
   7523SM   H9F 9916   8.836   6.506  15.904  0.0607  2.1773 -2.0269
   7523SM   H9G 9917   8.745   6.431  15.767 -1.0690 -1.7685  1.1179
   7523SM  C10F 9918   8.949   6.465  15.731 -1.0901  0.4139  0.4607
   7523SM  H10F 9919   8.948   6.406  15.637 -2.3831 -1.3325  1.5291
   7523SM  H10G 9920   9.042   6.443  15.787 -0.7463  2.0280  0.5721
   7523SM  C11F 9921   8.953   6.611  15.699 -0.2826  0.3988 -0.0357
   7523SM  H11F 9922   8.937   6.673  15.790  2.3481 -0.0343  0.8018
   7523SM  H11G 9923   8.870   6.629  15.628  0.8728  1.1944 -1.2167
   7523SM  C12F 9924   9.087   6.646  15.635  0.2513  0.2051  0.1272
   7523SM  H12F 9925   9.110   6.585  15.545 -3.4246 -0.8366 -0.2986
   7523SM  H12G 9926   9.171   6.627  15.705  0.2815  2.1664  0.6809
   7523SM  C13F 9927   9.105   6.798  15.599  0.0175 -0.0103  0.1965
   7523SM  H13F 9928   9.078   6.855  15.691 -0.5308  0.8074 -0.4623
   7523SM  H13G 9929   9.029   6.833  15.526  0.4196  1.1191  0.2971
   7523SM  C14F 9930   9.240   6.837  15.540  0.4742  0.0575  0.3514
   7523SM  H14F 9931   9.232   6.940  15.499 -0.4112 -0.2999 -0.4110
   7523SM  H14G 9932   9.265   6.776  15.450 -1.2873 -1.1443  0.6372
   7523SM  C15F 9933   9.352   6.839  15.645  0.4638 -0.2488  0.7342
   7523SM  H15F 9934   9.338   6.757  15.720 -0.2722  1.6253  2.7606
   7523SM  H15G 9935   9.335   6.934  15.701  0.2689 -1.0481  2.0852
   7523SM  C16F 9936   9.489   6.821  15.582  0.9232 -0.1997 -0.2021
   7523SM  H16F 9937   9.484   6.730  15.520  0.4353 -0.2048 -0.1598
   7523SM  H16G 9938   9.561   6.812  15.667  0.2546  2.1312  0.7026
   7523SM  C17F 9939   9.520   6.941  15.492 -0.3024  0.3115 -0.2137
   7523SM  H17F 9940   9.551   7.025  15.559 -0.0964  1.1964 -1.3936
   7523SM  H17G 9941   9.427   6.984  15.449 -1.7819  0.9535  3.2555
   7523SM  C18F 9942   9.625   6.924  15.385 -1.0186  0.6679  0.6704
   7523SM  H18F 9943   9.632   7.016  15.323  0.8554 -1.0829 -1.9339
   7523SM  H18G 9944   9.598   6.854  15.303  1.9166 -0.1639  0.3229
   7523SM  C19F 9945   9.765   6.895  15.450  0.0488  0.9604 -0.3087
   7523SM  H19F 9946   9.762   6.793  15.494 -2.0004  0.6380 -1.0792
   7523SM  H19G 9947   9.769   6.959  15.540 -0.1014  1.2363 -0.4971
   7523SM  C20F 9948   9.878   6.928  15.359 -0.4046  0.0567  0.4375
   7523SM  H20F 9949   9.871   7.035  15.329 -0.6808 -0.5376 -1.7638
   7523SM  H20G 9950   9.865   6.880  15.260 -2.3382  2.4111 -0.5423
   7523SM  C21F 9951  10.016   6.914  15.423 -0.0695  0.9401 -0.7842
   7523SM  H21F 9952  10.025   6.836  15.502 -0.1499 -0.0222 -1.6977
   7523SM  H21G 9953  10.031   7.004  15.487 -0.1308 -0.2073  0.9049
   7523SM  C22F 9954  10.135   6.893  15.338  0.5687 -0.4951  0.1681
   7523SM  H22F 9955  10.227   6.907  15.399  0.4289 -0.2815  0.3285
   7523SM  H22G 9956  10.132   6.977  15.265 -0.6060 -1.2447 -0.6780
   7523SM  C23F 9957  10.132   6.759  15.265  0.6936  0.4972 -0.3127
   7523SM  H23F 9958  10.113   6.677  15.338  0.6265  1.5188  0.8407
   7523SM  H23G 9959  10.213   6.740  15.192 -0.2068  2.2094 -1.8275
   7523SM  H23H 9960  10.043   6.761  15.199  0.4132  0.5776  0.0681
   7623SM     N 9961   1.829   5.506  16.235 -0.4378 -0.1676 -0.1303
   7623SM   C15 9962   1.754   5.634  16.264  0.5162  0.5464  0.2063
   7623SM  H15A 9963   1.688   5.619  16.349  2.3224  0.0813  1.6068
   7623SM  H15B 9964   1.700   5.675  16.181  0.6039  0.0658 -0.0923
   7623SM  H15C 9965   1.829   5.708  16.289  2.1718 -1.3549  1.1889
   7623SM   C14 9966   1.907   5.511  16.108  0.5154  0.6959  0.5509
   7623SM  H14A 9967   1.975   5.595  16.103 -0.0060  1.0581 -1.7708
   7623SM  H14B 9968   1.837   5.507  16.026 -0.3176 -1.3612  1.3030
   7623SM  H14C 9969   1.982   5.434  16.093 -2.7703 -2.3664 -2.2103
   7623SM   C13 9970   1.926   5.500  16.347  0.1697  0.4565 -0.3559
   7623SM  H13A 9971   1.875   5.514  16.440 -0.9633  0.2270 -0.9245
   7623SM  H13B 9972   1.996   5.582  16.338  1.7665 -1.0330 -2.6254
   7623SM  H13C 9973   1.984   5.408  16.352  0.9212  1.0012  1.7233
   7623SM   C12 9974   1.735   5.383  16.232 -0.1249 -0.5219  0.2582
   7623SM  H12A 9975   1.805   5.302  16.216  1.1257  0.5206  0.2459
   7623SM  H12B 9976   1.667   5.387  16.149 -0.5468  0.5597  0.6425
   7623SM   C11 9977   1.664   5.345  16.358  0.5158 -0.4419 -0.1194
   7623SM  H11A 9978   1.743   5.334  16.435 -0.0297  1.7194  0.8231
   7623SM  H11B 9979   1.626   5.241  16.344  1.2836 -0.2818 -6.0155
   7623SM     P 9980   1.421   5.426  16.319  0.0428  0.0758  0.8014
   7623SM   O13 9981   1.386   5.284  16.320  0.0938  0.3293 -0.5288
   7623SM   O14 9982   1.321   5.521  16.364  0.1324 -0.1307  0.4950
   7623SM   O11 9983   1.455   5.446  16.166 -0.3404 -0.1997 -0.2810
   7623SM   O12 9984   1.564   5.447  16.392  0.0334  0.2323 -0.3821
   7623SM   C1S 9985   1.341   5.442  16.066 -0.5417 -0.0161  0.0058
   7623SM   H1S 9986   1.242   5.430  16.115 -0.1109  1.3341  1.2786
   7623SM   H1T 9987   1.359   5.354  16.000  0.9144 -0.5584  1.0597
   7623SM    NF 9988   1.207   5.572  15.889 -0.8900  0.1878 -0.3441
   7623SM   HNF 9989   1.211   5.563  15.790  0.1288 -0.3378 -0.2707
   7623SM   C2S 9990   1.327   5.572  15.970  0.8586  0.1494 -0.2665
   7623SM   H2S 9991   1.337   5.657  16.040  2.5003 -1.0082  0.9612
   7623SM   C3S 9992   1.452   5.579  15.888 -0.5241 -0.5525  0.1970
   7623SM   H3S 9993   1.448   5.492  15.819 -0.2228 -0.9612  0.6900
   7623SM    O3 9994   1.574   5.572  15.965 -0.1189  0.8170  0.3804
   7623SM   HO3 9995   1.549   5.541  16.052 -3.0567 -1.2752 -1.0106
   7623SM   C4S 9996   1.459   5.709  15.801 -0.0181 -0.0339 -0.0551
   7623SM   H4S 9997   1.444   5.801  15.860 -0.4130  0.0131 -0.2215
   7623SM   C5S 9998   1.479   5.702  15.669  0.0237 -0.8196  0.5663
   7623SM   H5S 9999   1.507   5.603  15.631  1.8076 -1.5346  3.4579
   7623SM   C6S10000   1.470   5.820  15.579  0.2337  0.3141  0.0935
   7623SM   H6S10001   1.551   5.810  15.503  1.4302 -1.3406  1.5090
   7623SM   H6T10002   1.483   5.917  15.631 -2.2769  1.7357 -1.7030
   7623SM   C7S10003   1.330   5.838  15.515  0.9258 -0.8991 -0.3860
   7623SM   H7S10004   1.287   5.747  15.467  1.4273 -0.5506 -1.5308
   7623SM   H7T10005   1.345   5.904  15.426 -0.1602 -0.1642 -0.0470
   7623SM   C8S10006   1.225   5.891  15.613 -0.0720  0.0946  0.2679
   7623SM   H8S10007   1.258   5.989  15.653  1.6413 -1.3235  2.5901
   7623SM   H8T10008   1.213   5.826  15.703 -0.3016  1.0091  0.9183
   7623SM   C9S10009   1.092   5.915  15.544  0.5244  0.1483  0.9218
   7623SM   H9S10010   1.036   5.824  15.512 -1.9462  1.7738  0.3756
   7623SM   H9T10011   1.098   5.981  15.455  1.4048  1.2580  1.7787
   7623SM  C10S10012   0.993   6.000  15.620 -0.6244  0.5506 -0.6262
   7623SM  H10S10013   1.056   6.079  15.667 -0.3333  0.5596 -1.0264
   7623SM  H10T10014   0.946   5.932  15.694  0.9002  1.0525  0.8945
   7623SM  C11S10015   0.892   6.075  15.538 -0.0981 -0.4203 -0.0196
   7623SM  H11S10016   0.933   6.141  15.458 -1.4426 -0.9158 -1.1581
   7623SM  H11T10017   0.846   6.140  15.615  3.0507  0.6955  1.0759
   7623SM  C12S10018   0.784   5.994  15.475 -0.1376 -0.3851  0.8862
   7623SM  H12S10019   0.750   5.914  15.545  2.9934 -0.6849  2.2254
   7623SM  H12T10020   0.829   5.939  15.390  0.8851 -0.6184  1.5670
   7623SM  C13S10021   0.668   6.077  15.433  0.1237  0.0215 -0.2679
   7623SM  H13S10022   0.699   6.170  15.381 -3.3030 -0.4366 -3.5867
   7623SM  H13T10023   0.601   6.103  15.517 -0.5612 -1.4977 -0.2935
   7623SM  C14S10024   0.570   6.010  15.334  0.1007  0.1819  0.3638
   7623SM  H14S10025   0.462   6.014  15.358  0.0537 -1.0132  0.3899
   7623SM  H14T10026   0.586   5.900  15.332  2.4408  0.4722 -0.7074
   7623SM  C15S10027   0.588   6.042  15.186 -0.1514 -0.3906 -0.0801
   7623SM  H15S10028   0.699   6.045  15.177 -0.2692  1.6596 -1.5987
   7623SM  H15T10029   0.559   6.147  15.164 -0.0380 -0.1146  1.0140
   7623SM  C16S10030   0.529   5.946  15.088 -0.3007  0.4735 -0.1265
   7623SM  H16S10031   0.570   5.845  15.110  0.3665  0.8768  0.5496
   7623SM  H16T10032   0.564   5.976  14.987 -0.9132  1.4442 -0.0633
   7623SM  C17S10033   0.375   5.946  15.085  0.0786 -0.0774  0.8220
   7623SM  H17S10034   0.340   6.051  15.076  0.3365  0.0866  1.6294
   7623SM  H17T10035   0.332   5.898  15.176 -1.7144  1.9455  1.1211
   7623SM  C18S10036   0.319   5.875  14.968 -0.2357 -0.2226 -0.0774
   7623SM  H18S10037   0.211   5.858  14.988 -0.1697 -0.3767  0.1518
   7623SM  H18T10038   0.361   5.772  14.963 -0.8350 -0.4368 -0.8985
   7623SM  H18U10039   0.326   5.922  14.868  0.7855 -2.0167 -0.9148
   7623SM   C1F10040   1.088   5.588  15.948 -0.7832  0.3354 -0.2449
   7623SM    OF10041   1.084   5.600  16.068  0.2560  0.1664  0.3245
   7623SM   C2F10042   0.973   5.583  15.854 -0.6311  0.1326 -0.8747
   7623SM   H2F10043   0.947   5.479  15.827 -0.3953  0.0245 -0.6851
   7623SM   H2G10044   1.004   5.629  15.758  0.3683 -0.5123 -0.8730
   7623SM   C3F10045   0.848   5.653  15.910 -0.0427  0.0739 -0.1824
   7623SM   H3F10046   0.866   5.756  15.948  0.3675 -0.3585  0.8359
   7623SM   H3G10047   0.805   5.589  15.990  0.3891 -1.7625 -1.3810
   7623SM   C4F10048   0.735   5.665  15.801 -1.0700 -0.0118 -0.0240
   7623SM   H4F10049   0.761   5.730  15.715  0.9828  2.2209  2.1250
   7623SM   H4G10050   0.645   5.713  15.844 -2.1928 -2.0909  0.0788
   7623SM   C5F10051   0.682   5.526  15.748  0.2691 -0.6714 -0.8651
   7623SM   H5F10052   0.707   5.444  15.819 -0.2215  0.6779  0.9715
   7623SM   H5G10053   0.750   5.516  15.661  1.4224 -0.1507 -0.0536
   7623SM   C6F10054   0.533   5.511  15.703 -0.4854 -0.8653 -0.0016
   7623SM   H6F10055   0.468   5.505  15.793 -0.7487 -0.3512 -0.1522
   7623SM   H6G10056   0.512   5.415  15.650 -0.1758 -0.9870  0.0998
   7623SM   C7F10057   0.494   5.616  15.602 -0.0228 -0.0884 -0.8731
   7623SM   H7F10058   0.520   5.589  15.497  0.4124 -1.3530 -0.4458
   7623SM   H7G10059   0.532   5.720  15.617  1.1582 -0.7795  1.2499
   7623SM   C8F10060   0.341   5.634  15.601 -0.2664 -0.2110  0.1082
   7623SM   H8F10061   0.303   5.703  15.679 -2.2309 -2.0434  0.8671
   7623SM   H8G10062   0.303   5.531  15.618  0.6049 -0.5054  0.3261
   7623SM   C9F10063   0.286   5.689  15.470 -0.0197  0.3097 -0.1312
   7623SM   H9F10064   0.294   5.605  15.398  1.6070 -0.2292  0.6361
   7623SM   H9G10065   0.340   5.771  15.417 -2.0710  1.5068 -0.4986
   7623SM  C10F10066   0.141   5.744  15.483  0.5370 -0.1774  0.3567
   7623SM  H10F10067   0.111   5.817  15.560 -1.2741 -1.8765  1.3385
   7623SM  H10G10068   0.071   5.659  15.493  1.3743 -0.8902  0.2808
   7623SM  C11F10069   0.090   5.801  15.345 -0.6958 -0.2837  0.0459
   7623SM  H11F10070   0.128   5.904  15.324 -0.3690 -0.6300 -1.1637
   7623SM  H11G10071  -0.019   5.816  15.363 -0.3787  2.2135  0.2362
   7623SM  C12F10072   0.103   5.709  15.227 -0.0311 -0.4106  0.2891
   7623SM  H12F10073   0.086   5.607  15.269 -2.6533  0.1938  0.8705
   7623SM  H12G10074   0.204   5.699  15.181 -0.9840  1.0638 -2.2776
   7623SM  C13F10075  -0.000   5.719  15.122  0.0207  0.2425 -0.0729
   7623SM  H13F10076   0.032   5.664  15.031  1.2531  1.5179 -0.4467
   7623SM  H13G10077  -0.003   5.827  15.094  1.1572  0.0873 -0.8357
   7623SM  C14F10078  -0.140   5.672  15.159  0.2228  0.2113 -0.6546
   7623SM  H14F10079  -0.189   5.719  15.247  2.1478  3.3311 -1.1131
   7623SM  H14G10080  -0.133   5.564  15.183 -1.4661  0.0978 -0.5342
   7623SM  C15F10081  -0.238   5.696  15.049  0.9387  0.4700  0.3317
   7623SM  H15F10082  -0.333   5.642  15.067  1.0785  0.2143  0.3149
   7623SM  H15G10083  -0.198   5.654  14.954  1.0023  0.0396  0.5466
   7623SM  C16F10084  -0.254   5.844  15.031 -0.1220 -0.2928  0.1562
   7623SM  H16F10085  -0.155   5.883  14.996  0.7376 -3.7745 -1.7930
   7623SM  H16G10086  -0.284   5.894  15.125 -1.1187 -0.6488  0.0343
   7623SM  C17F10087  -0.359   5.899  14.921 -0.2590  0.5743  0.2579
   7623SM  H17F10088  -0.355   6.010  14.921 -0.7984  0.6131 -1.2663
   7623SM  H17G10089  -0.459   5.862  14.954  0.0356  0.9088  1.5977
   7623SM  C18F10090  -0.324   5.848  14.781 -0.0501  0.0093 -0.5080
   7623SM  H18F10091  -0.397   5.896  14.712 -0.7257 -0.5226 -0.1700
   7623SM  H18G10092  -0.331   5.738  14.774  0.8161  0.0122 -1.7324
   7623SM  C19F10093  -0.187   5.895  14.723  0.3607 -0.2753  0.2998
   7623SM  H19F10094  -0.105   5.846  14.780  0.5552 -0.2095  0.0763
   7623SM  H19G10095  -0.166   6.004  14.730 -0.1939 -0.1898  0.7347
   7623SM  C20F10096  -0.168   5.848  14.577  0.0806 -0.5051  0.3962
   7623SM  H20F10097  -0.226   5.901  14.499  2.9718  1.7446 -0.4039
   7623SM  H20G10098  -0.200   5.741  14.576 -0.0737 -0.4545 -0.2135
   7623SM  C21F10099  -0.017   5.857  14.548 -0.0315  0.0865 -0.4968
   7623SM  H21F10100   0.039   5.845  14.643 -1.2268 -0.7518  0.1290
   7623SM  H21G10101   0.003   5.963  14.520 -0.1822  0.8911  2.1083
   7623SM  C22F10102   0.045   5.759  14.440 -0.0808 -0.2272 -0.4988
   7623SM  H22F10103  -0.011   5.758  14.343  0.6483  2.9568 -1.0666
   7623SM  H22G10104   0.047   5.657  14.484 -0.5819 -0.5422 -1.1871
   7623SM  C23F10105   0.189   5.796  14.402 -0.1865 -0.1109 -0.0429
   7623SM  H23F10106   0.173   5.894  14.352 -2.1079 -0.3922 -0.0532
   7623SM  H23G10107   0.235   5.718  14.338  4.3372  2.3382 -0.2264
   7623SM  H23H10108   0.263   5.790  14.485 -2.0138 -1.6185  1.5495
   7723SM     N10109   9.029   1.993  16.648 -0.0455 -0.4005 -0.5845
   7723SM   C1510110   9.177   1.949  16.665  0.7928  0.0465 -1.0716
   7723SM  H15A10111   9.234   2.030  16.707 -0.1292  0.8353 -1.2912
   7723SM  H15B10112   9.230   1.919  16.576  3.0955 -0.3037  0.3422
   7723SM  H15C10113   9.178   1.860  16.727 -1.0948  1.1307  0.6466
   7723SM   C1410114   8.965   2.014  16.783  0.5084 -0.7183 -0.3643
   7723SM  H14A10115   8.867   2.055  16.761  0.2465 -0.3614  1.3534
   7723SM  H14B10116   9.029   2.082  16.838  0.2748 -0.1855 -0.7330
   7723SM  H14C10117   8.948   1.923  16.838  0.2422 -0.8461 -0.6505
   7723SM   C1310118   9.019   2.123  16.570  0.1293 -0.4625  0.2706
   7723SM  H13A10119   8.919   2.148  16.539 -0.2140  1.5160  2.6896
   7723SM  H13B10120   9.086   2.115  16.485 -1.6818 -1.4932 -1.1397
   7723SM  H13C10121   9.054   2.213  16.618 -0.1813  0.0952 -0.5301
   7723SM   C1210122   8.954   1.881  16.582  0.3239 -0.1280  0.0409
   7723SM  H12A10123   8.853   1.914  16.566  0.2447  1.2464  2.7579
   7723SM  H12B10124   8.953   1.805  16.659 -2.6548 -0.0387  0.1963
   7723SM   C1110125   8.994   1.815  16.442 -0.5017  0.4731 -0.2341
   7723SM  H11A10126   8.997   1.901  16.372 -0.4587 -0.2057 -1.0888
   7723SM  H11B10127   8.917   1.741  16.411  1.2591 -1.1324 -0.9998
   7723SM     P10128   9.139   1.587  16.454 -0.0596  0.0368 -0.2963
   7723SM   O1310129   9.280   1.534  16.452  0.0532  0.1393 -0.4539
   7723SM   O1410130   9.054   1.522  16.558 -0.3906  0.2844  0.3006
   7723SM   O1110131   9.073   1.564  16.315  0.0593 -0.1373 -0.3325
   7723SM   O1210132   9.127   1.747  16.449  0.2175  0.3368  0.1599
   7723SM   C1S10133   9.153   1.583  16.201  0.1193  0.3386 -0.2675
   7723SM   H1S10134   9.233   1.506  16.203 -0.3587 -0.1594  0.5940
   7723SM   H1T10135   9.201   1.683  16.193  0.1468  0.4608  1.1802
   7723SM    NF10136   9.172   1.576  15.955  0.1851  0.0116 -0.7416
   7723SM   HNF10137   9.193   1.654  15.896  1.7510 -1.1122 -1.7473
   7723SM   C2S10138   9.073   1.577  16.071 -0.5853  0.6644 -0.2042
   7723SM   H2S10139   9.021   1.479  16.074 -1.0216  0.8252 -1.5925
   7723SM   C3S10140   8.967   1.682  16.054  0.6041  0.4752 -0.4961
   7723SM   H3S10141   9.005   1.787  16.057 -2.7920  1.8273 -0.7315
   7723SM    O310142   8.868   1.686  16.161 -0.1821  0.0679  0.2365
   7723SM   HO310143   8.914   1.624  16.219  1.8006  1.8648  0.6795
   7723SM   C4S10144   8.906   1.686  15.913  0.6743  0.5930 -0.6612
   7723SM   H4S10145   8.963   1.762  15.857  2.3884  1.2161  1.7645
   7723SM   C5S10146   8.800   1.618  15.858  0.0892 -0.4157  0.4658
   7723SM   H5S10147   8.735   1.556  15.922  1.4685 -1.2161  1.1517
   7723SM   C6S10148   8.754   1.618  15.715 -0.0074 -0.7319 -0.2952
   7723SM   H6S10149   8.812   1.681  15.643  1.5707 -1.2768  0.4630
   7723SM   H6T10150   8.650   1.654  15.700 -0.3708 -1.4228  0.5060
   7723SM   C7S10151   8.760   1.468  15.671  0.2864 -0.5910 -0.0884
   7723SM   H7S10152   8.669   1.419  15.711 -0.9463  2.6305  1.4670
   7723SM   H7T10153   8.853   1.423  15.712  0.7294  0.7397  0.4238
   7723SM   C8S10154   8.773   1.455  15.522  0.1287 -0.8373 -0.6842
   7723SM   H8S10155   8.698   1.523  15.475  0.4720  0.0867  0.0736
   7723SM   H8T10156   8.732   1.352  15.512 -2.2408  0.0522 -0.7557
   7723SM   C9S10157   8.906   1.475  15.456 -0.1901  1.0867 -0.0615
   7723SM   H9S10158   8.982   1.427  15.521  1.0423  0.9823 -1.5347
   7723SM   H9T10159   8.930   1.583  15.448 -1.1918  1.1868 -2.8922
   7723SM  C10S10160   8.914   1.402  15.320  0.0483  0.2659 -0.3556
   7723SM  H10S10161   8.841   1.446  15.248 -0.1746 -1.3400 -1.1561
   7723SM  H10T10162   8.882   1.295  15.326  0.1623  0.2425 -0.1829
   7723SM  C11S10163   9.065   1.399  15.273  0.1908 -0.6841  0.0001
   7723SM  H11S10164   9.118   1.335  15.347 -2.1605 -1.0118  1.5075
   7723SM  H11T10165   9.106   1.502  15.271 -0.6580 -0.3388 -0.9430
   7723SM  C12S10166   9.084   1.325  15.134 -0.2338 -0.0491  0.2519
   7723SM  H12S10167   9.029   1.229  15.131  1.0809 -0.8322  0.0373
   7723SM  H12T10168   9.191   1.294  15.139 -0.4401 -0.9172 -0.4984
   7723SM  C13S10169   9.050   1.419  15.011 -0.5401 -0.3094  0.1025
   7723SM  H13S10170   9.116   1.508  15.000  0.7503 -0.8331  2.6054
   7723SM  H13T10171   8.950   1.457  15.039 -0.3177 -0.9565  1.9845
   7723SM  C14S10172   9.048   1.348  14.879  0.8110 -0.3993  0.0473
   7723SM  H14S10173   9.034   1.429  14.803  0.2423 -0.1374  0.4297
   7723SM  H14T10174   8.959   1.282  14.879 -1.0747  2.0032 -0.0730
   7723SM  C15S10175   9.180   1.280  14.846  0.2839 -0.7886  0.3733
   7723SM  H15S10176   9.194   1.179  14.891  1.8202 -1.6304 -1.7814
   7723SM  H15T10177   9.267   1.338  14.881 -0.3884  1.4571 -1.4420
   7723SM  C16S10178   9.188   1.246  14.695 -0.2327 -0.1493  0.1060
   7723SM  H16S10179   9.187   1.341  14.638  1.2207 -0.2800 -0.1847
   7723SM  H16T10180   9.093   1.193  14.675 -0.1753  0.2653 -1.4145
   7723SM  C17S10181   9.312   1.170  14.646 -0.7429  0.1731  0.2640
   7723SM  H17S10182   9.317   1.073  14.700  1.4587  0.5354  0.7759
   7723SM  H17T10183   9.402   1.226  14.679 -0.3213  0.7923 -1.7667
   7723SM  C18S10184   9.329   1.152  14.494  0.1380 -0.4852 -0.3869
   7723SM  H18S10185   9.236   1.107  14.453  0.4051 -0.2278 -1.3060
   7723SM  H18T10186   9.419   1.090  14.475  2.2858  1.9133  1.2926
   7723SM  H18U10187   9.334   1.249  14.439  0.8853 -0.7866 -0.8599
   7723SM   C1F10188   9.246   1.466  15.938 -0.1723 -0.2275 -0.3370
   7723SM    OF10189   9.239   1.370  16.010  0.2811  0.3425 -0.0314
   7723SM   C2F10190   9.344   1.477  15.827 -0.5835 -0.5864  0.9255
   7723SM   H2F10191   9.449   1.474  15.864 -0.2138  3.0407  0.5208
   7723SM   H2G10192   9.332   1.576  15.778  2.8645  0.8180  2.5761
   7723SM   C3F10193   9.337   1.358  15.725 -0.1490 -0.2419 -0.6739
   7723SM   H3F10194   9.365   1.268  15.783  1.4013 -0.0623 -1.1061
   7723SM   H3G10195   9.410   1.381  15.644  1.5284 -2.4301  0.1098
   7723SM   C4F10196   9.194   1.321  15.672 -0.2388  0.1693 -0.1235
   7723SM   H4F10197   9.168   1.400  15.599 -1.1039  0.2620  0.2769
   7723SM   H4G10198   9.120   1.321  15.754 -1.3886 -0.4258 -1.1282
   7723SM   C5F10199   9.169   1.179  15.600  0.4463 -0.5141 -0.4902
   7723SM   H5F10200   9.230   1.102  15.653 -0.2507 -0.5220  0.3243
   7723SM   H5G10201   9.196   1.190  15.493  2.4460  4.6599  0.2618
   7723SM   C6F10202   9.024   1.132  15.619  0.2928  0.2186  1.1220
   7723SM   H6F10203   8.937   1.190  15.582 -0.2960 -1.5755 -0.4878
   7723SM   H6G10204   9.000   1.105  15.724 -0.7411 -0.4099  0.7467
   7723SM   C7F10205   9.007   0.995  15.543 -0.2660  0.0577 -0.0250
   7723SM   H7F10206   8.907   0.952  15.565  0.5359 -1.7566  0.2297
   7723SM   H7G10207   9.072   0.913  15.579  0.0343  0.6552  0.8179
   7723SM   C8F10208   9.010   1.012  15.392  0.1959  0.5952  0.6305
   7723SM   H8F10209   9.119   1.020  15.374  0.7109 -0.7510  2.7489
   7723SM   H8G10210   8.948   1.092  15.347 -0.1499  0.0744  0.1654
   7723SM   C9F10211   8.975   0.888  15.312 -0.4769 -0.4997 -0.1611
   7723SM   H9F10212   8.865   0.880  15.321 -0.5299  0.2633 -0.0327
   7723SM   H9G10213   9.024   0.795  15.346 -0.8006 -0.0999  1.4885
   7723SM  C10F10214   9.001   0.912  15.161 -0.1487  0.0966 -0.5398
   7723SM  H10F10215   9.101   0.960  15.156  0.8640 -1.8752  0.0627
   7723SM  H10G10216   8.919   0.975  15.120 -1.8781 -2.5400 -1.3957
   7723SM  C11F10217   9.010   0.779  15.085  0.1060  0.2300  0.6696
   7723SM  H11F10218   8.929   0.714  15.125  0.3528 -1.3444 -1.2073
   7723SM  H11G10219   9.102   0.732  15.124  0.5347  2.6789  2.8753
   7723SM  C12F10220   9.015   0.781  14.929  0.3013  0.3318  0.0953
   7723SM  H12F10221   9.023   0.677  14.890 -3.0397 -0.5372  1.4230
   7723SM  H12G10222   9.116   0.826  14.916  0.8716 -0.9615 -0.1459
   7723SM  C13F10223   8.902   0.856  14.852 -0.9864 -0.2295  0.0520
   7723SM  H13F10224   8.953   0.906  14.767 -2.2327 -0.3235 -0.7862
   7723SM  H13G10225   8.868   0.937  14.920 -1.8201 -1.0960  0.6924
   7723SM  C14F10226   8.790   0.776  14.800  0.5757  0.2219 -0.6932
   7723SM  H14F10227   8.838   0.693  14.744  1.6551 -0.3269  0.9642
   7723SM  H14G10228   8.730   0.842  14.733 -1.1500  0.4991  1.0303
   7723SM  C15F10229   8.707   0.719  14.916  0.7659  0.2126 -0.1958
   7723SM  H15F10230   8.691   0.809  14.979  0.8113  1.7981 -2.3318
   7723SM  H15G10231   8.754   0.639  14.977 -1.2543  0.7439  2.1991
   7723SM  C16F10232   8.573   0.678  14.856  0.1014  0.8137  0.5188
   7723SM  H16F10233   8.546   0.752  14.777 -0.0424 -1.3600 -1.6067
   7723SM  H16G10234   8.507   0.679  14.945 -0.3474 -0.4546  0.2262
   7723SM  C17F10235   8.571   0.536  14.790  0.1926  0.4503  0.1702
   7723SM  H17F10236   8.619   0.466  14.863  1.4789  0.4107 -0.6790
   7723SM  H17G10237   8.636   0.534  14.700 -1.8521  2.0228 -1.4403
   7723SM  C18F10238   8.427   0.489  14.749 -0.3422 -0.6495 -0.6360
   7723SM  H18F10239   8.364   0.500  14.839  0.0942  2.5789 -0.6123
   7723SM  H18G10240   8.433   0.386  14.707  1.9467  0.0064 -2.1453
   7723SM  C19F10241   8.367   0.572  14.634 -0.6544 -0.9504  1.1365
   7723SM  H19F10242   8.325   0.672  14.658 -1.7526 -1.1386  0.0813
   7723SM  H19G10243   8.280   0.528  14.581  0.6010 -1.9286 -0.1612
   7723SM  C20F10244   8.467   0.606  14.520  0.3666 -0.4968 -0.1795
   7723SM  H20F10245   8.527   0.518  14.487  0.3056 -0.7608  0.4086
   7723SM  H20G10246   8.542   0.681  14.555 -0.4642  1.0107 -1.5060
   7723SM  C21F10247   8.395   0.680  14.407 -0.4974  0.1683 -0.0374
   7723SM  H21F10248   8.343   0.765  14.456 -1.5479 -0.0678 -0.7124
   7723SM  H21G10249   8.316   0.617  14.361 -0.6093  0.9810 -0.9984
   7723SM  C22F10250   8.489   0.736  14.299 -0.9043 -0.1890  0.3191
   7723SM  H22F10251   8.522   0.648  14.239  0.5503  0.6036 -0.0886
   7723SM  H22G10252   8.572   0.786  14.352 -2.8621  0.6157  2.8193
   7723SM  C23F10253   8.423   0.826  14.194  0.1036 -0.2637  0.8137
   7723SM  H23F10254   8.386   0.915  14.251  0.9447 -0.8531  2.3323
   7723SM  H23G10255   8.346   0.767  14.140  0.0465  0.6386 -0.1110
   7723SM  H23H10256   8.503   0.851  14.122 -0.0345 -1.6278  0.1569
   7823SM     N10257   0.292   6.548  16.739 -0.3568 -0.1056  0.1625
   7823SM   C1510258   0.276   6.399  16.728  0.2917 -0.2146  0.1415
   7823SM  H15A10259   0.331   6.347  16.804  0.4688 -0.5503 -0.2145
   7823SM  H15B10260   0.317   6.361  16.636  1.8342  0.2363  0.6085
   7823SM  H15C10261   0.174   6.369  16.747  0.2133  0.4524  0.8058
   7823SM   C1410262   0.259   6.591  16.881 -0.7441  0.1406 -0.2808
   7823SM  H14A10263   0.193   6.676  16.883  0.7178  1.3058 -0.5747
   7823SM  H14B10264   0.346   6.614  16.940 -2.7468  1.0299  2.5542
   7823SM  H14C10265   0.207   6.512  16.933 -1.3113 -0.5590 -1.8285
   7823SM   C1310266   0.434   6.575  16.711  0.6613 -0.3722 -0.0533
   7823SM  H13A10267   0.460   6.678  16.731  1.1315 -0.3928 -0.5326
   7823SM  H13B10268   0.447   6.550  16.607 -0.0946  1.1108 -0.5218
   7823SM  H13C10269   0.497   6.517  16.777  1.0291  0.4048  0.2915
   7823SM   C1210270   0.199   6.615  16.635 -0.6278 -0.0328 -0.5213
   7823SM  H12A10271   0.199   6.721  16.658 -0.6042 -0.4653  1.7003
   7823SM  H12B10272   0.097   6.581  16.638 -0.4389 -0.6148 -0.7417
   7823SM   C1110273   0.233   6.593  16.479 -0.1823 -0.6515  0.9308
   7823SM  H11A10274   0.164   6.654  16.416  1.6272 -0.1316 -0.6213
   7823SM  H11B10275   0.227   6.483  16.462  0.9181 -0.6725  0.6141
   7823SM     P10276   0.410   6.792  16.439 -0.1095 -0.0067 -0.3874
   7823SM   O1310277   0.367   6.878  16.557  0.4601  0.5346 -0.1138
   7823SM   O1410278   0.552   6.796  16.406  0.1561 -0.1000  0.6424
   7823SM   O1110279   0.328   6.844  16.314 -0.0854 -0.3373  0.5155
   7823SM   O1210280   0.370   6.633  16.451  0.7130 -0.4196  0.0666
   7823SM   C1S10281   0.364   6.776  16.191  0.4023  0.6653  0.5288
   7823SM   H1S10282   0.331   6.670  16.198  2.3432 -0.0380 -0.2730
   7823SM   H1T10283   0.475   6.766  16.188  0.2397 -1.4757 -2.1393
   7823SM    NF10284   0.339   6.776  15.942  0.1886 -0.1883  0.3699
   7823SM   HNF10285   0.423   6.804  15.896  0.4268  1.2797  1.6017
   7823SM   C2S10286   0.315   6.850  16.061  0.3688  0.3378 -0.2095
   7823SM   H2S10287   0.205   6.857  16.080  0.3686  1.4371 -0.5090
   7823SM   C3S10288   0.364   6.999  16.064  0.0261 -0.0065  0.6749
   7823SM   H3S10289   0.470   6.986  16.034 -0.8777 -1.3654 -2.3650
   7823SM    O310290   0.359   7.067  16.188  0.8759 -0.1584  0.3631
   7823SM   HO310291   0.319   6.998  16.243  0.1020 -0.8267 -0.9895
   7823SM   C4S10292   0.294   7.076  15.953 -0.3745  0.6059  0.3141
   7823SM   H4S10293   0.362   7.080  15.867  0.4171  2.4433  0.9643
   7823SM   C5S10294   0.187   7.158  15.967 -0.4860  0.2141 -0.5861
   7823SM   H5S10295   0.128   7.155  16.060 -0.1364  0.7299 -0.3435
   7823SM   C6S10296   0.145   7.258  15.862 -0.1139  0.5032  0.1519
   7823SM   H6S10297   0.133   7.363  15.896 -2.9863  0.4132 -0.3590
   7823SM   H6T10298   0.042   7.229  15.834  1.0975 -1.8656 -2.2355
   7823SM   C7S10299   0.221   7.254  15.725 -1.0845 -1.1264  0.1502
   7823SM   H7S10300   0.221   7.147  15.694  1.4643 -0.6286 -1.8955
   7823SM   H7T10301   0.326   7.289  15.736 -1.0138 -1.6861  1.4803
   7823SM   C8S10302   0.153   7.351  15.627  0.2519 -0.2885 -0.3542
   7823SM   H8S10303   0.042   7.354  15.635  0.1540  0.5051 -1.5987
   7823SM   H8T10304   0.190   7.323  15.526  1.0496  0.0781 -0.1703
   7823SM   C9S10305   0.190   7.499  15.650 -0.0054 -0.0756  0.1465
   7823SM   H9S10306   0.298   7.498  15.676 -0.1945 -0.2447  0.9517
   7823SM   H9T10307   0.129   7.540  15.734 -0.7619 -1.5097  0.3238
   7823SM  C10S10308   0.184   7.569  15.516 -0.2796 -0.5087 -0.1773
   7823SM  H10S10309   0.255   7.534  15.439 -1.0739  0.0007 -1.1589
   7823SM  H10T10310   0.213   7.675  15.533 -1.2261 -0.1078 -0.9956
   7823SM  C11S10311   0.046   7.579  15.452  0.2822 -0.1629  0.7995
   7823SM  H11S10312  -0.029   7.565  15.534 -1.8883  0.2769 -0.9981
   7823SM  H11T10313   0.028   7.498  15.378  1.7729  0.1268  0.0969
   7823SM  C12S10314   0.019   7.714  15.366 -0.4648  0.4019  0.6866
   7823SM  H12S10315   0.014   7.809  15.424  0.3608 -0.3692  2.0905
   7823SM  H12T10316  -0.082   7.697  15.324 -0.6435 -2.3606  1.9995
   7823SM  C13S10317   0.112   7.731  15.236 -0.4679  0.0044 -0.0960
   7823SM  H13S10318   0.208   7.776  15.270  0.3369 -2.3772  0.9972
   7823SM  H13T10319   0.063   7.803  15.166 -1.1071  0.2097  0.5518
   7823SM  C14S10320   0.160   7.604  15.157 -0.0519  0.1273 -0.2716
   7823SM  H14S10321   0.211   7.552  15.241  1.6746 -0.6495 -1.7194
   7823SM  H14T10322   0.236   7.622  15.077 -0.0204 -0.0550 -0.2830
   7823SM  C15S10323   0.035   7.536  15.106 -0.5373  0.0895  0.3994
   7823SM  H15S10324   0.005   7.584  15.011  2.2030  0.1947 -0.5033
   7823SM  H15T10325  -0.055   7.547  15.171 -1.6332 -1.3213 -0.7873
   7823SM  C16S10326   0.050   7.384  15.068 -0.2033 -0.0125  0.2995
   7823SM  H16S10327   0.115   7.372  14.979 -1.0782  2.3061 -0.7230
   7823SM  H16T10328  -0.045   7.356  15.017  0.1815  0.3855 -0.6505
   7823SM  C17S10329   0.105   7.299  15.181 -0.3913  0.0497  0.0116
   7823SM  H17S10330   0.050   7.300  15.277 -1.6357  0.2216 -0.6826
   7823SM  H17T10331   0.210   7.334  15.194 -0.3527  0.8703 -2.0755
   7823SM  C18S10332   0.113   7.152  15.132 -0.2062  0.2892 -0.9231
   7823SM  H18S10333   0.007   7.123  15.118 -0.3969  0.9121 -0.8194
   7823SM  H18T10334   0.156   7.087  15.211 -2.3516  0.5258  0.5180
   7823SM  H18U10335   0.166   7.157  15.034 -1.1124 -0.3452 -1.4577
   7823SM   C1F10336   0.285   6.659  15.923  0.3272 -0.0451 -0.5476
   7823SM    OF10337   0.173   6.639  15.966 -0.0460  0.0107 -0.6263
   7823SM   C2F10338   0.365   6.560  15.851  0.2602  0.6157 -0.1353
   7823SM   H2F10339   0.441   6.526  15.924 -2.3315 -0.5649  2.1591
   7823SM   H2G10340   0.426   6.606  15.770  0.7435  0.9025  0.3804
   7823SM   C3F10341   0.299   6.424  15.819  0.1219  0.2550  0.5401
   7823SM   H3F10342   0.243   6.393  15.910 -1.9915 -1.0490 -1.1051
   7823SM   H3G10343   0.386   6.355  15.809 -0.7133 -0.5341 -2.0204
   7823SM   C4F10344   0.211   6.424  15.692 -0.2628  0.7643 -0.6952
   7823SM   H4F10345   0.263   6.479  15.611  1.5434 -0.1675 -0.2356
   7823SM   H4G10346   0.123   6.485  15.721  1.1201  1.4086  2.7236
   7823SM   C5F10347   0.165   6.283  15.658  0.1611 -0.5057 -0.3356
   7823SM   H5F10348   0.099   6.237  15.734 -0.9527  0.6310 -0.5855
   7823SM   H5G10349   0.249   6.209  15.656  1.4463  0.9084 -0.7649
   7823SM   C6F10350   0.109   6.278  15.517  0.0483  0.1905  0.2923
   7823SM   H6F10351   0.199   6.301  15.456 -0.0806  1.1291  0.4275
   7823SM   H6G10352   0.030   6.354  15.497  0.8937  1.4146  1.4412
   7823SM   C7F10353   0.065   6.132  15.469 -0.1977 -0.3246  0.0468
   7823SM   H7F10354  -0.009   6.096  15.544 -0.2570  1.0317  0.6763
   7823SM   H7G10355   0.156   6.070  15.457 -0.9705 -1.1968 -1.5543
   7823SM   C8F10356  -0.005   6.136  15.332  0.4709 -0.4126 -0.4308
   7823SM   H8F10357  -0.080   6.218  15.337 -0.7991 -1.4020 -2.3872
   7823SM   H8G10358  -0.063   6.045  15.305  1.3568 -1.2099  0.2756
   7823SM   C9F10359   0.091   6.181  15.218 -0.0591  0.2736 -0.4779
   7823SM   H9F10360   0.176   6.109  15.222  0.0925  0.5313  1.5850
   7823SM   H9G10361   0.141   6.279  15.233  0.9750 -0.5115  1.5450
   7823SM  C10F10362   0.024   6.182  15.078 -0.1816  0.3675  0.1608
   7823SM  H10F10363  -0.067   6.244  15.095 -1.1255 -0.8993 -0.1232
   7823SM  H10G10364  -0.000   6.078  15.047 -0.6736  0.5709 -0.1405
   7823SM  C11F10365   0.115   6.259  14.981  0.5379  0.1091  0.1753
   7823SM  H11F10366   0.221   6.227  14.986  1.1569  1.8922 -0.6102
   7823SM  H11G10367   0.110   6.367  15.004  1.4028  1.2215 -3.9460
   7823SM  C12F10368   0.059   6.250  14.836  0.6355  0.3168  0.8268
   7823SM  H12F10369   0.065   6.147  14.795 -0.0235  0.1531  1.1316
   7823SM  H12G10370   0.118   6.311  14.764 -0.7266 -1.0386 -1.5264
   7823SM  C13F10371  -0.092   6.299  14.819  0.5183 -0.4816 -0.3019
   7823SM  H13F10372  -0.105   6.394  14.874  1.3945  0.9609 -2.4303
   7823SM  H13G10373  -0.151   6.223  14.873  1.3319  0.0855  1.4414
   7823SM  C14F10374  -0.131   6.312  14.672  0.0750 -0.6871  0.2603
   7823SM  H14F10375  -0.062   6.252  14.611 -0.1434 -0.3368 -0.3363
   7823SM  H14G10376  -0.115   6.416  14.636 -0.3772 -0.0291  1.8639
   7823SM  C15F10377  -0.271   6.264  14.642  0.6724  1.0497 -0.1484
   7823SM  H15F10378  -0.356   6.335  14.658 -1.5886 -1.4167 -0.5736
   7823SM  H15G10379  -0.283   6.170  14.699  2.9282 -0.2278 -1.6433
   7823SM  C16F10380  -0.290   6.228  14.493  0.0876 -1.0085  0.0706
   7823SM  H16F10381  -0.196   6.174  14.470  2.1094  1.6276  1.5283
   7823SM  H16G10382  -0.297   6.317  14.427  0.7234 -1.6955 -0.9350
   7823SM  C17F10383  -0.420   6.147  14.467 -0.1097 -0.2940 -0.5843
   7823SM  H17F10384  -0.506   6.217  14.479  2.1588  2.3769  1.2919
   7823SM  H17G10385  -0.419   6.060  14.535 -0.2684 -2.1560 -2.8380
   7823SM  C18F10386  -0.416   6.096  14.330  0.1006 -0.3601  0.1063
   7823SM  H18F10387  -0.342   6.013  14.329 -0.6170 -1.0597  1.7781
   7823SM  H18G10388  -0.372   6.180  14.272  1.0206 -0.1524  1.0738
   7823SM  C19F10389  -0.555   6.059  14.272  0.6140 -0.0320  0.0812
   7823SM  H19F10390  -0.543   5.983  14.191  0.6526  0.5087 -0.4249
   7823SM  H19G10391  -0.587   6.155  14.226  0.0811  0.0773  0.6778
   7823SM  C20F10392  -0.655   6.002  14.372  0.6150 -0.2975  0.2038
   7823SM  H20F10393  -0.702   6.086  14.427  0.2245  1.4509 -2.5761
   7823SM  H20G10394  -0.606   5.938  14.448  1.2861  1.0068  0.8976
   7823SM  C21F10395  -0.770   5.926  14.301  1.0224  0.3218  0.6529
   7823SM  H21F10396  -0.727   5.827  14.273  2.4821  0.5805  1.8412
   7823SM  H21G10397  -0.803   5.984  14.211  2.5236 -0.5697 -0.5285
   7823SM  C22F10398  -0.896   5.920  14.384  0.4704  0.1904 -0.3237
   7823SM  H22F10399  -0.942   6.020  14.402 -1.1394 -1.0227  3.2466
   7823SM  H22G10400  -0.865   5.895  14.488  0.6007  4.2913  0.8095
   7823SM  C23F10401  -1.008   5.832  14.337  0.6425 -0.1469  0.1025
   7823SM  H23F10402  -1.093   5.847  14.406  0.8402 -0.1836  0.3581
   7823SM  H23G10403  -0.977   5.725  14.340 -2.8977 -1.3266 -0.5929
   7823SM  H23H10404  -1.031   5.861  14.232  0.1411 -2.2235 -0.4010
   7923SM     N10405   6.824   0.500  16.714  0.0936  0.1724  0.5697
   7923SM   C1510406   6.753   0.419  16.814  0.0800 -0.1099 -0.4025
   7923SM  H15A10407   6.710   0.485  16.889  0.9895 -0.9420  0.8982
   7923SM  H15B10408   6.822   0.371  16.881 -1.4852  0.7971  2.0156
   7923SM  H15C10409   6.681   0.356  16.764 -1.7512  1.3108  0.2754
   7923SM   C1410410   6.881   0.415  16.597 -0.1887  0.3050  0.5216
   7923SM  H14A10411   6.950   0.342  16.635  1.4174  2.1120  1.2197
   7923SM  H14B10412   6.952   0.469  16.537  1.0460 -2.7812 -1.0142
   7923SM  H14C10413   6.802   0.368  16.540 -0.4454 -0.9825  1.8678
   7923SM   C1310414   6.718   0.584  16.654  0.2631  0.0874  0.3652
   7923SM  H13A10415   6.674   0.647  16.730 -1.0519 -0.0067 -0.2992
   7923SM  H13B10416   6.633   0.524  16.627  0.1248  0.9681 -1.2621
   7923SM  H13C10417   6.752   0.630  16.562  0.4753 -1.5382 -0.4064
   7923SM   C1210418   6.936   0.585  16.769  0.7723  0.0028  0.0961
   7923SM  H12A10419   6.894   0.650  16.844  0.2388 -0.9169  0.6034
   7923SM  H12B10420   6.967   0.653  16.691  0.1072 -0.5223 -0.6355
   7923SM   C1110421   7.063   0.530  16.833  0.0642  0.5486  0.2121
   7923SM  H11A10422   7.025   0.452  16.901  1.1103 -0.2027 -0.0448
   7923SM  H11B10423   7.107   0.606  16.901 -0.3716 -0.4813  1.6841
   7923SM     P10424   7.246   0.539  16.643 -0.1057 -0.3179 -0.5858
   7923SM   O1310425   7.292   0.668  16.698 -0.3036 -0.1536  1.0782
   7923SM   O1410426   7.352   0.438  16.605  0.5378 -0.1487  0.7752
   7923SM   O1110427   7.157   0.587  16.515 -0.1834 -0.2336 -0.3580
   7923SM   O1210428   7.146   0.472  16.735  0.0576  0.1229  0.1750
   7923SM   C1S10429   7.224   0.650  16.400  0.0270 -0.4178 -0.2146
   7923SM   H1S10430   7.268   0.564  16.345 -0.1375 -0.0043 -1.0040
   7923SM   H1T10431   7.305   0.717  16.434 -0.5333  0.0469  0.2386
   7923SM    NF10432   7.198   0.788  16.200  0.4437 -0.9343  0.0046
   7923SM   HNF10433   7.193   0.887  16.189  0.7293 -1.0987 -2.1177
   7923SM   C2S10434   7.129   0.724  16.305  0.9741 -0.4158 -0.9442
   7923SM   H2S10435   7.064   0.643  16.265 -0.9042  1.3498 -1.6485
   7923SM   C3S10436   7.021   0.815  16.375  0.3982 -0.1612 -0.7202
   7923SM   H3S10437   7.069   0.906  16.418 -0.4221  1.2700 -2.6466
   7923SM    O310438   6.946   0.760  16.481 -0.0945 -0.0893 -0.4704
   7923SM   HO310439   6.997   0.681  16.495 -0.1985 -0.2184 -0.8031
   7923SM   C4S10440   6.931   0.869  16.269 -0.6133 -0.1460  0.0353
   7923SM   H4S10441   6.966   0.957  16.214 -0.1924 -0.2758  0.0958
   7923SM   C5S10442   6.822   0.818  16.217  0.4076 -0.2055 -0.9935
   7923SM   H5S10443   6.787   0.723  16.261 -2.0695  2.1439  2.6328
   7923SM   C6S10444   6.745   0.879  16.101 -0.0147 -0.5735 -0.4823
   7923SM   H6S10445   6.650   0.930  16.128  1.2855  0.3581  2.8009
   7923SM   H6T10446   6.694   0.802  16.039  0.0803 -0.7805 -0.3059
   7923SM   C7S10447   6.821   0.983  16.012  0.0584 -0.0414  0.2983
   7923SM   H7S10448   6.923   0.946  15.986 -0.6667 -2.7007  1.0175
   7923SM   H7T10449   6.833   1.077  16.070 -0.2125 -1.1189  2.1526
   7923SM   C8S10450   6.743   1.003  15.887 -0.1335  0.0416 -0.3460
   7923SM   H8S10451   6.633   1.011  15.905 -0.0346  1.5947 -0.2889
   7923SM   H8T10452   6.757   0.913  15.824 -2.4366 -0.7727  0.1965
   7923SM   C9S10453   6.795   1.111  15.800 -0.2652  0.3866  0.1211
   7923SM   H9S10454   6.749   1.208  15.827 -1.0414  0.2394 -0.6299
   7923SM   H9T10455   6.755   1.109  15.697 -0.8091  1.2125  0.3079
   7923SM  C10S10456   6.953   1.117  15.789  0.2457 -0.3690  0.3738
   7923SM  H10S10457   6.981   1.016  15.753 -1.0489 -0.6088 -0.0142
   7923SM  H10T10458   6.994   1.136  15.891  0.2050 -1.9424  0.7223
   7923SM  C11S10459   6.999   1.222  15.689 -0.5868 -0.3831  0.3394
   7923SM  H11S10460   6.955   1.321  15.714  0.2600 -0.2749  1.5201
   7923SM  H11T10461   6.974   1.203  15.583  2.5390  1.0346 -0.7823
   7923SM  C12S10462   7.154   1.229  15.697  0.3739 -0.3218 -0.2392
   7923SM  H12S10463   7.192   1.137  15.649 -2.0726 -0.8964 -1.2799
   7923SM  H12T10464   7.175   1.220  15.805  0.2279 -0.0175 -0.1843
   7923SM  C13S10465   7.220   1.347  15.632 -0.5944 -0.3733  0.7837
   7923SM  H13S10466   7.328   1.364  15.652 -0.7296  2.4461 -0.3721
   7923SM  H13T10467   7.166   1.439  15.660 -0.4240  0.3932 -1.2676
   7923SM  C14S10468   7.209   1.334  15.479 -0.6652 -0.1339  0.5106
   7923SM  H14S10469   7.235   1.429  15.428  0.5288 -1.3685 -1.3275
   7923SM  H14T10470   7.106   1.309  15.445 -0.5007  0.2183 -0.2702
   7923SM  C15S10471   7.305   1.231  15.412 -0.0325  0.2965 -1.3787
   7923SM  H15S10472   7.300   1.138  15.473  0.5018  0.6020 -0.8597
   7923SM  H15T10473   7.411   1.261  15.427  0.1921  0.1397 -2.5442
   7923SM  C16S10474   7.279   1.219  15.262 -0.2560  1.0726  0.0135
   7923SM  H16S10475   7.297   1.312  15.204  1.6288 -0.2065 -1.5705
   7923SM  H16T10476   7.170   1.199  15.247 -0.0246  0.2501 -0.6406
   7923SM  C17S10477   7.364   1.112  15.199  0.5619  0.4644  0.0113
   7923SM  H17S10478   7.341   1.012  15.243  4.3268 -0.8307 -0.6067
   7923SM  H17T10479   7.471   1.125  15.222  0.5038 -0.2012  0.6938
   7923SM  C18S10480   7.353   1.100  15.046  0.1700 -0.1984  0.0049
   7923SM  H18S10481   7.250   1.075  15.013  0.2333  0.9874 -1.1794
   7923SM  H18T10482   7.434   1.031  15.012 -0.8435 -0.7008 -1.4671
   7923SM  H18U10483   7.368   1.196  14.992 -2.9856  0.3895  0.0320
   7923SM   C1F10484   7.264   0.719  16.110  0.0132  0.7656  0.3630
   7923SM    OF10485   7.263   0.593  16.111  0.0053  0.2984 -0.7746
   7923SM   C2F10486   7.333   0.796  16.005  0.0750  0.4171 -0.5332
   7923SM   H2F10487   7.426   0.844  16.041 -0.1542  0.1511  0.4249
   7923SM   H2G10488   7.267   0.875  15.963 -1.9937 -0.6074  0.6383
   7923SM   C3F10489   7.369   0.704  15.884  0.1723  0.4489  1.1476
   7923SM   H3F10490   7.417   0.609  15.915  1.4259  0.5941 -0.2505
   7923SM   H3G10491   7.444   0.760  15.825 -0.1479 -2.4472 -2.3760
   7923SM   C4F10492   7.234   0.669  15.815 -0.1390  0.4216  0.1882
   7923SM   H4F10493   7.188   0.760  15.771  1.4921  0.1011 -2.3822
   7923SM   H4G10494   7.165   0.636  15.896 -0.9467  2.5960  0.4581
   7923SM   C5F10495   7.244   0.563  15.705  1.1072  0.4035 -0.1059
   7923SM   H5F10496   7.148   0.507  15.708  0.9416  0.6749 -0.2336
   7923SM   H5G10497   7.316   0.487  15.744  0.5060  0.0062  0.2421
   7923SM   C6F10498   7.279   0.632  15.573 -0.4994 -0.0724 -0.8454
   7923SM   H6F10499   7.384   0.663  15.589 -0.4150 -1.2689  1.1877
   7923SM   H6G10500   7.215   0.723  15.562 -1.1236 -0.3255  0.4689
   7923SM   C7F10501   7.278   0.541  15.449 -0.0850  0.5051  0.5732
   7923SM   H7F10502   7.273   0.615  15.366  1.5243 -1.3179 -1.2769
   7923SM   H7G10503   7.186   0.479  15.449  0.4048 -0.2303  0.5463
   7923SM   C8F10504   7.400   0.458  15.409 -1.0953 -0.3116  0.1374
   7923SM   H8F10505   7.431   0.403  15.500  1.9317  1.1057  0.0807
   7923SM   H8G10506   7.485   0.529  15.406 -0.3923 -1.1737 -0.8545
   7923SM   C9F10507   7.391   0.374  15.285  0.1327 -0.3920  0.3044
   7923SM   H9F10508   7.377   0.440  15.196  2.2906  0.6281  0.6392
   7923SM   H9G10509   7.308   0.303  15.270 -0.8229  1.0991 -2.0835
   7923SM  C10F10510   7.520   0.308  15.254 -0.1462  0.1203  0.0558
   7923SM  H10F10511   7.528   0.214  15.312  0.2653  1.0562  1.5637
   7923SM  H10G10512   7.608   0.368  15.285 -0.4779  2.0193 -2.3163
   7923SM  C11F10513   7.543   0.278  15.100 -0.6757 -0.8394 -0.2676
   7923SM  H11F10514   7.553   0.380  15.058 -0.6420 -0.2177  1.1935
   7923SM  H11G10515   7.453   0.221  15.067 -0.0128 -1.7216 -0.6052
   7923SM  C12F10516   7.663   0.195  15.077 -0.0867  0.1332  0.3740
   7923SM  H12F10517   7.685   0.145  15.174  0.8278  1.1542  0.7020
   7923SM  H12G10518   7.748   0.260  15.048  1.2339 -1.7204 -0.1142
   7923SM  C13F10519   7.636   0.086  14.971  0.3941 -0.1269  0.6599
   7923SM  H13F10520   7.658   0.131  14.872 -0.2823 -0.7229  0.2359
   7923SM  H13G10521   7.533   0.049  14.985 -0.3777  0.3591 -2.9681
   7923SM  C14F10522   7.713  -0.048  14.982  0.6545  0.0093 -0.6156
   7923SM  H14F10523   7.697  -0.101  15.078  0.6574 -1.0005 -1.1562
   7923SM  H14G10524   7.820  -0.026  14.965  0.7030  0.4402  0.2367
   7923SM  C15F10525   7.664  -0.135  14.857 -0.3141 -0.2802  0.2774
   7923SM  H15F10526   7.682  -0.078  14.763  1.0658  0.4674  0.9676
   7923SM  H15G10527   7.554  -0.141  14.865 -0.4368  1.0243 -0.2365
   7923SM  C16F10528   7.707  -0.283  14.855  0.3904  0.3715  0.0052
   7923SM  H16F10529   7.680  -0.318  14.753  1.7428 -0.0390 -0.2373
   7923SM  H16G10530   7.659  -0.337  14.939  1.7473 -0.4614  0.2781
   7923SM  C17F10531   7.854  -0.299  14.866  0.1041 -0.3873  0.3305
   7923SM  H17F10532   7.914  -0.210  14.837 -0.4527 -0.4098 -0.9407
   7923SM  H17G10533   7.877  -0.371  14.785 -2.6251  2.5954 -3.4282
   7923SM  C18F10534   7.910  -0.351  15.000  0.0297 -0.1607  0.0505
   7923SM  H18F10535   7.857  -0.443  15.032  0.8480 -0.9302 -0.7368
   7923SM  H18G10536   7.897  -0.261  15.063  0.7097  0.9239 -1.2883
   7923SM  C19F10537   8.062  -0.374  14.995 -0.1093  0.1451  0.0591
   7923SM  H19F10538   8.105  -0.274  14.971  0.6771 -0.5285 -1.4696
   7923SM  H19G10539   8.104  -0.434  14.911  0.1511  0.5961 -0.1401
   7923SM  C20F10540   8.117  -0.427  15.130  0.1888  0.4714  0.0836
   7923SM  H20F10541   8.064  -0.375  15.213 -1.5479 -0.3139 -0.4883
   7923SM  H20G10542   8.227  -0.413  15.141  0.3366 -1.2928  1.1791
   7923SM  C21F10543   8.075  -0.568  15.168  0.0198 -0.0732 -0.2187
   7923SM  H21F10544   7.965  -0.581  15.162 -0.4193  2.1528  1.4379
   7923SM  H21G10545   8.107  -0.590  15.272 -0.9614 -3.0088 -0.4523
   7923SM  C22F10546   8.148  -0.679  15.093  0.1703  0.5096  0.4706
   7923SM  H22F10547   8.256  -0.689  15.118  0.6866  1.2849 -1.2503
   7923SM  H22G10548   8.162  -0.656  14.985 -1.6197 -0.9661 -0.1159
   7923SM  C23F10549   8.086  -0.820  15.110  0.5636 -0.1694 -0.3316
   7923SM  H23F10550   8.145  -0.893  15.051  0.2961 -1.4094  0.8787
   7923SM  H23G10551   7.981  -0.821  15.073  0.3331 -2.8208  0.2072
   7923SM  H23H10552   8.073  -0.852  15.216 -1.3925  0.0886 -0.4628
   8023SM     N10553   8.792   8.955  16.158  0.0589 -0.4438  0.5702
   8023SM   C1510554   8.648   8.911  16.151 -0.1814  0.1192  0.1968
   8023SM  H15A10555   8.593   8.932  16.241 -0.5044 -0.0641  0.0473
   8023SM  H15B10556   8.652   8.804  16.135  0.5734  0.3964 -1.8162
   8023SM  H15C10557   8.597   8.952  16.065  0.3700  3.7306  1.4301
   8023SM   C1410558   8.793   9.089  16.218  1.1946 -0.6107  0.0521
   8023SM  H14A10559   8.760   9.080  16.320 -0.4461  0.2211 -0.3663
   8023SM  H14B10560   8.728   9.153  16.160  1.9493  0.2522  0.1432
   8023SM  H14C10561   8.889   9.138  16.217  2.4678 -2.8755 -2.5884
   8023SM   C1310562   8.876   8.870  16.252 -0.3224  0.2009  0.4195
   8023SM  H13A10563   8.828   8.854  16.347 -0.7000 -1.4391 -0.0214
   8023SM  H13B10564   8.966   8.926  16.273  0.4072  0.2664 -2.4303
   8023SM  H13C10565   8.904   8.775  16.209  0.3340  1.2441 -1.6362
   8023SM   C1210566   8.859   8.963  16.020  0.3648 -0.0425 -0.4001
   8023SM  H12A10567   8.956   9.009  16.033 -0.2057  0.5195  2.4507
   8023SM  H12B10568   8.796   9.021  15.955 -2.2479 -1.2259  0.9330
   8023SM   C1110569   8.878   8.838  15.934 -0.2343  0.3323  0.6707
   8023SM  H11A10570   8.940   8.867  15.847 -0.9068  0.6825  0.3024
   8023SM  H11B10571   8.773   8.818  15.904 -0.4554  0.8119  1.1091
   8023SM     P10572   8.870   8.588  16.002 -0.1008  0.1467  0.3314
   8023SM   O1310573   8.956   8.488  16.073 -0.0668  0.3617  0.4136
   8023SM   O1410574   8.730   8.597  16.047  0.5554 -0.0062 -0.1359
   8023SM   O1110575   8.877   8.555  15.846  0.8413 -0.0919  0.8993
   8023SM   O1210576   8.938   8.727  16.007  0.3420 -0.3948 -0.5481
   8023SM   C1S10577   8.999   8.550  15.771 -0.4315 -0.2755 -0.4221
   8023SM   H1S10578   9.080   8.503  15.831 -0.0946 -0.1434 -0.7707
   8023SM   H1T10579   9.028   8.653  15.743 -0.4845  0.3821  1.8090
   8023SM    NF10580   9.119   8.472  15.568  0.5477 -0.1494 -0.5574
   8023SM   HNF10581   9.148   8.553  15.518 -1.4550  2.2589  1.8561
   8023SM   C2S10582   8.982   8.486  15.629  0.4754 -0.2884 -0.0607
   8023SM   H2S10583   8.930   8.391  15.655 -1.6526  0.8244 -0.0106
   8023SM   C3S10584   8.875   8.569  15.551  0.3214  0.2281  0.6280
   8023SM   H3S10585   8.911   8.674  15.547  0.1595  0.3388  1.7805
   8023SM    O310586   8.744   8.563  15.607 -0.1681  0.4509 -0.4569
   8023SM   HO310587   8.763   8.514  15.687  0.4043  0.5302 -0.5423
   8023SM   C4S10588   8.856   8.528  15.405 -0.1459  0.2206  0.3236
   8023SM   H4S10589   8.815   8.428  15.383 -0.4767  0.5946 -0.8065
   8023SM   C5S10590   8.888   8.601  15.301 -0.4337 -0.7584  0.0052
   8023SM   H5S10591   8.953   8.687  15.323 -1.0062 -0.3352  0.0762
   8023SM   C6S10592   8.871   8.563  15.157 -0.4252  0.6292 -0.0328
   8023SM   H6S10593   8.842   8.654  15.099  0.8622  0.5919 -0.7797
   8023SM   H6T10594   8.789   8.489  15.142 -0.4245  1.0483 -2.7409
   8023SM   C7S10595   9.009   8.514  15.104 -0.1773  0.2003 -0.2273
   8023SM   H7S10596   9.089   8.590  15.121 -0.4276  0.7676 -1.4914
   8023SM   H7T10597   8.994   8.509  14.994 -1.0178 -1.4478 -0.0629
   8023SM   C8S10598   9.060   8.376  15.157 -0.4977  0.0118 -0.1465
   8023SM   H8S10599   8.982   8.300  15.133 -2.4478  2.3796 -1.7335
   8023SM   H8T10600   9.079   8.365  15.266  1.8130  1.4589 -0.3423
   8023SM   C9S10601   9.184   8.322  15.086 -0.0527 -0.2669  0.2797
   8023SM   H9S10602   9.268   8.377  15.133 -0.8931  0.8562  0.5195
   8023SM   H9T10603   9.171   8.335  14.976 -2.0885 -1.9099  0.2800
   8023SM  C10S10604   9.202   8.171  15.121  0.2910  0.1356  0.5319
   8023SM  H10S10605   9.181   8.150  15.228  0.1933  0.2825  0.5415
   8023SM  H10T10606   9.307   8.137  15.106  0.3843  0.5443  0.2462
   8023SM  C11S10607   9.111   8.080  15.030 -0.1279 -0.3107  0.8220
   8023SM  H11S10608   9.019   8.137  15.006  0.0477 -0.9355 -1.5552
   8023SM  H11T10609   9.087   7.986  15.083 -0.7195 -2.2672 -2.6446
   8023SM  C12S10610   9.182   8.053  14.896 -0.0967  0.2916  0.4664
   8023SM  H12S10611   9.235   8.138  14.849 -0.9870  0.5587 -0.0768
   8023SM  H12T10612   9.093   8.035  14.832 -0.6675  0.5659  1.1739
   8023SM  C13S10613   9.268   7.926  14.893 -0.6689  0.6336 -1.1145
   8023SM  H13S10614   9.204   7.836  14.911  0.6133 -0.3483 -1.2922
   8023SM  H13T10615   9.346   7.934  14.971 -1.3807  0.0018 -0.3025
   8023SM  C14S10616   9.320   7.901  14.756 -0.2009  0.1537 -0.4612
   8023SM  H14S10617   9.371   7.994  14.721  1.1819 -0.9758 -1.5976
   8023SM  H14T10618   9.237   7.905  14.683  0.4295  1.8802 -1.1410
   8023SM  C15S10619   9.410   7.776  14.738  0.7333 -0.2376  0.1658
   8023SM  H15S10620   9.357   7.690  14.783  1.5128 -0.6136  0.3691
   8023SM  H15T10621   9.506   7.797  14.789  1.3880 -0.3930 -0.9643
   8023SM  C16S10622   9.457   7.737  14.605  0.0656  0.9734 -0.5940
   8023SM  H16S10623   9.512   7.644  14.629 -0.1132  0.7896 -0.8930
   8023SM  H16T10624   9.517   7.822  14.564  0.4877  1.7125  1.4559
   8023SM  C17S10625   9.340   7.706  14.503 -0.2232 -0.5485  0.4312
   8023SM  H17S10626   9.283   7.798  14.481  0.9329  0.3625  1.1327
   8023SM  H17T10627   9.268   7.638  14.554  0.9055 -1.6621  0.5973
   8023SM  C18S10628   9.388   7.624  14.381  0.3053  0.1302  0.5280
   8023SM  H18S10629   9.371   7.516  14.402 -0.3209  0.1797  0.2977
   8023SM  H18T10630   9.497   7.633  14.363  0.3731 -2.0433 -0.4566
   8023SM  H18U10631   9.329   7.659  14.293  0.5462 -0.6928  0.0209
   8023SM   C1F10632   9.202   8.370  15.604  0.4536  0.4991 -0.2685
   8023SM    OF10633   9.168   8.295  15.698  0.2163  0.1946  0.4194
   8023SM   C2F10634   9.331   8.369  15.537 -0.3395  0.9521  0.5268
   8023SM   H2F10635   9.386   8.458  15.573 -0.2026  1.2976 -0.5031
   8023SM   H2G10636   9.318   8.365  15.427  0.4665  0.6474  0.4362
   8023SM   C3F10637   9.414   8.237  15.569 -0.3100 -0.4443  0.2831
   8023SM   H3F10638   9.380   8.145  15.517  1.5190 -0.5869 -0.7378
   8023SM   H3G10639   9.414   8.208  15.676 -2.8910 -1.6102  0.0360
   8023SM   C4F10640   9.562   8.255  15.519  0.1601  0.2855  0.7902
   8023SM   H4F10641   9.547   8.261  15.409  2.1414 -4.0109  0.0479
   8023SM   H4G10642   9.604   8.153  15.536  1.0023  0.4188 -0.3538
   8023SM   C5F10643   9.646   8.360  15.585  0.1814 -0.3046  0.4056
   8023SM   H5F10644   9.642   8.351  15.695 -2.0533 -0.2849  0.3689
   8023SM   H5G10645   9.612   8.463  15.562  1.1565  0.2694  1.4563
   8023SM   C6F10646   9.803   8.344  15.574  0.1103 -0.6889  0.0837
   8023SM   H6F10647   9.817   8.246  15.624  1.2177  0.9426  3.1615
   8023SM   H6G10648   9.863   8.423  15.624  0.9324 -1.0007 -0.3840
   8023SM   C7F10649   9.850   8.353  15.429  0.0328  0.2478 -0.0274
   8023SM   H7F10650   9.824   8.450  15.383  0.6547  1.2356  1.6043
   8023SM   H7G10651   9.799   8.273  15.371  0.2092 -0.8460  1.2665
   8023SM   C8F10652  10.006   8.340  15.426  0.0326 -0.2587 -0.5372
   8023SM   H8F10653  10.046   8.250  15.477 -1.9347  0.1481  1.8854
   8023SM   H8G10654  10.052   8.430  15.473  1.2036 -1.4583  0.7063
   8023SM   C9F10655  10.058   8.327  15.276  0.8125  0.0484 -0.1692
   8023SM   H9F10656  10.011   8.232  15.243 -0.9492  0.2670  1.5668
   8023SM   H9G10657  10.168   8.307  15.281  1.2947  1.8089 -2.2113
   8023SM  C10F10658  10.020   8.446  15.184 -0.2719  0.1280  0.4980
   8023SM  H10F10659  10.033   8.541  15.241  0.6603 -0.6024  1.5303
   8023SM  H10G10660   9.915   8.441  15.146  0.4349  2.6447 -2.2252
   8023SM  C11F10661  10.114   8.458  15.054  0.5923  0.9328 -0.5594
   8023SM  H11F10662  10.209   8.408  15.081 -0.3082 -0.4924  0.0792
   8023SM  H11G10663  10.134   8.563  15.025 -2.3247  1.8469  0.4956
   8023SM  C12F10664  10.046   8.383  14.937 -0.4795 -0.3168  0.4749
   8023SM  H12F10665   9.951   8.436  14.916 -2.5965 -3.2029  2.0777
   8023SM  H12G10666  10.017   8.282  14.973  0.1940 -1.6106 -2.3045
   8023SM  C13F10667  10.145   8.375  14.817  0.3203  0.6786 -0.4663
   8023SM  H13F10668  10.228   8.313  14.856 -1.3253 -0.9503  0.6564
   8023SM  H13G10669  10.170   8.481  14.795 -2.0585  2.4201  3.8446
   8023SM  C14F10670  10.094   8.299  14.695 -0.5369  0.7191 -0.2080
   8023SM  H14F10671  10.038   8.209  14.728 -1.6024  0.8288 -1.6241
   8023SM  H14G10672  10.191   8.276  14.647  0.3260 -0.1518  1.8267
   8023SM  C15F10673  10.002   8.383  14.610 -0.0354 -0.7504 -0.0209
   8023SM  H15F10674  10.030   8.490  14.618  1.8844 -1.1863 -0.4068
   8023SM  H15G10675   9.896   8.379  14.642 -0.1319  0.9537 -0.0441
   8023SM  C16F10676  10.014   8.352  14.454  0.1520 -0.4524 -0.0214
   8023SM  H16F10677  10.118   8.372  14.420 -0.2671  2.0568 -0.0482
   8023SM  H16G10678   9.943   8.426  14.410  0.8933  0.8834  0.9629
   8023SM  C17F10679   9.971   8.211  14.413  0.1421  0.4668  0.7039
   8023SM  H17F10680   9.866   8.190  14.446 -0.4260  3.0233  0.7050
   8023SM  H17G10681  10.048   8.148  14.461  0.3091 -1.4482 -1.8734
   8023SM  C18F10682   9.990   8.184  14.261 -0.0557  1.0080 -0.6226
   8023SM  H18F10683   9.978   8.075  14.240  1.6155  0.0478  2.6739
   8023SM  H18G10684  10.096   8.206  14.236  0.6390 -0.6977  0.6110
   8023SM  C19F10685   9.903   8.263  14.167  0.1214 -0.5620 -0.4479
   8023SM  H19F10686   9.923   8.371  14.188 -0.2114 -0.6171  0.1664
   8023SM  H19G10687   9.796   8.249  14.192  0.3621 -0.4830  0.6980
   8023SM  C20F10688   9.924   8.244  14.018  0.0079 -0.1120 -0.0135
   8023SM  H20F10689   9.948   8.137  14.000 -2.1865 -1.3820  3.4269
   8023SM  H20G10690  10.007   8.308  13.985  0.4010 -1.0554 -0.9055
   8023SM  C21F10691   9.796   8.295  13.937 -0.6491  0.5416  0.4143
   8023SM  H21F10692   9.831   8.316  13.834  0.5265  0.5306  0.7916
   8023SM  H21G10693   9.760   8.388  13.986  0.2967 -0.0217  2.3156
   8023SM  C22F10694   9.693   8.190  13.924  0.9565  0.1414 -0.5175
   8023SM  H22F10695   9.599   8.234  13.886  0.2881  0.4211  1.3503
   8023SM  H22G10696   9.663   8.154  14.025 -1.1424 -0.6064 -1.3436
   8023SM  C23F10697   9.725   8.062  13.842  0.0958  0.3550 -0.1496
   8023SM  H23F10698   9.807   8.018  13.903 -0.6724  1.9707  2.2161
   8023SM  H23G10699   9.769   8.089  13.744 -0.0938 -1.8404 -0.8819
   8023SM  H23H10700   9.635   7.999  13.831 -0.6833  1.2995  0.6153
   8123SM     N10701   4.788   4.808  13.216 -0.1393  0.5493  0.0293
   8123SM   C1510702   4.858   4.682  13.259  0.5272 -0.0745  0.4056
   8123SM  H15A10703   4.910   4.693  13.353 -1.2736  0.5171  1.3741
   8123SM  H15B10704   4.934   4.654  13.187 -0.1424 -1.1887  0.0992
   8123SM  H15C10705   4.781   4.608  13.277 -1.5104  1.3954 -1.7068
   8123SM   C1410706   4.883   4.918  13.197 -0.2893 -0.0644  0.2685
   8123SM  H14A10707   4.924   4.924  13.098  0.9599 -3.3578  0.4321
   8123SM  H14B10708   4.966   4.915  13.267 -0.1028 -0.2081  0.0401
   8123SM  H14C10709   4.828   5.010  13.196 -0.0343  0.0995 -1.4435
   8123SM   C1310710   4.707   4.786  13.087  0.1827  0.5710 -0.6292
   8123SM  H13A10711   4.672   4.875  13.038 -3.7468 -0.0228  0.7847
   8123SM  H13B10712   4.618   4.728  13.108  1.4824 -1.5066 -0.5291
   8123SM  H13C10713   4.766   4.727  13.018 -1.6994 -1.6439 -0.4692
   8123SM   C1210714   4.688   4.864  13.324  0.1691  0.5710  0.4583
   8123SM  H12A10715   4.744   4.856  13.416  1.6084 -1.6450 -0.5258
   8123SM  H12B10716   4.608   4.792  13.329  2.5725 -2.4187 -0.7419
   8123SM   C1110717   4.615   5.003  13.322  0.1949 -0.9580 -0.9694
   8123SM  H11A10718   4.676   5.094  13.305 -2.5376  0.8337 -1.9519
   8123SM  H11B10719   4.561   5.034  13.414 -0.3302 -1.3220 -1.1495
   8123SM     P10720   4.383   4.954  13.225  0.1840  0.1742 -0.2432
   8123SM   O1310721   4.317   4.952  13.096  0.3705 -0.5754  0.4322
   8123SM   O1410722   4.389   4.824  13.299  0.1390 -0.1693  0.4812
   8123SM   O1110723   4.305   5.061  13.316 -0.1042 -0.9812  0.3428
   8123SM   O1210724   4.527   5.010  13.209 -0.4741  0.1870  0.2759
   8123SM   C1S10725   4.197   5.019  13.397  0.7078 -0.3167  0.2387
   8123SM   H1S10726   4.203   4.911  13.425  1.5151 -0.5557 -0.7603
   8123SM   H1T10727   4.103   5.032  13.340  0.4522 -1.3976  0.3949
   8123SM    NF10728   4.067   5.046  13.605  0.1559  0.2257  0.5951
   8123SM   HNF10729   3.977   5.085  13.587  0.3621  1.4229  1.9334
   8123SM   C2S10730   4.179   5.103  13.527  0.2035  1.1715  0.2441
   8123SM   H2S10731   4.272   5.091  13.586 -0.4089  0.7870  1.1349
   8123SM   C3S10732   4.180   5.259  13.492  0.2781 -0.5230  0.2519
   8123SM   H3S10733   4.107   5.290  13.413  2.0080  0.9362 -0.8488
   8123SM    O310734   4.302   5.308  13.447 -0.0236 -0.1237  0.0673
   8123SM   HO310735   4.345   5.228  13.416 -0.2589 -0.6094  0.9462
   8123SM   C4S10736   4.136   5.337  13.617  0.1353  0.5882 -0.7906
   8123SM   H4S10737   4.205   5.345  13.703  1.3059  2.3212 -1.8120
   8123SM   C5S10738   4.024   5.407  13.630  0.1388 -0.0522  0.7896
   8123SM   H5S10739   3.959   5.421  13.542  1.7100  0.4249 -0.3449
   8123SM   C6S10740   3.992   5.495  13.750  0.4860  0.1457 -0.0958
   8123SM   H6S10741   4.051   5.475  13.843 -1.5743  2.0075  1.7251
   8123SM   H6T10742   3.886   5.484  13.780  0.3721 -0.7116 -0.8023
   8123SM   C7S10743   4.019   5.640  13.712  0.2662  0.4727 -0.2544
   8123SM   H7S10744   3.950   5.677  13.633  0.0497  1.3603  0.3329
   8123SM   H7T10745   4.124   5.642  13.677  0.1969  0.4000 -0.4653
   8123SM   C8S10746   4.022   5.735  13.834 -0.2995  0.1682 -0.6670
   8123SM   H8S10747   4.080   5.691  13.917 -1.0411  0.3291 -0.0541
   8123SM   H8T10748   3.920   5.748  13.877 -0.7899 -2.7959 -0.6793
   8123SM   C9S10749   4.065   5.881  13.804 -0.1713 -0.2743  0.2111
   8123SM   H9S10750   4.008   5.911  13.714 -0.0163  0.4088  0.3360
   8123SM   H9T10751   4.172   5.871  13.774 -0.0179 -0.5450  0.8258
   8123SM  C10S10752   4.046   5.992  13.912  0.5486  0.0226  0.5222
   8123SM  H10S10753   3.939   5.973  13.938  0.5574  0.5780  0.9651
   8123SM  H10T10754   4.063   6.088  13.859  0.0533  0.3267  0.8971
   8123SM  C11S10755   4.137   5.973  14.031  0.1584 -0.0383  0.2621
   8123SM  H11S10756   4.242   5.978  13.995  0.0136 -0.3812 -0.2178
   8123SM  H11T10757   4.134   5.867  14.066  1.5157 -0.1224  0.1729
   8123SM  C12S10758   4.109   6.074  14.150 -0.4183 -0.3578  0.8387
   8123SM  H12S10759   4.000   6.079  14.171 -1.0149  0.8365 -2.0292
   8123SM  H12T10760   4.140   6.178  14.127  0.0827 -0.5945  0.4131
   8123SM  C13S10761   4.173   6.029  14.283 -0.3409  0.5488  0.2027
   8123SM  H13S10762   4.274   5.991  14.255 -0.9887  0.0417 -1.5635
   8123SM  H13T10763   4.116   5.938  14.313 -1.1766  0.9023 -0.2731
   8123SM  C14S10764   4.190   6.125  14.396 -0.2242  0.0225 -0.2896
   8123SM  H14S10765   4.089   6.147  14.437 -0.4278  1.4650 -1.4729
   8123SM  H14T10766   4.214   6.229  14.364 -0.5388  1.0627  2.5477
   8123SM  C15S10767   4.291   6.075  14.500 -0.0057  0.0685 -0.2986
   8123SM  H15S10768   4.286   6.151  14.582 -2.5211  1.2740 -1.4504
   8123SM  H15T10769   4.394   6.069  14.461  0.6972  2.8103  0.8628
   8123SM  C16S10770   4.263   5.935  14.561  0.1937 -0.0182 -0.3771
   8123SM  H16S10771   4.351   5.912  14.624  0.2735 -2.1590 -1.1786
   8123SM  H16T10772   4.264   5.860  14.479  1.2826 -0.0390 -0.3580
   8123SM  C17S10773   4.133   5.927  14.649  0.1692 -0.2798  0.1738
   8123SM  H17S10774   4.048   5.921  14.578  1.1385 -0.1409 -1.0281
   8123SM  H17T10775   4.113   6.015  14.713  1.9077  0.7895 -0.6649
   8123SM  C18S10776   4.124   5.807  14.735  0.0244 -0.3335  0.0936
   8123SM  H18S10777   4.205   5.788  14.809 -1.0444 -0.4394  1.2770
   8123SM  H18T10778   4.126   5.717  14.669 -0.1244 -0.1318 -0.1884
   8123SM  H18U10779   4.025   5.811  14.786 -0.7521  1.8529 -1.4590
   8123SM   C1F10780   4.058   4.921  13.661 -0.3181 -0.5188  0.5039
   8123SM    OF10781   4.150   4.840  13.645  0.5817  0.0464  0.6261
   8123SM   C2F10782   3.924   4.888  13.718  0.3327  0.5956  0.5791
   8123SM   H2F10783   3.856   4.956  13.663  1.7997 -0.0832 -2.2627
   8123SM   H2G10784   3.937   4.902  13.828  2.3839  0.3894  0.3995
   8123SM   C3F10785   3.895   4.735  13.680  0.4991 -1.6051 -0.4811
   8123SM   H3F10786   3.978   4.667  13.710  1.0939 -2.0182 -2.8653
   8123SM   H3G10787   3.857   4.721  13.576 -2.0815 -0.4538  0.2182
   8123SM   C4F10788   3.768   4.684  13.744 -0.3867 -0.3575 -0.5437
   8123SM   H4F10789   3.689   4.758  13.718 -0.7489 -0.0146  1.4091
   8123SM   H4G10790   3.769   4.683  13.855 -2.1641 -2.6335 -0.4741
   8123SM   C5F10791   3.727   4.548  13.682  0.2784  0.3237 -0.8569
   8123SM   H5F10792   3.807   4.476  13.712  1.0365  0.6824 -1.9495
   8123SM   H5G10793   3.735   4.552  13.571  0.6835 -1.1003 -0.8910
   8123SM   C6F10794   3.584   4.510  13.736 -0.3385 -0.0483  0.7202
   8123SM   H6F10795   3.521   4.571  13.667  0.8588 -1.3862 -1.7283
   8123SM   H6G10796   3.573   4.528  13.845  1.4050 -0.4903  1.0021
   8123SM   C7F10797   3.542   4.370  13.704  0.4658 -0.1895 -0.3235
   8123SM   H7F10798   3.616   4.297  13.744  0.2897 -1.4615 -2.1534
   8123SM   H7G10799   3.539   4.367  13.593  1.7409 -0.3901 -0.3659
   8123SM   C8F10800   3.398   4.339  13.758  0.3277  0.6797  0.1850
   8123SM   H8F10801   3.334   4.415  13.709 -0.2392  1.4811  2.0839
   8123SM   H8G10802   3.399   4.357  13.868  0.3104 -2.2162  0.7518
   8123SM   C9F10803   3.351   4.196  13.734  0.8135 -0.9004  0.5962
   8123SM   H9F10804   3.412   4.116  13.782  2.3322 -0.2940 -0.2476
   8123SM   H9G10805   3.355   4.178  13.624  2.2029 -1.0073  0.6403
   8123SM  C10F10806   3.202   4.188  13.774 -0.1985 -0.0794 -0.2368
   8123SM  H10F10807   3.161   4.086  13.757 -2.4582  0.6253  0.5426
   8123SM  H10G10808   3.151   4.257  13.703  2.7737  1.2575 -1.2468
   8123SM  C11F10809   3.165   4.209  13.921 -0.0949  0.2644  0.7340
   8123SM  H11F10810   3.191   4.308  13.963  1.0385  1.3351 -2.2229
   8123SM  H11G10811   3.227   4.141  13.982  1.3239  1.5059  0.7367
   8123SM  C12F10812   3.012   4.183  13.947 -0.2276 -0.4245  0.8055
   8123SM  H12F10813   2.974   4.099  13.886 -1.5962  0.0462  0.9689
   8123SM  H12G10814   2.949   4.264  13.904 -0.5242 -1.2718 -0.3936
   8123SM  C13F10815   2.983   4.169  14.090  0.1976 -0.0792 -0.7386
   8123SM  H13F10816   3.039   4.082  14.130  1.3179  0.6298 -0.7165
   8123SM  H13G10817   2.872   4.163  14.098  0.3012 -1.2042  0.0643
   8123SM  C14F10818   3.031   4.292  14.177  0.8849  0.5248 -0.7051
   8123SM  H14F10819   3.011   4.383  14.116  0.3676  0.9865  0.1391
   8123SM  H14G10820   3.140   4.287  14.197  0.4985 -1.9007  1.3006
   8123SM  C15F10821   2.948   4.302  14.306 -0.1948  0.5106  0.0166
   8123SM  H15F10822   2.967   4.214  14.372  1.8720  0.6710 -0.2870
   8123SM  H15G10823   2.845   4.292  14.266 -0.1047  1.5992 -0.5208
   8123SM  C16F10824   2.960   4.438  14.373 -0.7893 -0.2742  0.3871
   8123SM  H16F10825   2.942   4.522  14.303  2.8778  3.6319  3.5342
   8123SM  H16G10826   3.064   4.455  14.410 -0.0073 -0.8742 -1.4037
   8123SM  C17F10827   2.854   4.455  14.489 -0.3954 -0.1154 -0.0392
   8123SM  H17F10828   2.751   4.440  14.449 -1.3505  0.0529  2.1968
   8123SM  H17G10829   2.856   4.552  14.543 -1.0599  0.7087 -1.4522
   8123SM  C18F10830   2.862   4.354  14.605 -0.1802  0.1572  0.2596
   8123SM  H18F10831   2.841   4.253  14.565 -0.5525 -0.2266  1.4047
   8123SM  H18G10832   2.784   4.373  14.682  1.3975  1.4155  1.6500
   8123SM  C19F10833   3.006   4.346  14.675  0.4117 -0.2106 -0.1265
   8123SM  H19F10834   3.035   4.448  14.708  1.4881 -0.6302  0.2683
   8123SM  H19G10835   3.082   4.314  14.601  0.0363  0.3509 -0.7619
   8123SM  C20F10836   3.006   4.244  14.793 -0.2602 -0.0961  0.0903
   8123SM  H20F10837   2.933   4.270  14.872  1.1862 -0.9332  1.7734
   8123SM  H20G10838   3.110   4.247  14.832  0.5504  1.2527 -1.9515
   8123SM  C21F10839   2.984   4.093  14.752 -0.4278 -0.4189  0.3730
   8123SM  H21F10840   3.059   4.054  14.680 -1.3464 -1.5526  0.0035
   8123SM  H21G10841   2.881   4.088  14.711 -1.3773  2.3944  2.1171
   8123SM  C22F10842   2.983   3.990  14.861 -0.0992 -0.2261  0.2879
   8123SM  H22F10843   2.901   4.007  14.935  1.2739  1.4688  1.4968
   8123SM  H22G10844   3.081   3.994  14.914  0.7957 -2.3697 -1.0854
   8123SM  C23F10845   2.982   3.852  14.798 -0.4476 -0.0246 -0.2402
   8123SM  H23F10846   2.890   3.841  14.735 -1.4938 -0.4485  1.3108
   8123SM  H23G10847   2.976   3.770  14.872 -0.4971  0.3281  0.1522
   8123SM  H23H10848   3.073   3.841  14.736 -1.4956 -0.4605 -1.7927
   8223SM     N10849   5.094   6.600  13.307 -0.1212  0.0063 -0.4851
   8223SM   C1510850   4.977   6.605  13.214  0.0041  0.2382 -0.5010
   8223SM  H15A10851   4.926   6.510  13.215 -0.8459  0.5969 -3.1362
   8223SM  H15B10852   5.013   6.621  13.114  0.5653  1.3268 -0.1451
   8223SM  H15C10853   4.904   6.681  13.238 -0.0052  0.0258  0.1711
   8223SM   C1410854   5.198   6.506  13.261 -0.5049 -0.0422  0.2703
   8223SM  H14A10855   5.232   6.521  13.159  1.0737 -2.2617  0.4051
   8223SM  H14B10856   5.165   6.404  13.271  0.2624 -0.5710 -2.0443
   8223SM  H14C10857   5.279   6.521  13.331  0.4853 -0.5531 -0.7335
   8223SM   C1310858   5.160   6.735  13.305  0.2574 -0.1131 -0.2226
   8223SM  H13A10859   5.243   6.739  13.373  2.3368  0.6004 -2.6473
   8223SM  H13B10860   5.104   6.825  13.326  2.4426  1.1037  0.6402
   8223SM  H13C10861   5.204   6.754  13.208 -0.6668  0.0413 -0.6209
   8223SM   C1210862   5.046   6.577  13.449  0.0644  0.1928  0.4306
   8223SM  H12A10863   5.000   6.666  13.489 -1.5912 -1.3283  2.0975
   8223SM  H12B10864   5.133   6.562  13.511  0.1572 -2.3908 -0.2172
   8223SM   C1110865   4.951   6.455  13.473  0.2335  0.4003 -0.1348
   8223SM  H11A10866   4.861   6.443  13.408 -0.2048 -3.2692  0.9141
   8223SM  H11B10867   4.910   6.452  13.576 -1.7205 -0.9425 -0.8839
   8223SM     P10868   5.120   6.282  13.563  0.0238 -0.0242 -0.2756
   8223SM   O1310869   5.189   6.163  13.499  0.3107 -1.0961  0.3234
   8223SM   O1410870   5.202   6.389  13.624 -0.3235  0.7061  0.3157
   8223SM   O1110871   5.006   6.238  13.662 -0.1061 -0.5224 -0.0379
   8223SM   O1210872   5.036   6.344  13.446  0.2821  0.2897 -0.0040
   8223SM   C1S10873   4.901   6.152  13.632  0.0188  0.0665  0.2947
   8223SM   H1S10874   4.948   6.054  13.611 -2.9778 -1.4511  0.0660
   8223SM   H1T10875   4.842   6.189  13.545  0.9837  1.6425  0.2766
   8223SM    NF10876   4.678   6.050  13.735 -0.1400 -0.8540 -0.9960
   8223SM   HNF10877   4.594   6.102  13.747  1.1031  0.9001  0.7781
   8223SM   C2S10878   4.798   6.129  13.757 -0.0530 -0.4240  0.1586
   8223SM   H2S10879   4.853   6.068  13.831 -1.0996 -3.3051 -1.2974
   8223SM   C3S10880   4.764   6.266  13.828  0.4379  0.1850  0.8389
   8223SM   H3S10881   4.701   6.330  13.762  0.3786  1.1362  1.7917
   8223SM    O310882   4.871   6.347  13.873  0.2721  0.0859 -0.2392
   8223SM   HO310883   4.940   6.325  13.810 -1.0144 -0.7785 -1.3864
   8223SM   C4S10884   4.668   6.239  13.945 -0.3704  0.3268 -0.1558
   8223SM   H4S10885   4.697   6.185  14.036 -0.0943  0.6041 -0.0756
   8223SM   C5S10886   4.545   6.288  13.954 -0.5750  0.8235  0.2372
   8223SM   H5S10887   4.515   6.351  13.868 -1.4436 -0.9691 -0.8556
   8223SM   C6S10888   4.457   6.295  14.073  0.2969 -0.3830 -0.5932
   8223SM   H6S10889   4.441   6.195  14.119 -0.6846 -0.1318 -0.3460
   8223SM   H6T10890   4.362   6.334  14.029 -0.3434 -1.7764 -0.4884
   8223SM   C7S10891   4.518   6.391  14.174  0.1907 -0.0347  0.4977
   8223SM   H7S10892   4.539   6.489  14.126  2.3816  0.4349  2.2289
   8223SM   H7T10893   4.614   6.348  14.210  0.0455 -0.5682  0.2481
   8223SM   C8S10894   4.427   6.408  14.297 -0.2101  0.2224 -0.3482
   8223SM   H8S10895   4.420   6.308  14.346 -2.0593  0.1972 -0.5995
   8223SM   H8T10896   4.324   6.440  14.270  0.2261 -0.0984 -2.5573
   8223SM   C9S10897   4.499   6.499  14.403  0.2832  0.6920  0.8462
   8223SM   H9S10898   4.514   6.602  14.364  0.4396  0.8220  1.2531
   8223SM   H9T10899   4.602   6.459  14.414 -0.1927 -0.6249  0.7354
   8223SM  C10S10900   4.421   6.500  14.532  0.1385  0.0789  0.8614
   8223SM  H10S10901   4.422   6.396  14.572 -1.7837 -0.3829 -0.1684
   8223SM  H10T10902   4.314   6.523  14.509  0.2375 -1.2796 -1.2525
   8223SM  C11S10903   4.472   6.588  14.643  0.9195 -0.4779 -0.5052
   8223SM  H11S10904   4.496   6.686  14.597 -1.6485  0.0493 -0.9164
   8223SM  H11T10905   4.560   6.543  14.693 -1.0619 -2.9394  1.0646
   8223SM  C12S10906   4.359   6.611  14.739 -0.2609 -0.0163  0.2434
   8223SM  H12S10907   4.259   6.629  14.694 -0.8595  1.5488  2.0298
   8223SM  H12T10908   4.386   6.696  14.805  1.1930  0.9529 -1.5111
   8223SM  C13S10909   4.345   6.492  14.834 -0.3920 -0.2341  0.1831
   8223SM  H13S10910   4.437   6.502  14.895 -0.3483  3.5684 -0.2481
   8223SM  H13T10911   4.347   6.399  14.773 -1.5631 -0.5272  0.5610
   8223SM  C14S10912   4.222   6.494  14.918 -0.5392 -0.2945  0.1536
   8223SM  H14S10913   4.206   6.596  14.959  1.4279  0.1380 -0.0511
   8223SM  H14T10914   4.236   6.422  15.002 -0.7812 -1.5209 -0.8384
   8223SM  C15S10915   4.097   6.448  14.841 -0.3656 -0.2664  0.1313
   8223SM  H15S10916   4.124   6.354  14.787 -1.5471 -0.7461  0.3435
   8223SM  H15T10917   4.084   6.517  14.755 -2.4296 -0.6805  0.0715
   8223SM  C16S10918   3.983   6.425  14.930 -0.3515  0.0737 -0.0538
   8223SM  H16S10919   4.006   6.347  15.006 -1.6955  1.5475  1.9727
   8223SM  H16T10920   3.893   6.386  14.878  1.1896 -1.2705 -1.8068
   8223SM  C17S10921   3.944   6.569  14.995 -0.3175  0.3713 -0.1189
   8223SM  H17S10922   3.912   6.627  14.906  1.5133 -1.0730 -1.8136
   8223SM  H17T10923   4.027   6.629  15.037 -1.0821  1.0898  0.4126
   8223SM  C18S10924   3.830   6.569  15.097 -0.3559 -0.0636  0.3524
   8223SM  H18S10925   3.749   6.500  15.064 -1.7372  0.7766  1.8905
   8223SM  H18T10926   3.790   6.666  15.132  0.4602 -0.2088  1.7440
   8223SM  H18U10927   3.871   6.514  15.185 -0.0867 -0.3983  0.0226
   8223SM   C1F10928   4.684   5.924  13.697  0.5048  0.2346 -0.2479
   8223SM    OF10929   4.786   5.867  13.657 -0.0379 -0.1192  0.2640
   8223SM   C2F10930   4.545   5.855  13.694  0.2434  0.2146 -1.1476
   8223SM   H2F10931   4.536   5.814  13.591 -1.1529  1.0687 -1.3903
   8223SM   H2G10932   4.463   5.929  13.705 -1.6560 -1.5488 -2.6909
   8223SM   C3F10933   4.544   5.737  13.793  0.7403  0.3961  0.0362
   8223SM   H3F10934   4.575   5.789  13.886  2.3168  2.0211 -1.3254
   8223SM   H3G10935   4.624   5.664  13.768  0.2915  0.3880 -1.4439
   8223SM   C4F10936   4.411   5.667  13.807  0.6375 -0.8129  0.3125
   8223SM   H4F10937   4.371   5.653  13.704 -0.0617 -1.3887  0.6532
   8223SM   H4G10938   4.330   5.719  13.862 -0.9826 -1.0066 -1.7347
   8223SM   C5F10939   4.414   5.522  13.872  0.2087 -0.1876  0.0958
   8223SM   H5F10940   4.306   5.497  13.883 -0.0036 -0.2239 -1.7416
   8223SM   H5G10941   4.457   5.546  13.971  0.1577  1.6122 -0.2848
   8223SM   C6F10942   4.489   5.408  13.803  0.2090  0.5223 -0.4010
   8223SM   H6F10943   4.596   5.438  13.798  0.0592  1.2408  0.5371
   8223SM   H6G10944   4.441   5.392  13.704 -1.7666 -0.6598  0.6842
   8223SM   C7F10945   4.470   5.277  13.890 -0.1113 -0.1441  0.9518
   8223SM   H7F10946   4.418   5.202  13.828  0.0864  0.4490  0.0517
   8223SM   H7G10947   4.396   5.309  13.967  0.3299  0.4449  1.1377
   8223SM   C8F10948   4.602   5.212  13.957 -0.6470 -0.6966  0.6097
   8223SM   H8F10949   4.612   5.280  14.044  0.2089  1.4393 -1.0573
   8223SM   H8G10950   4.685   5.239  13.888 -0.1015 -2.0966  0.6950
   8223SM   C9F10951   4.597   5.063  13.997 -0.0159  0.4172 -0.1914
   8223SM   H9F10952   4.603   5.009  13.900  1.0262 -0.0496  0.1220
   8223SM   H9G10953   4.495   5.042  14.036 -0.1478 -1.3988 -1.3653
   8223SM  C10F10954   4.696   5.023  14.111  0.3319 -0.5145  0.2462
   8223SM  H10F10955   4.674   5.089  14.197 -1.7126  1.2137 -1.4608
   8223SM  H10G10956   4.798   5.061  14.090  0.8983 -0.6514  2.5290
   8223SM  C11F10957   4.694   4.868  14.142  0.1273 -0.8973 -0.1230
   8223SM  H11F10958   4.603   4.823  14.097 -1.3580  0.7816  1.0354
   8223SM  H11G10959   4.692   4.861  14.253  2.1526  0.4024  0.0521
   8223SM  C12F10960   4.825   4.799  14.091  0.2739 -0.8728  0.3223
   8223SM  H12F10961   4.906   4.867  14.124  0.6064 -1.5017  0.8358
   8223SM  H12G10962   4.822   4.786  13.981 -0.7256 -2.6577  0.5241
   8223SM  C13F10963   4.846   4.661  14.156 -0.2372 -0.4347 -0.1923
   8223SM  H13F10964   4.834   4.678  14.265 -1.3676 -0.6545 -0.2696
   8223SM  H13G10965   4.942   4.616  14.125 -0.0703  0.0785 -0.4416
   8223SM  C14F10966   4.739   4.563  14.123  0.2941  0.3746  0.1968
   8223SM  H14F10967   4.701   4.583  14.020  1.0930 -0.7081 -0.3282
   8223SM  H14G10968   4.651   4.591  14.186 -0.7397  1.0818 -1.4787
   8223SM  C15F10969   4.787   4.417  14.137  0.1970  0.0054  0.2784
   8223SM  H15F10970   4.807   4.393  14.244 -0.7985  0.3961  0.5569
   8223SM  H15G10971   4.883   4.412  14.081 -1.3234 -1.5204 -2.4109
   8223SM  C16F10972   4.683   4.321  14.075  1.0080 -0.0062 -0.3045
   8223SM  H16F10973   4.727   4.230  14.029  2.4191  0.1463  0.6619
   8223SM  H16G10974   4.653   4.374  13.983  4.6665  0.7356 -1.2073
   8223SM  C17F10975   4.570   4.286  14.179 -0.4563 -0.1432  1.2001
   8223SM  H17F10976   4.530   4.370  14.240  0.3040 -0.7106  2.5155
   8223SM  H17G10977   4.621   4.220  14.252 -0.6807 -1.1195  0.4862
   8223SM  C18F10978   4.452   4.201  14.118 -0.6378  0.4036 -0.1276
   8223SM  H18F10979   4.502   4.120  14.062  1.8552  1.5427  0.3146
   8223SM  H18G10980   4.392   4.255  14.042  0.7309  0.2280 -1.3619
   8223SM  C19F10981   4.365   4.127  14.216 -0.4642  0.2457 -0.0853
   8223SM  H19F10982   4.426   4.085  14.299  0.2984  0.0714 -0.7298
   8223SM  H19G10983   4.315   4.045  14.160 -0.9443 -0.8162  1.8072
   8223SM  C20F10984   4.241   4.209  14.262  0.4864 -0.2466  1.6551
   8223SM  H20F10985   4.171   4.221  14.177 -0.0754 -2.0722  1.8149
   8223SM  H20G10986   4.281   4.305  14.300 -0.4500  0.6408  0.4552
   8223SM  C21F10987   4.174   4.134  14.373 -0.4586  0.9881  0.5133
   8223SM  H21F10988   4.243   4.119  14.459 -1.8671  1.3042  1.7364
   8223SM  H21G10989   4.141   4.038  14.327  1.1696 -0.0586  1.4382
   8223SM  C22F10990   4.035   4.189  14.407 -0.1757  0.7038  0.1588
   8223SM  H22F10991   3.983   4.222  14.314 -0.1395 -0.5992 -0.3511
   8223SM  H22G10992   4.047   4.276  14.475  1.2497  0.2706  0.4923
   8223SM  C23F10993   3.956   4.090  14.492 -0.1505  0.6723  0.3565
   8223SM  H23F10994   3.957   3.996  14.432  0.3676  0.0354  1.3299
   8223SM  H23G10995   3.852   4.125  14.501 -1.0948 -1.5918 -0.9142
   8223SM  H23H10996   3.997   4.059  14.591 -0.5353 -0.7738  0.0889
   8323SM     N10997   5.737   5.699  12.757  0.7492  0.3716  0.1646
   8323SM   C1510998   5.647   5.817  12.736  0.0537  0.7543 -0.0288
   8323SM  H15A10999   5.700   5.905  12.771  2.6628 -0.7753  0.1289
   8323SM  H15B11000   5.557   5.798  12.792 -1.1485 -2.0633 -2.6171
   8323SM  H15C11001   5.621   5.827  12.631 -0.1479  2.6194  0.1567
   8323SM   C1411002   5.866   5.735  12.688  0.0938 -0.5651  0.1557
   8323SM  H14A11003   5.952   5.672  12.705  2.0714  1.2812 -2.2351
   8323SM  H14B11004   5.894   5.831  12.730  0.2712  0.2541 -1.7290
   8323SM  H14C11005   5.855   5.748  12.582 -0.3756 -0.0912  0.2549
   8323SM   C1311006   5.761   5.684  12.905 -0.6381 -0.4623 -0.8264
   8323SM  H13A11007   5.670   5.658  12.956 -0.0870  1.6257  1.3822
   8323SM  H13B11008   5.810   5.772  12.943 -1.1175 -0.1319 -0.9725
   8323SM  H13C11009   5.832   5.606  12.928  1.2961  0.7287 -2.4301
   8323SM   C1211010   5.676   5.573  12.708  0.6132  0.4577  0.3102
   8323SM  H12A11011   5.753   5.497  12.712 -0.1652 -0.4924 -1.6762
   8323SM  H12B11012   5.661   5.593  12.603 -0.9525  1.8622  0.7660
   8323SM   C1111013   5.535   5.521  12.765 -0.2773 -0.0708  0.2572
   8323SM  H11A11014   5.491   5.443  12.699 -1.0398  1.2532 -0.8668
   8323SM  H11B11015   5.465   5.607  12.755  0.9299  0.8051 -1.1446
   8323SM     P11016   5.618   5.357  12.951  0.1746 -0.3602  0.1343
   8323SM   O1311017   5.521   5.266  13.014  0.0846 -0.0359  0.1909
   8323SM   O1411018   5.701   5.303  12.838  0.1031  0.1356 -0.0727
   8323SM   O1111019   5.720   5.412  13.065 -0.4251  0.5918  0.7245
   8323SM   O1211020   5.545   5.489  12.904 -0.2498 -0.1687 -0.0370
   8323SM   C1S11021   5.673   5.469  13.180 -0.1980 -0.8184 -0.5046
   8323SM   H1S11022   5.585   5.410  13.215 -1.3869  1.3551  0.3345
   8323SM   H1T11023   5.643   5.573  13.157  2.5400  0.1065 -0.1728
   8323SM    NF11024   5.731   5.551  13.416 -0.0422  0.7943 -0.6399
   8323SM   HNF11025   5.750   5.646  13.438  2.0419  0.1429  0.6490
   8323SM   C2S11026   5.780   5.482  13.299 -0.5456  0.4357 -0.1069
   8323SM   H2S11027   5.802   5.379  13.332  1.0587  0.9727  0.5836
   8323SM   C3S11028   5.917   5.546  13.242  0.6859 -0.1798  0.2333
   8323SM   H3S11029   5.908   5.651  13.208  1.0542 -0.6492 -1.3839
   8323SM    O311030   5.967   5.495  13.119  0.5312 -0.0331  0.3905
   8323SM   HO311031   5.900   5.432  13.092  0.7429  0.6621 -2.0018
   8323SM   C4S11032   6.021   5.554  13.345 -0.0027  0.6032  0.4945
   8323SM   H4S11033   6.017   5.644  13.408  1.7881  0.2663  1.1467
   8323SM   C5S11034   6.116   5.467  13.376  0.4264 -0.1833  0.1125
   8323SM   H5S11035   6.128   5.380  13.310  1.3314  0.1855 -0.2233
   8323SM   C6S11036   6.222   5.479  13.488  0.4860 -0.1849  0.3570
   8323SM   H6S11037   6.318   5.522  13.451  1.1208 -1.9323 -0.1291
   8323SM   H6T11038   6.251   5.381  13.532  1.6230  0.4667  1.1454
   8323SM   C7S11039   6.167   5.564  13.605 -0.5971 -0.3226  0.1579
   8323SM   H7S11040   6.077   5.520  13.652 -0.1621  0.7866  2.1473
   8323SM   H7T11041   6.147   5.668  13.575 -0.3283  0.1671  1.5904
   8323SM   C8S11042   6.261   5.576  13.724 -0.3970 -0.1172 -0.3579
   8323SM   H8S11043   6.358   5.620  13.692  0.9184 -1.8291  1.0095
   8323SM   H8T11044   6.290   5.472  13.751  3.2504  0.7754 -0.3592
   8323SM   C9S11045   6.198   5.647  13.838  0.1967 -0.2625 -0.2505
   8323SM   H9S11046   6.090   5.625  13.848  0.3100 -0.5182  0.5086
   8323SM   H9T11047   6.203   5.755  13.810 -1.1959 -0.1742 -0.2270
   8323SM  C10S11048   6.264   5.624  13.972  0.4089  0.1519  0.3129
   8323SM  H10S11049   6.260   5.515  13.987 -1.0676 -0.1656 -1.8755
   8323SM  H10T11050   6.194   5.671  14.044 -0.1953 -0.5748  0.2027
   8323SM  C11S11051   6.400   5.682  13.993 -0.7155  0.6245 -0.1056
   8323SM  H11S11052   6.390   5.781  13.945 -1.0623 -0.3023 -2.0579
   8323SM  H11T11053   6.474   5.637  13.923 -1.2864  3.2036 -2.5444
   8323SM  C12S11054   6.446   5.704  14.135  0.7067  0.2915 -0.4459
   8323SM  H12S11055   6.452   5.610  14.195  0.2167  0.8187  0.4590
   8323SM  H12T11056   6.365   5.765  14.181  0.5033  0.2283 -0.7228
   8323SM  C13S11057   6.579   5.786  14.145 -0.4776  0.4008  0.9395
   8323SM  H13S11058   6.597   5.826  14.247 -1.3968 -0.2459  1.3656
   8323SM  H13T11059   6.554   5.879  14.088 -3.2571 -2.2928 -2.7313
   8323SM  C14S11060   6.699   5.717  14.079  0.6574  0.3222  0.0859
   8323SM  H14S11061   6.664   5.664  13.988  1.2617  2.9010 -1.7436
   8323SM  H14T11062   6.746   5.644  14.148 -0.9335  0.1719  1.0446
   8323SM  C15S11063   6.814   5.809  14.042  0.0164  0.1909  0.1668
   8323SM  H15S11064   6.867   5.848  14.131  0.9539 -0.2322 -0.1879
   8323SM  H15T11065   6.786   5.903  13.989  1.0575  0.9198  0.8620
   8323SM  C16S11066   6.921   5.752  13.954  0.0475  0.0601 -0.1673
   8323SM  H16S11067   6.959   5.658  14.000 -1.7331 -0.8513 -0.4699
   8323SM  H16T11068   6.993   5.837  13.962 -0.2483  0.1770  1.8496
   8323SM  C17S11069   6.880   5.728  13.804  0.4004  0.3228  0.4523
   8323SM  H17S11070   6.788   5.786  13.782  1.1585  1.6845  0.7772
   8323SM  H17T11071   6.855   5.621  13.789 -1.0568  0.9095 -1.6965
   8323SM  C18S11072   6.993   5.783  13.717 -0.4708  0.5329  0.6926
   8323SM  H18S11073   6.987   5.762  13.608  0.7422 -0.1926  0.7504
   8323SM  H18T11074   7.092   5.739  13.742  0.4693  2.8331  1.2933
   8323SM  H18U11075   6.993   5.894  13.731 -2.7638  0.6436  0.1370
   8323SM   C1F11076   5.632   5.491  13.489 -0.6315  0.3922 -0.0862
   8323SM    OF11077   5.601   5.368  13.473  0.3047 -0.4474  0.7836
   8323SM   C2F11078   5.577   5.574  13.599  0.4551 -0.3235 -0.0188
   8323SM   H2F11079   5.547   5.668  13.548 -1.0167 -2.0178 -2.4743
   8323SM   H2G11080   5.659   5.602  13.669  1.2852 -1.9842 -0.2845
   8323SM   C3F11081   5.455   5.515  13.666 -0.2185 -0.1995 -0.6245
   8323SM   H3F11082   5.371   5.487  13.599 -0.2094  0.4223 -0.9058
   8323SM   H3G11083   5.415   5.604  13.720 -0.4562  0.7058 -2.2357
   8323SM   C4F11084   5.477   5.397  13.765  0.1298  0.5050  0.0443
   8323SM   H4F11085   5.565   5.423  13.827 -0.3455 -0.0811  0.9719
   8323SM   H4G11086   5.494   5.304  13.706  1.3749  0.6121  0.1963
   8323SM   C5F11087   5.370   5.374  13.865 -0.4543  0.2973 -0.4629
   8323SM   H5F11088   5.344   5.474  13.907 -0.2760  0.8869 -1.7154
   8323SM   H5G11089   5.399   5.312  13.953 -4.1071 -1.6854 -0.4580
   8323SM   C6F11090   5.246   5.312  13.800  0.3339 -0.2058 -0.5037
   8323SM   H6F11091   5.266   5.216  13.748  1.1043  0.2950 -1.1615
   8323SM   H6G11092   5.184   5.379  13.737  0.0153  0.6139  0.6313
   8323SM   C7F11093   5.153   5.267  13.910 -0.2943  0.3149 -0.1379
   8323SM   H7F11094   5.209   5.191  13.969 -1.1907 -0.8719 -0.7572
   8323SM   H7G11095   5.062   5.211  13.879 -0.7907  0.1606  1.4998
   8323SM   C8F11096   5.103   5.378  14.005  0.2905 -0.2652 -0.2664
   8323SM   H8F11097   5.034   5.455  13.965  0.6619  0.3762  0.3016
   8323SM   H8G11098   5.181   5.439  14.054  0.3528 -1.4368  1.1672
   8323SM   C9F11099   5.023   5.308  14.116 -0.5553  0.1269 -0.1928
   8323SM   H9F11100   5.079   5.223  14.161 -1.9838 -1.9588 -2.1134
   8323SM   H9G11101   4.934   5.262  14.069 -0.1658  0.5319 -1.3522
   8323SM  C10F11102   4.956   5.409  14.215  0.5207  0.4740 -0.4700
   8323SM  H10F11103   4.890   5.471  14.150 -0.8420 -1.7592 -1.3057
   8323SM  H10G11104   5.037   5.471  14.261 -1.0790  2.8722 -0.6766
   8323SM  C11F11105   4.873   5.333  14.326 -0.0685 -1.2236 -0.5323
   8323SM  H11F11106   4.937   5.247  14.354 -0.2662 -0.7547  1.5378
   8323SM  H11G11107   4.781   5.293  14.278 -1.1548 -1.1461  1.4121
   8323SM  C12F11108   4.839   5.399  14.454  0.5630  0.1911  0.3525
   8323SM  H12F11109   4.797   5.323  14.523  0.5520 -0.8556 -0.7756
   8323SM  H12G11110   4.760   5.475  14.436  1.0715  1.1674  2.0179
   8323SM  C13F11111   4.958   5.480  14.521  0.1984 -0.0968  0.3670
   8323SM  H13F11112   4.924   5.536  14.610  1.9886  0.3181  0.8295
   8323SM  H13G11113   4.994   5.547  14.441  0.7015 -1.6201 -0.7363
   8323SM  C14F11114   5.069   5.385  14.562 -0.0003  0.2337 -0.5103
   8323SM  H14F11115   5.122   5.345  14.473 -0.8345 -0.7205 -0.6027
   8323SM  H14G11116   5.015   5.303  14.614  0.5483 -0.1482 -0.5357
   8323SM  C15F11117   5.164   5.439  14.667  0.5099  0.9342  0.8349
   8323SM  H15F11118   5.217   5.528  14.629  0.7882  0.2333 -0.5004
   8323SM  H15G11119   5.250   5.369  14.677  2.9831  3.9170  2.0136
   8323SM  C16F11120   5.104   5.467  14.803 -0.4275 -0.1332  0.0395
   8323SM  H16F11121   5.053   5.374  14.837  0.2816 -0.6267 -0.2327
   8323SM  H16G11122   5.032   5.552  14.804  1.1725  1.2669  0.2797
   8323SM  C17F11123   5.211   5.504  14.909  0.3621 -0.6779  0.8286
   8323SM  H17F11124   5.275   5.417  14.933  0.7677 -0.0385  2.1187
   8323SM  H17G11125   5.159   5.525  15.004 -0.6451  1.4949 -0.1345
   8323SM  C18F11126   5.304   5.626  14.879  0.1898  0.7397  0.2169
   8323SM  H18F11127   5.238   5.708  14.842  1.1128  0.2259 -2.8395
   8323SM  H18G11128   5.363   5.586  14.794 -1.3347  0.5932 -0.8227
   8323SM  C19F11129   5.377   5.664  15.007  0.4173  0.8705  0.5152
   8323SM  H19F11130   5.443   5.578  15.031  0.2735  0.2717 -1.1238
   8323SM  H19G11131   5.297   5.679  15.082 -1.1521 -2.8355 -0.2115
   8323SM  C20F11132   5.462   5.795  15.001 -0.4100 -0.9171  0.6874
   8323SM  H20F11133   5.409   5.880  14.954  1.5231 -0.0014  0.0524
   8323SM  H20G11134   5.553   5.761  14.948  0.0593 -0.2546  1.0564
   8323SM  C21F11135   5.519   5.847  15.134  0.3814  0.0850  0.5284
   8323SM  H21F11136   5.430   5.876  15.194 -2.2623  0.2453 -3.1113
   8323SM  H21G11137   5.576   5.939  15.108 -0.9663  1.0376  0.8559
   8323SM  C22F11138   5.612   5.741  15.199 -0.2692 -0.6475  0.1438
   8323SM  H22F11139   5.711   5.737  15.147 -0.7276 -0.3235 -0.7850
   8323SM  H22G11140   5.567   5.640  15.203 -0.6719 -0.4239  1.9266
   8323SM  C23F11141   5.645   5.774  15.344 -0.4085  0.4147 -0.0279
   8323SM  H23F11142   5.549   5.768  15.400  0.3353  0.5670  1.2958
   8323SM  H23G11143   5.675   5.880  15.337 -1.2163  0.5292 -3.5439
   8323SM  H23H11144   5.724   5.704  15.379  0.2039  0.7691 -0.6973
   8423SM     N11145   4.503   2.371  13.016  0.1060  0.5773 -0.0660
   8423SM   C1511146   4.478   2.378  13.162  0.1050 -0.2245  0.0550
   8423SM  H15A11147   4.380   2.341  13.188 -0.5623  1.1486 -0.3610
   8423SM  H15B11148   4.477   2.483  13.188 -1.5640  0.4183 -2.2232
   8423SM  H15C11149   4.555   2.321  13.211  0.3084 -1.2839 -1.4281
   8423SM   C1411150   4.623   2.448  12.982 -0.4759 -0.3699  0.0673
   8423SM  H14A11151   4.653   2.447  12.878  0.0367 -1.0733  0.2222
   8423SM  H14B11152   4.711   2.405  13.027  1.3569  0.2956 -2.6095
   8423SM  H14C11153   4.627   2.552  13.012  0.7962 -0.4641  0.2767
   8423SM   C1311154   4.534   2.230  12.975 -0.4029  0.0606 -0.4799
   8423SM  H13A11155   4.618   2.191  13.031 -1.9744 -0.7768  1.4190
   8423SM  H13B11156   4.553   2.215  12.870  3.0448  0.7656 -0.0816
   8423SM  H13C11157   4.458   2.165  13.016 -1.4147  2.1367  1.1505
   8423SM   C1211158   4.384   2.429  12.944 -0.0747 -0.1664  0.3654
   8423SM  H12A11159   4.300   2.367  12.973 -1.0945  0.3439 -1.3489
   8423SM  H12B11160   4.390   2.410  12.838  0.8022  0.8500  0.2186
   8423SM   C1111161   4.358   2.577  12.962  0.8751 -0.4283  0.2487
   8423SM  H11A11162   4.284   2.610  12.886  0.6626 -0.5246  0.4105
   8423SM  H11B11163   4.447   2.640  12.943  0.3840  0.8561  2.0312
   8423SM     P11164   4.162   2.571  13.128 -0.1490  0.0049 -0.0972
   8423SM   O1311165   4.082   2.660  13.047  0.5497  0.1106  0.1653
   8423SM   O1411166   4.146   2.422  13.116  0.0175 -0.5478  0.0321
   8423SM   O1111167   4.153   2.617  13.280  0.1464  0.9893  0.5764
   8423SM   O1211168   4.317   2.609  13.101  0.4365  1.3374  0.3732
   8423SM   C1S11169   4.236   2.548  13.377  0.6495 -0.2866 -0.3049
   8423SM   H1S11170   4.327   2.611  13.371 -0.9136  1.9018 -2.6670
   8423SM   H1T11171   4.259   2.443  13.348  0.2238 -0.6938  0.7639
   8423SM    NF11172   4.289   2.490  13.617 -0.3897  0.1991  0.2870
   8423SM   HNF11173   4.279   2.409  13.674  0.8820  1.2426  2.1047
   8423SM   C2S11174   4.183   2.535  13.525  0.1006  0.7445  0.2144
   8423SM   H2S11175   4.165   2.640  13.556 -0.5366  1.2009 -1.5803
   8423SM   C3S11176   4.048   2.460  13.541 -0.2976  0.0759 -0.5940
   8423SM   H3S11177   4.061   2.350  13.530 -2.5593 -0.1099 -2.1835
   8423SM    O311178   3.957   2.493  13.441  0.3791 -0.0323 -1.1215
   8423SM   HO311179   3.991   2.563  13.385 -0.9591  2.2489  0.7272
   8423SM   C4S11180   3.999   2.504  13.674  0.3170  0.1669  0.7666
   8423SM   H4S11181   3.966   2.609  13.671  1.9309  0.6820 -1.3402
   8423SM   C5S11182   3.997   2.434  13.787  0.0844  0.5346  0.1930
   8423SM   H5S11183   4.042   2.335  13.798  0.1032  0.4821 -0.3672
   8423SM   C6S11184   3.957   2.485  13.921  0.6843 -0.2167  0.0026
   8423SM   H6S11185   3.886   2.413  13.965  0.3707  0.0808 -0.0065
   8423SM   H6T11186   3.901   2.580  13.906  0.8951 -0.0261  0.3855
   8423SM   C7S11187   4.078   2.529  14.003  0.5354  0.7725  0.3275
   8423SM   H7S11188   4.150   2.595  13.950 -0.7121  1.0287 -1.1094
   8423SM   H7T11189   4.136   2.438  14.031  0.1955 -0.4027 -2.4175
   8423SM   C8S11190   4.035   2.592  14.136 -0.0819 -0.4147 -0.1187
   8423SM   H8S11191   3.994   2.695  14.125  0.2333 -0.0424  1.8508
   8423SM   H8T11192   4.124   2.607  14.201  0.0259 -0.8977 -0.1485
   8423SM   C9S11193   3.935   2.511  14.220  0.0097  0.2075 -0.0602
   8423SM   H9S11194   3.986   2.413  14.216  2.1178  1.2474 -0.3673
   8423SM   H9T11195   3.840   2.528  14.164  0.0812  0.4775 -0.1024
   8423SM  C10S11196   3.915   2.548  14.365  0.7373  0.1673 -0.3410
   8423SM  H10S11197   3.921   2.659  14.376 -1.8410  0.2269  1.6463
   8423SM  H10T11198   3.989   2.499  14.431  0.2333 -0.2500 -0.0756
   8423SM  C11S11199   3.769   2.514  14.408 -0.6969  0.6152 -0.2852
   8423SM  H11S11200   3.724   2.418  14.375 -2.2394  1.5621 -1.0144
   8423SM  H11T11201   3.720   2.600  14.359 -2.1679  0.5736  1.0194
   8423SM  C12S11202   3.750   2.527  14.561 -0.2750 -0.2242 -0.2632
   8423SM  H12S11203   3.646   2.562  14.577  0.3282  0.5701  2.4236
   8423SM  H12T11204   3.819   2.606  14.597 -0.1921  0.3476 -1.6252
   8423SM  C13S11205   3.783   2.408  14.646  0.1242 -0.2621  0.4539
   8423SM  H13S11206   3.891   2.397  14.668  0.1162 -0.4802  0.3845
   8423SM  H13T11207   3.749   2.326  14.579 -2.4288  1.5762 -0.6411
   8423SM  C14S11208   3.702   2.409  14.771 -0.0696  0.3669 -0.4187
   8423SM  H14S11209   3.592   2.401  14.755  0.2811 -0.8112 -2.8456
   8423SM  H14T11210   3.739   2.497  14.827  1.6491 -0.5748 -0.0032
   8423SM  C15S11211   3.728   2.286  14.855 -0.0757 -0.4783 -0.2857
   8423SM  H15S11212   3.830   2.296  14.897 -0.0052 -1.1580 -0.2871
   8423SM  H15T11213   3.727   2.195  14.792 -3.1478 -1.7548  1.3938
   8423SM  C16S11214   3.606   2.242  14.948  0.0151 -0.4212  0.2245
   8423SM  H16S11215   3.654   2.161  15.006  2.1094  0.1821 -0.5797
   8423SM  H16T11216   3.530   2.197  14.880  0.4632 -0.8973  0.0269
   8423SM  C17S11217   3.546   2.352  15.040 -0.7682  0.1713 -0.3120
   8423SM  H17S11218   3.482   2.296  15.111  1.4299 -0.8481  0.9618
   8423SM  H17T11219   3.470   2.412  14.986 -0.6371 -0.9335 -1.7633
   8423SM  C18S11220   3.647   2.448  15.113  0.1695 -0.0154 -0.5160
   8423SM  H18S11221   3.590   2.500  15.193 -2.4528 -2.8440 -0.3189
   8423SM  H18T11222   3.700   2.516  15.044  0.6621  0.8223  0.6546
   8423SM  H18U11223   3.719   2.374  15.153  0.0413  0.1285 -0.0099
   8423SM   C1F11224   4.404   2.557  13.630 -0.0476  0.3236  0.1363
   8423SM    OF11225   4.417   2.679  13.597  0.1226 -0.2657  0.3661
   8423SM   C2F11226   4.521   2.470  13.665  0.0262 -0.3049  0.1099
   8423SM   H2F11227   4.574   2.447  13.569  0.0733  2.0628 -0.4868
   8423SM   H2G11228   4.498   2.372  13.712 -0.6098 -1.7662 -2.9571
   8423SM   C3F11229   4.622   2.539  13.756 -0.7281 -0.2041  0.3102
   8423SM   H3F11230   4.672   2.622  13.703  0.5391 -1.3667 -0.3803
   8423SM   H3G11231   4.702   2.463  13.765 -0.0521  0.5520  0.7419
   8423SM   C4F11232   4.575   2.575  13.893 -0.6040 -0.0063 -0.8584
   8423SM   H4F11233   4.525   2.483  13.932 -1.4670  0.4954 -0.7670
   8423SM   H4G11234   4.497   2.653  13.896 -0.1948  0.3742  0.9797
   8423SM   C5F11235   4.685   2.618  13.992  0.0083  0.0597  0.1103
   8423SM   H5F11236   4.735   2.702  13.941 -2.6288  2.0951  0.6538
   8423SM   H5G11237   4.756   2.534  14.007 -1.2021 -0.5334  3.3077
   8423SM   C6F11238   4.647   2.680  14.127  0.5637  0.1413  0.6349
   8423SM   H6F11239   4.559   2.743  14.101  1.1611  0.3207 -1.1443
   8423SM   H6G11240   4.738   2.725  14.173  0.8128 -0.7337  1.0071
   8423SM   C7F11241   4.601   2.577  14.239  0.2571 -0.0049  0.0397
   8423SM   H7F11242   4.694   2.532  14.280  0.7644 -0.1581 -1.2207
   8423SM   H7G11243   4.540   2.495  14.195 -0.3785  0.0103  0.8762
   8423SM   C8F11244   4.512   2.645  14.353 -0.2501  0.3163  0.0094
   8423SM   H8F11245   4.441   2.716  14.306  1.1566  1.7849  0.0291
   8423SM   H8G11246   4.569   2.706  14.427 -0.3630 -2.6088  2.7031
   8423SM   C9F11247   4.415   2.548  14.423 -0.1122  0.2274  0.3366
   8423SM   H9F11248   4.481   2.463  14.450  1.6356  1.2515 -0.5554
   8423SM   H9G11249   4.349   2.502  14.345 -0.0943 -1.5349  1.2956
   8423SM  C10F11250   4.333   2.625  14.535  0.2614 -0.2182  0.1946
   8423SM  H10F11251   4.278   2.707  14.484 -0.1017 -1.6358 -1.8099
   8423SM  H10G11252   4.404   2.658  14.613 -0.1235 -0.0845  0.4926
   8423SM  C11F11253   4.235   2.536  14.608 -0.1793  0.6596 -0.0958
   8423SM  H11F11254   4.277   2.435  14.626 -0.6688  0.1130 -1.8770
   8423SM  H11G11255   4.140   2.515  14.555 -1.3110  1.4170  1.5402
   8423SM  C12F11256   4.196   2.597  14.747  0.2166 -0.2965  0.8066
   8423SM  H12F11257   4.285   2.641  14.796  0.6945  1.5264 -1.4978
   8423SM  H12G11258   4.154   2.523  14.818 -1.5743  2.0346  2.3476
   8423SM  C13F11259   4.089   2.708  14.744 -0.1254  0.2942  0.5486
   8423SM  H13F11260   4.017   2.690  14.661  0.2974  1.3863 -0.0764
   8423SM  H13G11261   4.138   2.807  14.731 -1.3301  1.0271  1.3177
   8423SM  C14F11262   3.997   2.710  14.869 -0.5260  0.0777  0.3726
   8423SM  H14F11263   3.945   2.613  14.883  0.4405 -1.2122 -3.7182
   8423SM  H14G11264   3.906   2.771  14.853 -1.2876 -1.1843 -0.3068
   8423SM  C15F11265   4.064   2.734  15.009 -0.1952  0.5103 -0.0268
   8423SM  H15F11266   4.083   2.844  15.014 -0.1012  0.5561 -1.0344
   8423SM  H15G11267   4.162   2.683  15.016 -0.6350 -0.2615  0.6133
   8423SM  C16F11268   3.963   2.703  15.124 -0.1285  0.2924  0.1103
   8423SM  H16F11269   3.944   2.593  15.123 -3.0002  0.6710  1.6195
   8423SM  H16G11270   3.869   2.751  15.090  0.0844 -0.8372 -2.3086
   8423SM  C17F11271   4.023   2.756  15.251  0.1449  0.1598 -0.0557
   8423SM  H17F11272   4.092   2.841  15.235  1.1665 -0.8065 -0.9929
   8423SM  H17G11273   4.093   2.683  15.297  0.7248  0.0071 -1.1326
   8423SM  C18F11274   3.913   2.797  15.348  0.1450  0.2928 -0.0801
   8423SM  H18F11275   3.821   2.832  15.296  1.0956 -0.9852 -2.8275
   8423SM  H18G11276   3.946   2.878  15.417  0.1134  0.9886 -0.8595
   8423SM  C19F11277   3.863   2.679  15.440  0.2167 -0.2917 -0.1068
   8423SM  H19F11278   3.944   2.663  15.514  1.4098  0.8097 -1.1177
   8423SM  H19G11279   3.831   2.587  15.388  0.9831 -1.1783  0.9554
   8423SM  C20F11280   3.742   2.716  15.530  0.0989 -0.4782  0.2607
   8423SM  H20F11281   3.770   2.803  15.594 -1.6903 -0.2920  0.8492
   8423SM  H20G11282   3.740   2.632  15.602  1.4059  0.2262  1.1615
   8423SM  C21F11283   3.603   2.742  15.473 -0.0503 -0.2037  0.5309
   8423SM  H21F11284   3.563   2.654  15.419  0.7083 -0.5046  0.4451
   8423SM  H21G11285   3.604   2.832  15.407 -2.5026  0.9339  1.9215
   8423SM  C22F11286   3.502   2.761  15.586  0.0885 -0.5185  0.9091
   8423SM  H22F11287   3.413   2.812  15.544  1.0092  0.7178  0.4053
   8423SM  H22G11288   3.533   2.853  15.640 -0.9956  0.6558 -0.3933
   8423SM  C23F11289   3.453   2.646  15.669 -0.4234 -0.4430 -0.6599
   8423SM  H23F11290   3.529   2.625  15.747  0.3782  0.1201 -1.2649
   8423SM  H23G11291   3.431   2.564  15.598  0.2747 -2.7457  1.6371
   8423SM  H23H11292   3.363   2.672  15.729 -0.6481  1.9084 -1.9111
   8523SM     N11293   6.379   5.318  12.905 -0.9172  0.1464  0.9103
   8523SM   C1511294   6.286   5.233  12.817  0.1021 -0.3192 -0.1367
   8523SM  H15A11295   6.335   5.142  12.786 -0.4873 -0.6169 -0.2126
   8523SM  H15B11296   6.253   5.291  12.732 -0.0855 -0.8763 -0.4536
   8523SM  H15C11297   6.212   5.192  12.884 -0.3234  2.0557  0.9659
   8523SM   C1411298   6.482   5.376  12.806  1.0002  0.2641  0.0272
   8523SM  H14A11299   6.558   5.431  12.859 -0.5858  1.3362  1.3317
   8523SM  H14B11300   6.444   5.447  12.734 -0.3341  0.7200  1.1368
   8523SM  H14C11301   6.534   5.297  12.755 -0.2460 -0.4618 -0.1791
   8523SM   C1311302   6.309   5.437  12.961 -0.5373 -0.1185  0.2176
   8523SM  H13A11303   6.221   5.411  13.018 -0.4585 -0.8556  0.0132
   8523SM  H13B11304   6.272   5.517  12.897  1.5606 -0.1312 -1.1062
   8523SM  H13C11305   6.376   5.485  13.031  1.2413 -2.2091  0.0367
   8523SM   C1211306   6.444   5.240  13.021  0.3690 -0.1364  0.1793
   8523SM  H12A11307   6.495   5.159  12.972  0.4628  0.4911 -0.7784
   8523SM  H12B11308   6.362   5.199  13.077 -1.6521  3.0238 -0.2268
   8523SM   C1111309   6.549   5.304  13.112 -0.3212  0.2815  0.3118
   8523SM  H11A11310   6.588   5.219  13.172  0.6104 -0.8622 -1.7887
   8523SM  H11B11311   6.502   5.374  13.184  0.6200  1.0142  0.2338
   8523SM     P11312   6.759   5.453  13.082  0.2020  0.1532  0.3892
   8523SM   O1311313   6.892   5.407  13.040 -0.3701 -0.1134 -0.0980
   8523SM   O1411314   6.721   5.590  13.052  0.2081 -0.1407 -0.0788
   8523SM   O1111315   6.740   5.420  13.233  0.1402  0.2161  0.4055
   8523SM   O1211316   6.645   5.364  13.023 -0.0847  0.7420 -0.3730
   8523SM   C1S11317   6.856   5.364  13.307  0.3611 -0.1730  0.0184
   8523SM   H1S11318   6.954   5.412  13.286  0.6923  0.0718  1.9649
   8523SM   H1T11319   6.852   5.254  13.291 -1.4024 -0.4951  2.2083
   8523SM    NF11320   6.944   5.347  13.544  0.2449  0.6753 -0.5057
   8523SM   HNF11321   6.925   5.276  13.612  3.7535  1.0098  1.0492
   8523SM   C2S11322   6.832   5.384  13.461 -0.0442  0.7064  0.3821
   8523SM   H2S11323   6.822   5.495  13.472  1.3098  0.9572 -0.5882
   8523SM   C3S11324   6.698   5.321  13.502  0.1371  0.2014 -0.2338
   8523SM   H3S11325   6.716   5.211  13.506 -1.0578  0.0068  0.5462
   8523SM    O311326   6.590   5.345  13.415 -0.6797 -0.1168 -0.0493
   8523SM   HO311327   6.636   5.384  13.341 -0.8655 -0.6743 -0.4628
   8523SM   C4S11328   6.658   5.358  13.640 -1.3423  0.5520 -0.5529
   8523SM   H4S11329   6.644   5.467  13.651  2.1273  1.2467 -1.6691
   8523SM   C5S11330   6.647   5.283  13.752  0.0292 -0.2826  0.5532
   8523SM   H5S11331   6.662   5.174  13.750  2.1907 -0.0483 -2.3072
   8523SM   C6S11332   6.609   5.340  13.888 -0.7998  0.1166 -0.0223
   8523SM   H6S11333   6.517   5.291  13.927 -1.8035  0.3362 -1.9795
   8523SM   H6T11334   6.593   5.450  13.889 -0.3824  0.2426  3.3986
   8523SM   C7S11335   6.735   5.326  13.975  0.5803  0.2903  0.6294
   8523SM   H7S11336   6.810   5.403  13.948  0.1522 -0.1794 -2.1991
   8523SM   H7T11337   6.775   5.223  13.959 -2.1045 -0.4474 -2.1550
   8523SM   C8S11338   6.706   5.353  14.126  0.2727  0.6244  0.1950
   8523SM   H8S11339   6.658   5.266  14.176 -0.1272 -0.1378 -1.4287
   8523SM   H8T11340   6.641   5.443  14.127 -1.6601 -0.6571 -0.7947
   8523SM   C9S11341   6.836   5.379  14.201  0.1360  0.0535  0.3414
   8523SM   H9S11342   6.880   5.477  14.172 -0.5478 -0.3446 -2.2855
   8523SM   H9T11343   6.911   5.298  14.188 -0.3618 -0.3220 -0.1954
   8523SM  C10S11344   6.818   5.379  14.356  0.8891 -0.7775  0.6193
   8523SM  H10S11345   6.766   5.285  14.385  0.0418  0.5264  3.8344
   8523SM  H10T11346   6.744   5.458  14.383  2.3481  1.0228 -0.4108
   8523SM  C11S11347   6.954   5.418  14.420 -0.3591  0.2826 -0.3041
   8523SM  H11S11348   6.989   5.505  14.361  2.8272 -0.3696  0.4601
   8523SM  H11T11349   7.028   5.336  14.413  0.9080  1.4984 -1.6041
   8523SM  C12S11350   6.942   5.465  14.565  0.3223 -0.2071  0.1447
   8523SM  H12S11351   6.902   5.386  14.633 -2.8880  0.7775 -0.4451
   8523SM  H12T11352   6.864   5.543  14.553  1.4373  1.0529  0.8584
   8523SM  C13S11353   7.060   5.536  14.623  0.2415  0.1920 -0.4951
   8523SM  H13S11354   7.103   5.608  14.549  0.8566 -1.8445 -2.2203
   8523SM  H13T11355   7.132   5.455  14.648  1.0347  0.9580 -0.2582
   8523SM  C14S11356   7.025   5.597  14.766  0.3998  0.8077  0.7524
   8523SM  H14S11357   6.971   5.526  14.832  2.5271  0.7711  2.5646
   8523SM  H14T11358   6.952   5.679  14.746  0.4784  1.0447  1.4033
   8523SM  C15S11359   7.148   5.653  14.839 -0.6064  0.5933 -0.5264
   8523SM  H15S11360   7.215   5.571  14.873  1.0178  0.4417 -3.7472
   8523SM  H15T11361   7.112   5.702  14.932 -0.2393 -2.1858  1.2092
   8523SM  C16S11362   7.227   5.765  14.773 -0.5251  0.0084 -0.0096
   8523SM  H16S11363   7.168   5.858  14.765 -0.6529 -0.1599 -1.1615
   8523SM  H16T11364   7.232   5.730  14.668 -1.1759 -1.6193  0.4642
   8523SM  C17S11365   7.367   5.804  14.832  0.3191 -0.8948 -0.0295
   8523SM  H17S11366   7.439   5.721  14.843 -1.3373 -2.3433  0.3153
   8523SM  H17T11367   7.346   5.834  14.937 -0.3877  0.0489 -0.4289
   8523SM  C18S11368   7.439   5.921  14.759 -0.9502 -0.0992  0.0290
   8523SM  H18S11369   7.396   6.019  14.787 -1.4813 -0.9201  2.2612
   8523SM  H18T11370   7.436   5.907  14.649  0.9061  0.2324 -0.0962
   8523SM  H18U11371   7.549   5.922  14.779 -1.2797 -0.0333  2.0562
   8523SM   C1F11372   7.065   5.391  13.542 -0.0988 -0.6205  0.2008
   8523SM    OF11373   7.095   5.481  13.464 -0.0644 -0.3142 -0.1410
   8523SM   C2F11374   7.162   5.317  13.620 -0.6477  0.3484  0.2686
   8523SM   H2F11375   7.247   5.289  13.555 -0.7155  0.1508  0.2669
   8523SM   H2G11376   7.118   5.220  13.652 -3.0287  1.1965 -0.2433
   8523SM   C3F11377   7.200   5.388  13.749  0.2921 -0.3105  0.0427
   8523SM   H3F11378   7.254   5.481  13.723  3.1510 -2.4386 -2.2630
   8523SM   H3G11379   7.277   5.321  13.792  0.3081 -0.7366 -0.6490
   8523SM   C4F11380   7.088   5.406  13.856 -0.3594  0.2431  0.6069
   8523SM   H4F11381   7.038   5.308  13.873  1.0245 -0.5624  0.1846
   8523SM   H4G11382   7.003   5.469  13.821  0.0215  0.8241  0.7265
   8523SM   C5F11383   7.141   5.461  13.985 -0.4505 -0.1201 -0.2307
   8523SM   H5F11384   7.060   5.465  14.061  0.5572  0.5110  0.8404
   8523SM   H5G11385   7.187   5.562  13.978  0.5029 -0.5033  0.3209
   8523SM   C6F11386   7.252   5.382  14.062 -0.5086  0.4326  0.2911
   8523SM   H6F11387   7.354   5.401  14.023 -0.1076 -1.1477  0.5214
   8523SM   H6G11388   7.233   5.273  14.052 -0.6973  0.2795  1.9860
   8523SM   C7F11389   7.263   5.401  14.210  0.2772  0.2188  0.0137
   8523SM   H7F11390   7.186   5.344  14.267 -0.3637  0.0001 -1.0464
   8523SM   H7G11391   7.246   5.508  14.237  4.7023  0.9482  0.5947
   8523SM   C8F11392   7.397   5.357  14.265  0.4540 -0.4199 -1.1174
   8523SM   H8F11393   7.480   5.419  14.224  0.7758  1.1368  1.6557
   8523SM   H8G11394   7.425   5.252  14.242  1.6515 -1.1080  2.7070
   8523SM   C9F11395   7.401   5.388  14.414 -0.2978  0.1364 -0.0418
   8523SM   H9F11396   7.333   5.316  14.463  2.1677 -2.1170  0.3094
   8523SM   H9G11397   7.346   5.484  14.429 -1.3614 -0.2139 -1.4934
   8523SM  C10F11398   7.536   5.376  14.473  0.0863  0.1190 -0.4257
   8523SM  H10F11399   7.531   5.389  14.583 -2.0307 -0.2555 -0.4302
   8523SM  H10G11400   7.603   5.451  14.426  2.6957 -1.7294  0.1276
   8523SM  C11F11401   7.606   5.246  14.450  0.0644  0.4051  0.1919
   8523SM  H11F11402   7.613   5.218  14.343 -5.1206  0.0483 -0.3202
   8523SM  H11G11403   7.539   5.165  14.488  1.5218  0.3322  2.7771
   8523SM  C12F11404   7.742   5.244  14.531 -0.0116  0.0115  0.0465
   8523SM  H12F11405   7.709   5.220  14.635  0.4528 -0.2558  0.1351
   8523SM  H12G11406   7.792   5.343  14.532 -0.3415  0.1800  1.1822
   8523SM  C13F11407   7.846   5.152  14.473  0.6851 -0.4495  0.1854
   8523SM  H13F11408   7.803   5.050  14.482 -0.2781 -0.1876 -1.1142
   8523SM  H13G11409   7.938   5.154  14.535 -0.9374  1.4396  2.6821
   8523SM  C14F11410   7.890   5.168  14.326 -0.0734 -0.1007 -0.2390
   8523SM  H14F11411   7.927   5.272  14.315  0.7933 -0.3978 -0.2026
   8523SM  H14G11412   7.802   5.160  14.259 -1.2824  1.1176  1.1081
   8523SM  C15F11413   8.005   5.071  14.279 -0.7189  0.3546  0.2424
   8523SM  H15F11414   8.010   5.080  14.169 -3.4718 -1.0506 -0.0781
   8523SM  H15G11415   7.985   4.963  14.293 -2.4837  0.6439  0.1140
   8523SM  C16F11416   8.143   5.123  14.329 -0.3538 -0.2279  0.6258
   8523SM  H16F11417   8.132   5.111  14.439 -0.4071  0.7210  0.7362
   8523SM  H16G11418   8.149   5.230  14.298  1.9184 -0.7896 -1.1145
   8523SM  C17F11419   8.265   5.042  14.275 -0.3432 -0.1992 -1.1596
   8523SM  H17F11420   8.256   5.045  14.165 -1.4414  1.8473 -1.0444
   8523SM  H17G11421   8.264   4.936  14.309 -1.6059 -0.2833 -1.4176
   8523SM  C18F11422   8.398   5.109  14.316  0.2729  0.1742  0.6840
   8523SM  H18F11423   8.421   5.088  14.423 -1.9648 -2.1926  0.8005
   8523SM  H18G11424   8.384   5.217  14.297 -0.5508  0.1625  1.1557
   8523SM  C19F11425   8.524   5.046  14.257 -0.1493 -0.9636  0.1264
   8523SM  H19F11426   8.504   5.011  14.153  3.4407 -3.0838  0.0049
   8523SM  H19G11427   8.556   4.955  14.312  1.5074  1.0824  2.8050
   8523SM  C20F11428   8.638   5.142  14.266  0.4164 -0.1879  0.0302
   8523SM  H20F11429   8.650   5.157  14.375  0.3186  0.3850 -0.0369
   8523SM  H20G11430   8.613   5.244  14.230  0.7396  0.0290  0.4160
   8523SM  C21F11431   8.762   5.089  14.193 -0.5633 -0.1443 -0.7055
   8523SM  H21F11432   8.782   4.994  14.246 -0.4871  0.5402  0.5299
   8523SM  H21G11433   8.856   5.147  14.203 -0.8165 -0.0364  1.4386
   8523SM  C22F11434   8.757   5.060  14.035  0.0322 -0.6021 -0.3066
   8523SM  H22F11435   8.684   5.128  13.987 -3.6701 -2.4980  2.1377
   8523SM  H22G11436   8.688   4.973  14.035 -0.7967  0.0356 -1.1844
   8523SM  C23F11437   8.893   5.029  13.972 -0.4016  0.3829 -0.1306
   8523SM  H23F11438   8.881   4.980  13.873  2.3836  0.8458 -0.7608
   8523SM  H23G11439   8.925   4.944  14.036 -2.3050 -0.6917 -0.5207
   8523SM  H23H11440   8.964   5.114  13.977  0.6272 -0.4911  0.9697
   8623SM     N11441   3.759   1.836  13.050 -0.9918  0.8472  0.6721
   8623SM   C1511442   3.762   1.689  13.055 -0.4137 -0.3218  0.0946
   8623SM  H15A11443   3.830   1.643  12.985 -1.4292 -0.6616 -0.6858
   8623SM  H15B11444   3.668   1.647  13.021  0.3259 -0.8259 -1.4351
   8623SM  H15C11445   3.780   1.655  13.155 -0.9117  2.4993  1.2473
   8623SM   C1411446   3.705   1.860  12.907 -0.2903  0.1353 -0.5310
   8623SM  H14A11447   3.612   1.805  12.903 -0.2874  0.1223 -0.4143
   8623SM  H14B11448   3.772   1.833  12.827  1.3474  2.7840 -0.1818
   8623SM  H14C11449   3.690   1.966  12.895  0.2899  0.2779 -0.0703
   8623SM   C1311450   3.660   1.885  13.146  0.0390  0.2334  0.5023
   8623SM  H13A11451   3.720   1.899  13.234  2.8012 -2.1460 -0.8449
   8623SM  H13B11452   3.580   1.819  13.176 -1.0203  2.2350  2.3757
   8623SM  H13C11453   3.617   1.977  13.110  0.9637  0.2078 -0.7302
   8623SM   C1211454   3.895   1.899  13.068  0.3493  0.9856  0.2428
   8623SM  H12A11455   3.872   2.004  13.064 -0.9473  0.7513  1.0594
   8623SM  H12B11456   3.967   1.881  12.989  1.0998  0.7263  0.9667
   8623SM   C1111457   3.966   1.881  13.202  0.0950 -0.8039 -0.3439
   8623SM  H11A11458   4.068   1.927  13.199  0.4858 -1.6965 -1.3952
   8623SM  H11B11459   3.987   1.774  13.219 -0.9737 -1.1354 -1.0505
   8623SM     P11460   3.872   2.095  13.339 -0.0046  0.3442  0.2380
   8623SM   O1311461   3.915   2.172  13.219 -0.1643  0.5346  0.1755
   8623SM   O1411462   3.736   2.098  13.385  0.2238  0.2664 -0.7224
   8623SM   O1111463   3.962   2.124  13.457 -0.3124 -0.1643 -0.4988
   8623SM   O1211464   3.901   1.941  13.312 -0.1483 -0.0537 -0.3107
   8623SM   C1S11465   4.068   2.034  13.509 -0.1060 -0.3724  0.0700
   8623SM   H1S11466   4.166   2.087  13.503 -0.4496  0.2131 -0.3873
   8623SM   H1T11467   4.082   1.939  13.452 -2.0548  0.3783 -1.7969
   8623SM    NF11468   4.185   2.005  13.731  0.8044  0.3568 -0.3019
   8623SM   HNF11469   4.209   1.914  13.762  0.6031 -0.0652 -1.3517
   8623SM   C2S11470   4.055   2.017  13.669  0.0700  0.3272  0.0167
   8623SM   H2S11471   4.008   2.105  13.718 -0.0310  0.2134  0.1249
   8623SM   C3S11472   3.959   1.905  13.707  0.3986 -0.1270 -0.8425
   8623SM   H3S11473   4.018   1.816  13.676  1.5104  0.5780 -0.8130
   8623SM    O311474   3.829   1.914  13.648 -1.3719  0.3712 -0.8364
   8623SM   HO311475   3.846   1.962  13.567  3.2419  2.2124  0.8964
   8623SM   C4S11476   3.925   1.901  13.862 -0.4287  0.7725 -0.0857
   8623SM   H4S11477   3.854   1.978  13.896 -0.1736  0.8474  0.2768
   8623SM   C5S11478   3.956   1.786  13.939  1.0633  0.6750 -0.4046
   8623SM   H5S11479   3.990   1.696  13.887  0.1284  0.6452 -0.9952
   8623SM   C6S11480   3.906   1.768  14.085  0.1017  0.0820  0.1459
   8623SM   H6S11481   3.985   1.799  14.157 -0.3509 -0.1474  0.7555
   8623SM   H6T11482   3.890   1.661  14.110  1.2847 -0.4887 -1.3947
   8623SM   C7S11483   3.777   1.849  14.117  0.0758  0.2755  0.2187
   8623SM   H7S11484   3.720   1.798  14.198  2.5695 -0.9560  1.3194
   8623SM   H7T11485   3.709   1.840  14.030 -1.4051 -1.2989  1.4391
   8623SM   C8S11486   3.804   1.994  14.161  0.3801  0.5921 -0.0766
   8623SM   H8S11487   3.874   2.038  14.087  1.6824 -0.6043  0.4076
   8623SM   H8T11488   3.851   2.000  14.261  0.6668  1.4288 -0.2563
   8623SM   C9S11489   3.674   2.063  14.172  0.4217 -0.4725  0.2533
   8623SM   H9S11490   3.605   2.009  14.241  1.3823  0.0916  1.7056
   8623SM   H9T11491   3.639   2.072  14.067  1.3482  0.9628  0.0409
   8623SM  C10S11492   3.692   2.208  14.220 -0.1286  0.3502  0.2811
   8623SM  H10S11493   3.770   2.257  14.157 -1.1939 -0.1097 -1.4665
   8623SM  H10T11494   3.728   2.220  14.325  3.5805  0.3272 -0.8298
   8623SM  C11S11495   3.569   2.298  14.198  0.5093  0.3040 -0.1909
   8623SM  H11S11496   3.538   2.285  14.092  0.0135 -0.3646  0.0288
   8623SM  H11T11497   3.613   2.399  14.209  0.3066  0.2542  1.2872
   8623SM  C12S11498   3.448   2.284  14.288  0.1881 -0.3002  0.1089
   8623SM  H12S11499   3.484   2.257  14.390  1.8269  1.8781  0.2133
   8623SM  H12T11500   3.388   2.200  14.249  0.4299 -1.1271  1.4474
   8623SM  C13S11501   3.362   2.411  14.284  0.5763  0.1997 -0.3159
   8623SM  H13S11502   3.344   2.433  14.177  0.7584 -2.3943 -0.9573
   8623SM  H13T11503   3.429   2.492  14.319  2.8496 -0.7620 -2.1605
   8623SM  C14S11504   3.236   2.402  14.369  0.0557  0.1668 -0.9220
   8623SM  H14S11505   3.274   2.377  14.470 -2.4471  0.4007  0.1414
   8623SM  H14T11506   3.153   2.332  14.344 -0.7990  0.5535  0.7100
   8623SM  C15S11507   3.166   2.538  14.381  0.6926  0.2338 -0.3587
   8623SM  H15S11508   3.125   2.579  14.286  0.3300  1.5274  0.3436
   8623SM  H15T11509   3.250   2.609  14.400 -0.5045  1.8395 -0.8256
   8623SM  C16S11510   3.059   2.531  14.496 -0.2861 -0.5475 -0.7702
   8623SM  H16S11511   3.047   2.639  14.524  1.9564 -0.3589 -0.3568
   8623SM  H16T11512   3.088   2.469  14.584  2.5610 -1.6995 -2.4100
   8623SM  C17S11513   2.915   2.483  14.461 -0.0402  0.3630 -0.2904
   8623SM  H17S11514   2.924   2.372  14.456 -0.5752  0.2641  0.6401
   8623SM  H17T11515   2.892   2.517  14.358 -1.2999 -1.0356 -0.5057
   8623SM  C18S11516   2.811   2.537  14.558  0.1458  0.9134  0.0508
   8623SM  H18S11517   2.710   2.512  14.518 -0.4704  0.7375  1.6577
   8623SM  H18T11518   2.819   2.644  14.588 -0.5191  0.7050  0.9959
   8623SM  H18U11519   2.813   2.472  14.648 -0.1102  1.8572  0.7592
   8623SM   C1F11520   4.268   2.100  13.745 -0.5816  0.5824 -0.0644
   8623SM    OF11521   4.249   2.207  13.690 -0.1941  0.1406  0.3730
   8623SM   C2F11522   4.383   2.084  13.845  0.3205 -0.3895  0.4063
   8623SM   H2F11523   4.440   2.179  13.842  2.2853 -1.5433 -1.0156
   8623SM   H2G11524   4.453   2.011  13.799  0.9878 -0.1510  1.0241
   8623SM   C3F11525   4.341   2.031  13.987 -0.1130  0.0390 -0.3095
   8623SM   H3F11526   4.431   2.008  14.048 -1.8366 -0.7977  2.0439
   8623SM   H3G11527   4.315   1.923  13.985  1.5976 -0.3876 -1.4423
   8623SM   C4F11528   4.243   2.116  14.067  0.1142  0.4084  0.4343
   8623SM   H4F11529   4.146   2.138  14.017 -0.5150  0.7737  1.7820
   8623SM   H4G11530   4.294   2.213  14.080  0.7711 -0.1584  2.4070
   8623SM   C5F11531   4.217   2.061  14.204 -0.1937 -0.2017 -0.1982
   8623SM   H5F11532   4.311   2.018  14.245  0.3646  1.9857  0.9653
   8623SM   H5G11533   4.146   1.977  14.198 -1.0461  0.5877 -2.0378
   8623SM   C6F11534   4.186   2.165  14.308  0.4586  0.6052  0.8773
   8623SM   H6F11535   4.086   2.209  14.288 -0.3645 -0.9772  1.3024
   8623SM   H6G11536   4.267   2.240  14.318  0.8335  0.0732  2.0581
   8623SM   C7F11537   4.165   2.095  14.442  0.5558 -0.2279  0.0537
   8623SM   H7F11538   4.269   2.074  14.477  0.2295 -1.0570  0.5488
   8623SM   H7G11539   4.111   1.998  14.442 -2.7480  1.4697  0.6230
   8623SM   C8F11540   4.091   2.185  14.542  0.4684 -0.3282 -0.2048
   8623SM   H8F11541   3.984   2.198  14.516  0.0252 -0.5404  1.4273
   8623SM   H8G11542   4.128   2.290  14.544 -0.5640  0.0698  2.7535
   8623SM   C9F11543   4.111   2.138  14.686  0.2491  0.4141 -0.1634
   8623SM   H9F11544   4.067   2.215  14.752  0.0625  0.5700 -0.4656
   8623SM   H9G11545   4.221   2.129  14.698  0.0887 -0.8980  0.5633
   8623SM  C10F11546   4.042   1.994  14.713  0.0663  0.7190 -0.2837
   8623SM  H10F11547   4.113   1.925  14.663  1.1060 -1.3991  3.7437
   8623SM  H10G11548   3.947   2.003  14.656 -0.4093 -1.5715  0.0548
   8623SM  C11F11549   4.025   1.940  14.852 -0.0228  0.0879  0.5704
   8623SM  H11F11550   3.949   1.860  14.852 -2.0442  1.9025  2.0322
   8623SM  H11G11551   3.992   2.024  14.917 -0.6758  0.5302 -0.3005
   8623SM  C12F11552   4.152   1.889  14.910  0.2097 -0.1137 -0.3663
   8623SM  H12F11553   4.231   1.966  14.913 -0.3279  0.3967  1.3846
   8623SM  H12G11554   4.186   1.806  14.844 -2.0485 -0.9496 -0.5723
   8623SM  C13F11555   4.141   1.843  15.059  0.0274  0.8275  0.3198
   8623SM  H13F11556   4.088   1.746  15.068  1.1614  0.1415 -0.2169
   8623SM  H13G11557   4.082   1.905  15.130 -0.0498  1.0005  0.1035
   8623SM  C14F11558   4.286   1.809  15.107  0.8617 -0.0689  0.1282
   8623SM  H14F11559   4.342   1.905  15.108  1.0848 -0.2002  0.3218
   8623SM  H14G11560   4.328   1.741  15.030 -0.5505  1.9655 -2.6091
   8623SM  C15F11561   4.289   1.749  15.244 -0.3771 -0.9360  0.7763
   8623SM  H15F11562   4.241   1.823  15.311  1.2022  1.6742 -0.8050
   8623SM  H15G11563   4.397   1.757  15.268  0.0356 -1.3381 -0.7812
   8623SM  C16F11564   4.235   1.605  15.253  0.5292 -0.0219 -0.3504
   8623SM  H16F11565   4.261   1.558  15.155  1.8091  1.0176 -0.5372
   8623SM  H16G11566   4.124   1.606  15.250  0.4897 -1.8056 -1.3553
   8623SM  C17F11567   4.290   1.522  15.377 -1.0154 -0.0126  0.1997
   8623SM  H17F11568   4.259   1.574  15.470  1.2575 -3.0863  2.9296
   8623SM  H17G11569   4.401   1.529  15.366 -1.2558  3.9999 -1.8530
   8623SM  C18F11570   4.235   1.380  15.390 -0.3430 -0.5079 -0.4135
   8623SM  H18F11571   4.127   1.391  15.366 -0.0661  3.5145 -0.5260
   8623SM  H18G11572   4.254   1.343  15.493  1.4140  0.1902 -0.4544
   8623SM  C19F11573   4.297   1.285  15.288 -0.0957  0.1388  0.5933
   8623SM  H19F11574   4.403   1.277  15.320  0.1011  0.4030  0.0277
   8623SM  H19G11575   4.285   1.325  15.185  4.1487  0.2934  0.0071
   8623SM  C20F11576   4.227   1.147  15.272 -0.4860 -0.2899  0.3141
   8623SM  H20F11577   4.233   1.098  15.371 -1.5490  1.8082  1.4898
   8623SM  H20G11578   4.282   1.089  15.194 -0.3894 -1.2749  1.0978
   8623SM  C21F11579   4.082   1.164  15.229 -0.3141 -0.2854 -0.3562
   8623SM  H21F11580   4.083   1.241  15.149  0.9911  1.8423  1.5939
   8623SM  H21G11581   4.034   1.222  15.312 -0.9433 -0.1156 -0.8303
   8623SM  C22F11582   4.007   1.038  15.201  0.7766  0.3567  0.4085
   8623SM  H22F11583   4.018   0.964  15.283 -2.7314 -1.5563 -0.6531
   8623SM  H22G11584   4.055   0.984  15.116  0.0762 -0.4070  0.4849
   8623SM  C23F11585   3.856   1.056  15.171  0.3851 -0.7340 -0.0465
   8623SM  H23F11586   3.849   1.096  15.068 -1.7232 -0.4799  0.1556
   8623SM  H23G11587   3.805   1.131  15.235 -1.0725  1.1629 -3.2255
   8623SM  H23H11588   3.798   0.962  15.179 -3.7584  1.6978  1.3570
   8723SM     N11589   4.697   3.201  12.901 -0.4280  0.3133 -0.0430
   8723SM   C1511590   4.584   3.112  12.942  0.4738  0.4305 -0.1792
   8723SM  H15A11591   4.574   3.035  12.868 -0.2478  1.0652 -0.7585
   8723SM  H15B11592   4.493   3.170  12.937  0.1298 -0.2445 -2.5623
   8723SM  H15C11593   4.600   3.076  13.043 -2.5876 -1.4683 -0.2377
   8723SM   C1411594   4.649   3.260  12.768 -0.3006 -0.3482  0.2372
   8723SM  H14A11595   4.571   3.331  12.788  1.1950  1.9436 -1.5658
   8723SM  H14B11596   4.614   3.189  12.694 -0.8737  1.6866 -1.5232
   8723SM  H14C11597   4.731   3.317  12.727  0.1896  0.0768  1.7766
   8723SM   C1311598   4.704   3.316  12.998 -0.3776 -0.5977 -0.1142
   8723SM  H13A11599   4.730   3.276  13.095 -2.7210 -1.8340  0.0817
   8723SM  H13B11600   4.611   3.370  13.011  0.0275 -0.0368  0.5516
   8723SM  H13C11601   4.772   3.390  12.958 -2.1453 -0.1020 -2.4014
   8723SM   C1211602   4.827   3.122  12.900  0.4347  0.7536 -0.2598
   8723SM  H12A11603   4.867   3.107  13.000 -0.7395  0.7331  0.2292
   8723SM  H12B11604   4.904   3.181  12.854 -0.2854  1.4105 -0.6427
   8723SM   C1111605   4.825   2.991  12.823 -0.1893  0.0934  0.3737
   8723SM  H11A11606   4.931   2.965  12.802 -0.0308 -0.0861  1.3611
   8723SM  H11B11607   4.780   3.014  12.724 -0.4414 -1.3857  0.1193
   8723SM     P11608   4.850   2.806  13.006  0.2625  0.1787  0.1505
   8723SM   O1311609   4.762   2.734  13.093 -0.1950 -0.4074  0.0236
   8723SM   O1411610   4.946   2.726  12.923 -0.1958 -0.3352 -0.6035
   8723SM   O1111611   4.930   2.906  13.092  0.2113 -0.2084  0.0179
   8723SM   O1211612   4.759   2.888  12.906  0.3850 -0.8654 -0.4580
   8723SM   C1S11613   4.885   2.966  13.210 -0.1000  0.6159 -0.5605
   8723SM   H1S11614   4.784   2.935  13.244  0.6886 -1.6308 -0.0785
   8723SM   H1T11615   4.906   3.075  13.205  2.6003  0.1160 -2.2059
   8723SM    NF11616   4.947   2.974  13.454  0.2362  0.1040 -0.3141
   8723SM   HNF11617   4.985   3.065  13.463  0.4223  0.2843 -2.5392
   8723SM   C2S11618   4.979   2.915  13.322 -0.2744 -0.2179 -0.1595
   8723SM   H2S11619   4.978   2.804  13.330 -0.5840 -0.0980  1.9895
   8723SM   C3S11620   5.132   2.961  13.284  0.4568 -0.8272 -0.4284
   8723SM   H3S11621   5.149   3.070  13.279 -2.7767 -0.2763 -1.1118
   8723SM    O311622   5.174   2.911  13.156  0.7455 -0.4019  0.5550
   8723SM   HO311623   5.098   2.890  13.102  1.4127  1.4409 -1.2008
   8723SM   C4S11624   5.225   2.910  13.390 -0.1617 -0.6514  0.8329
   8723SM   H4S11625   5.259   2.987  13.461 -0.2120 -0.5136  0.7074
   8723SM   C5S11626   5.267   2.786  13.407 -0.4891  0.5420  0.0277
   8723SM   H5S11627   5.242   2.701  13.341  1.5127  0.2645 -0.4436
   8723SM   C6S11628   5.374   2.752  13.507 -0.4242  0.1290  0.8541
   8723SM   H6S11629   5.464   2.732  13.445  0.0654  1.9573  0.9013
   8723SM   H6T11630   5.345   2.657  13.557 -0.8584 -0.1294  0.1355
   8723SM   C7S11631   5.414   2.841  13.629 -0.2247  0.4272 -0.5090
   8723SM   H7S11632   5.325   2.868  13.689  0.0483  2.0290 -0.7680
   8723SM   H7T11633   5.457   2.934  13.585 -1.7415  1.1884 -0.4336
   8723SM   C8S11634   5.526   2.760  13.708 -0.1716 -0.4599  0.1801
   8723SM   H8S11635   5.614   2.739  13.643  0.4478  0.4450  0.7067
   8723SM   H8T11636   5.489   2.663  13.748 -0.4628 -0.0483  0.9195
   8723SM   C9S11637   5.579   2.846  13.825  0.2030 -0.6755  0.0259
   8723SM   H9S11638   5.495   2.884  13.887  1.4336 -0.0671  1.3967
   8723SM   H9T11639   5.617   2.933  13.768 -0.5666 -0.0382  0.4590
   8723SM  C10S11640   5.700   2.773  13.893  0.0381 -0.5076  0.1641
   8723SM  H10S11641   5.751   2.843  13.963 -0.4243  0.1033 -0.0959
   8723SM  H10T11642   5.763   2.735  13.810 -1.8340 -0.7473 -1.2208
   8723SM  C11S11643   5.647   2.660  13.993 -0.3186 -0.4722 -0.6923
   8723SM  H11S11644   5.618   2.562  13.950  1.2575 -1.5927  0.6644
   8723SM  H11T11645   5.551   2.701  14.030 -0.0929 -0.9113  0.4138
   8723SM  C12S11646   5.741   2.647  14.107 -0.2123  0.0857  0.0492
   8723SM  H12S11647   5.785   2.744  14.138  0.0748 -0.4644  1.4321
   8723SM  H12T11648   5.830   2.586  14.080  0.7068  1.3404  0.1221
   8723SM  C13S11649   5.680   2.589  14.237  0.0418 -0.4067 -0.0948
   8723SM  H13S11650   5.756   2.559  14.312 -3.0592  0.0606  3.5528
   8723SM  H13T11651   5.613   2.504  14.211  1.5728 -1.2725 -1.3715
   8723SM  C14S11652   5.609   2.696  14.318  0.5116  0.3915  0.1600
   8723SM  H14S11653   5.540   2.744  14.246 -1.1017 -1.3527  0.4638
   8723SM  H14T11654   5.666   2.778  14.366 -0.4679 -0.3661  2.8047
   8723SM  C15S11655   5.514   2.630  14.423 -0.1484  0.7848  1.2404
   8723SM  H15S11656   5.570   2.584  14.506 -0.2090 -1.1519  0.2641
   8723SM  H15T11657   5.448   2.553  14.378  2.2031 -0.6023 -0.0282
   8723SM  C16S11658   5.422   2.742  14.473 -0.4274  0.2262  0.0061
   8723SM  H16S11659   5.359   2.778  14.390 -1.1622  2.0112  1.2830
   8723SM  H16T11660   5.484   2.829  14.503 -0.9260  0.1842  1.2145
   8723SM  C17S11661   5.334   2.694  14.590 -0.1276  0.0468 -0.6676
   8723SM  H17S11662   5.396   2.654  14.673  0.7681 -1.5877 -2.0653
   8723SM  H17T11663   5.260   2.614  14.565 -2.0595  1.2538  0.8505
   8723SM  C18S11664   5.255   2.820  14.634 -0.1405  0.8526  0.1317
   8723SM  H18S11665   5.168   2.841  14.568 -0.2518 -0.0724 -0.0322
   8723SM  H18T11666   5.314   2.914  14.630  1.4522 -0.1174 -0.1626
   8723SM  H18U11667   5.227   2.817  14.742 -0.6729  2.2756  0.0642
   8723SM   C1F11668   4.826   2.951  13.515  0.2588 -0.0313 -0.5765
   8723SM    OF11669   4.759   2.864  13.472 -0.2016  0.2054  0.6135
   8723SM   C2F11670   4.780   3.030  13.635 -0.6679  0.4564 -0.1997
   8723SM   H2F11671   4.700   3.102  13.608 -1.1318  1.0399  2.4004
   8723SM   H2G11672   4.866   3.091  13.668 -0.4229  0.4686 -0.8459
   8723SM   C3F11673   4.728   2.932  13.746 -0.8635  0.1431 -0.2413
   8723SM   H3F11674   4.799   2.848  13.762 -0.3494  0.2318 -1.8626
   8723SM   H3G11675   4.637   2.882  13.706 -0.2336 -0.5618 -0.8268
   8723SM   C4F11676   4.688   3.013  13.876  0.1168  0.3353 -0.5445
   8723SM   H4F11677   4.679   2.932  13.951 -1.5362 -3.2802 -4.2896
   8723SM   H4G11678   4.586   3.056  13.861 -1.2101 -2.5038 -0.3926
   8723SM   C5F11679   4.799   3.115  13.923  0.3411  0.0752  0.3752
   8723SM   H5F11680   4.770   3.203  13.861 -1.8402  1.1672  2.7289
   8723SM   H5G11681   4.902   3.076  13.909  1.3588  2.5712  0.3808
   8723SM   C6F11682   4.794   3.161  14.066  0.4521  0.1004 -0.5180
   8723SM   H6F11683   4.687   3.186  14.084  0.5446  1.0194 -1.2129
   8723SM   H6G11684   4.856   3.253  14.071 -0.3586  0.6627 -0.6183
   8723SM   C7F11685   4.835   3.056  14.167 -0.1686 -0.1374 -0.2241
   8723SM   H7F11686   4.928   2.997  14.151 -0.0545 -0.4489  1.4346
   8723SM   H7G11687   4.745   2.990  14.163  0.2918 -0.7990  0.2024
   8723SM   C8F11688   4.844   3.116  14.306  0.1200  0.5731  0.2076
   8723SM   H8F11689   4.742   3.129  14.348 -0.3179 -0.7894 -0.3575
   8723SM   H8G11690   4.906   3.208  14.308  0.2131  0.5312 -0.5688
   8723SM   C9F11691   4.922   3.022  14.402 -0.2838  0.7508 -0.3629
   8723SM   H9F11692   4.946   3.072  14.498  0.3369  0.3548 -0.3103
   8723SM   H9G11693   5.018   2.996  14.354 -0.1618 -0.4963  0.5281
   8723SM  C10F11694   4.841   2.894  14.425  0.5131  0.2663  0.1613
   8723SM  H10F11695   4.815   2.836  14.333  1.0192 -0.5369  0.5131
   8723SM  H10G11696   4.743   2.926  14.465 -0.0618 -0.6936 -0.4247
   8723SM  C11F11697   4.913   2.790  14.512  0.1280 -0.1394 -0.0838
   8723SM  H11F11698   4.951   2.847  14.600  0.2411  1.1799 -0.9526
   8723SM  H11G11699   5.001   2.745  14.464  1.2521 -0.3567  2.0426
   8723SM  C12F11700   4.837   2.675  14.569 -0.2894  0.0932 -0.1634
   8723SM  H12F11701   4.917   2.609  14.607 -0.5699 -1.4685 -2.1144
   8723SM  H12G11702   4.786   2.615  14.490  0.0298 -1.0914  0.5025
   8723SM  C13F11703   4.740   2.710  14.679 -0.0666  0.2020  0.1145
   8723SM  H13F11704   4.666   2.782  14.638 -0.7410 -0.8572 -0.5995
   8723SM  H13G11705   4.805   2.750  14.760 -0.7152  0.5131  0.4949
   8723SM  C14F11706   4.655   2.594  14.732 -0.2878  0.3682  0.5458
   8723SM  H14F11707   4.581   2.566  14.654 -1.7940  0.2987  1.9233
   8723SM  H14G11708   4.595   2.625  14.821  0.1906 -0.3338  1.1196
   8723SM  C15F11709   4.743   2.484  14.783  0.0346 -0.6465 -0.2404
   8723SM  H15F11710   4.813   2.508  14.866 -0.3683 -2.5571  0.7097
   8723SM  H15G11711   4.803   2.447  14.698 -0.5032 -1.8359 -0.1129
   8723SM  C16F11712   4.662   2.357  14.817 -0.2551 -0.0732  0.7292
   8723SM  H16F11713   4.698   2.269  14.760 -0.2662  1.1149 -1.1882
   8723SM  H16G11714   4.558   2.370  14.780  0.7530 -0.6568 -2.6310
   8723SM  C17F11715   4.640   2.316  14.962 -0.6005 -0.2245 -0.7852
   8723SM  H17F11716   4.630   2.412  15.017 -0.2727  0.0648 -1.2273
   8723SM  H17G11717   4.728   2.251  14.985  0.6727  1.3899 -0.9062
   8723SM  C18F11718   4.516   2.231  15.010  0.2949 -0.7940 -0.0250
   8723SM  H18F11719   4.526   2.213  15.120 -0.3395  2.0065  0.5741
   8723SM  H18G11720   4.498   2.137  14.954  1.0582 -0.2113 -1.2844
   8723SM  C19F11721   4.381   2.310  14.991  0.0047 -0.6830 -0.6270
   8723SM  H19F11722   4.356   2.320  14.883 -1.5369  1.7224 -0.1093
   8723SM  H19G11723   4.388   2.415  15.027 -2.4243 -0.9494  0.8683
   8723SM  C20F11724   4.265   2.244  15.079 -0.3294  0.2087 -0.5360
   8723SM  H20F11725   4.299   2.223  15.183 -1.2687 -0.8821 -0.4326
   8723SM  H20G11726   4.227   2.145  15.047  0.5199 -0.2443 -0.1910
   8723SM  C21F11727   4.144   2.340  15.099 -0.8329  0.3122  0.5295
   8723SM  H21F11728   4.117   2.379  14.999 -2.9226 -0.8952  0.5736
   8723SM  H21G11729   4.170   2.426  15.165  0.4757 -1.7375  2.8726
   8723SM  C22F11730   4.022   2.269  15.162 -0.0772 -0.5515  0.8287
   8723SM  H22F11731   3.974   2.210  15.082 -0.3330 -1.0455  1.3450
   8723SM  H22G11732   3.954   2.353  15.187  0.2325 -0.1687  0.4159
   8723SM  C23F11733   4.047   2.181  15.282  0.6245  0.4914 -0.3801
   8723SM  H23F11734   3.956   2.134  15.325  2.0611 -1.2458  0.9096
   8723SM  H23G11735   4.090   2.247  15.360  0.4410  0.4362 -0.2311
   8723SM  H23H11736   4.114   2.094  15.266 -0.8849 -0.7829 -0.0599
   8823SM     N11737   2.090   2.555  13.294  0.2274 -0.2618 -0.5879
   8823SM   C1511738   2.164   2.690  13.267 -0.0038  0.0097 -0.1692
   8823SM  H15A11739   2.096   2.759  13.220  1.1452  1.3306  0.0245
   8823SM  H15B11740   2.255   2.671  13.212  1.5850  0.0132  2.3010
   8823SM  H15C11741   2.178   2.751  13.355 -0.5344  1.5621 -1.1138
   8823SM   C1411742   2.059   2.487  13.167 -0.5370  0.1812  0.1914
   8823SM  H14A11743   2.006   2.543  13.091 -1.2118 -0.1954  0.3745
   8823SM  H14B11744   2.000   2.400  13.189  1.4810 -1.6787 -1.3835
   8823SM  H14C11745   2.151   2.463  13.116  0.4413  0.1927  1.8754
   8823SM   C1311746   2.189   2.469  13.364 -0.2843 -0.1140  0.3408
   8823SM  H13A11747   2.285   2.480  13.315  0.6826  2.4543  2.5454
   8823SM  H13B11748   2.145   2.370  13.369  1.3338 -0.9893 -1.3378
   8823SM  H13C11749   2.202   2.496  13.468 -0.2965 -0.3133  0.3954
   8823SM   C1211750   1.967   2.578  13.383  0.9283 -0.1753  0.0364
   8823SM  H12A11751   1.894   2.624  13.318  0.4333 -0.9884  0.0002
   8823SM  H12B11752   1.981   2.643  13.468  0.7987  1.2450 -0.9890
   8823SM   C1111753   1.907   2.443  13.435 -0.5402  0.5769 -0.9093
   8823SM  H11A11754   1.813   2.462  13.490 -2.0465 -2.4849 -2.2024
   8823SM  H11B11755   1.968   2.387  13.509 -0.6880  1.4106 -0.1343
   8823SM     P11756   1.726   2.357  13.267 -0.2747 -0.1427  0.1318
   8823SM   O1311757   1.711   2.497  13.209 -0.0539  0.5353 -0.2131
   8823SM   O1411758   1.716   2.247  13.167 -0.1058  0.0569  0.6428
   8823SM   O1111759   1.632   2.328  13.386 -0.5096  0.4440  0.3074
   8823SM   O1211760   1.871   2.348  13.329 -0.2149 -0.1776 -0.1131
   8823SM   C1S11761   1.622   2.193  13.438 -0.0073  0.0374  0.2484
   8823SM   H1S11762   1.722   2.146  13.428  0.3657  0.6696  0.9493
   8823SM   H1T11763   1.551   2.128  13.382 -0.0706 -0.6303  1.0769
   8823SM    NF11764   1.648   2.092  13.666  0.8917 -0.0836 -0.6149
   8823SM   HNF11765   1.577   2.023  13.681  0.6442  0.5067  1.3058
   8823SM   C2S11766   1.600   2.204  13.593 -0.4995 -0.6895  0.5591
   8823SM   H2S11767   1.665   2.287  13.628 -0.7234  0.1002 -0.8048
   8823SM   C3S11768   1.457   2.247  13.621 -0.2642 -0.1678 -0.0986
   8823SM   H3S11769   1.388   2.167  13.587 -2.2712  1.1410  0.7460
   8823SM    O311770   1.421   2.366  13.546 -0.5022 -0.2487  0.1457
   8823SM   HO311771   1.494   2.382  13.485  0.6629  1.3275  1.8419
   8823SM   C4S11772   1.432   2.272  13.766 -0.2745  0.3709  0.0052
   8823SM   H4S11773   1.374   2.192  13.814 -1.7514  1.5007  0.1589
   8823SM   C5S11774   1.454   2.391  13.825 -0.7701  0.3804 -0.0319
   8823SM   H5S11775   1.485   2.469  13.753  2.9376  0.2408  1.1919
   8823SM   C6S11776   1.432   2.435  13.967  0.8273  0.2618 -0.2273
   8823SM   H6S11777   1.342   2.499  13.964 -0.3184 -1.2441  0.4457
   8823SM   H6T11778   1.518   2.488  14.013  1.7584 -2.7175  1.7285
   8823SM   C7S11779   1.392   2.317  14.058  0.0790 -0.0399 -0.3034
   8823SM   H7S11780   1.482   2.255  14.074 -0.0596  0.2332  1.6934
   8823SM   H7T11781   1.310   2.251  14.022 -1.4426  0.6380  1.7264
   8823SM   C8S11782   1.340   2.358  14.193 -0.3814 -0.5299  0.1832
   8823SM   H8S11783   1.407   2.430  14.246 -0.6710  0.0810 -0.2660
   8823SM   H8T11784   1.345   2.273  14.265 -2.0376 -1.9089 -1.2603
   8823SM   C9S11785   1.191   2.406  14.185 -0.4279  0.4535 -0.3470
   8823SM   H9S11786   1.132   2.319  14.148  0.2085  0.4627 -1.4449
   8823SM   H9T11787   1.176   2.484  14.107  0.7353 -1.0211 -2.1443
   8823SM  C10S11788   1.135   2.469  14.316 -0.5548  0.6421  0.7982
   8823SM  H10S11789   1.211   2.534  14.364 -0.1270  1.0768 -0.4341
   8823SM  H10T11790   1.109   2.391  14.391  0.8915 -1.1654 -0.4803
   8823SM  C11S11791   1.008   2.550  14.291 -0.2323 -0.6200 -0.4433
   8823SM  H11S11792   0.930   2.480  14.256 -1.9338  0.7600  0.4251
   8823SM  H11T11793   1.030   2.626  14.212  0.2148 -0.6296 -0.3310
   8823SM  C12S11794   0.960   2.634  14.412  0.3682  0.7287 -0.4942
   8823SM  H12S11795   1.031   2.716  14.436  0.6941  0.2148  0.3290
   8823SM  H12T11796   0.960   2.560  14.495  0.3353  1.7743  0.4637
   8823SM  C13S11797   0.823   2.686  14.372  0.7197  0.8077 -0.0636
   8823SM  H13S11798   0.766   2.730  14.457 -0.1606 -1.0331  0.3403
   8823SM  H13T11799   0.762   2.601  14.335  0.5496  1.1724 -0.6510
   8823SM  C14S11800   0.820   2.797  14.265  0.4688 -0.2356  0.0849
   8823SM  H14S11801   0.856   2.744  14.174  1.6782 -1.1904  1.0724
   8823SM  H14T11802   0.892   2.880  14.281 -0.8195  0.6631  1.3926
   8823SM  C15S11803   0.682   2.864  14.259 -0.3710 -0.0367  0.6961
   8823SM  H15S11804   0.684   2.937  14.343  0.1687  1.5364 -0.6249
   8823SM  H15T11805   0.602   2.787  14.259 -1.0527  0.6184 -0.5302
   8823SM  C16S11806   0.669   2.953  14.131 -0.0816  0.5789 -0.4631
   8823SM  H16S11807   0.751   3.026  14.141  0.7336 -0.2687 -0.7776
   8823SM  H16T11808   0.575   3.012  14.135 -0.4331  0.0076  0.0079
   8823SM  C17S11809   0.670   2.873  14.000 -0.3360 -0.3421 -0.1931
   8823SM  H17S11810   0.598   2.790  14.011 -2.9577  1.8400  0.3425
   8823SM  H17T11811   0.767   2.822  13.981  0.4260  0.8537  0.3256
   8823SM  C18S11812   0.630   2.959  13.879 -0.7911  0.0450  0.2721
   8823SM  H18S11813   0.533   3.012  13.876 -1.0715 -0.4687  0.1544
   8823SM  H18T11814   0.626   2.891  13.791  0.3717  0.2973 -0.0020
   8823SM  H18U11815   0.715   3.027  13.856 -1.4836  1.4428  1.6382
   8823SM   C1F11816   1.775   2.072  13.690 -0.2513 -0.0423 -0.8298
   8823SM    OF11817   1.853   2.161  13.679  0.1777 -0.2300  0.3457
   8823SM   C2F11818   1.822   1.938  13.715 -0.9748 -0.2647  0.4210
   8823SM   H2F11819   1.846   1.895  13.615 -0.2177  0.3991  0.3165
   8823SM   H2G11820   1.737   1.877  13.754 -2.1479  1.7497  1.1506
   8823SM   C3F11821   1.949   1.927  13.799 -0.4316  0.2089  0.4033
   8823SM   H3F11822   2.036   1.984  13.760  0.6341 -0.0193  2.3033
   8823SM   H3G11823   1.979   1.820  13.804  0.7617  0.4150 -1.4200
   8823SM   C4F11824   1.947   1.967  13.947  1.1075 -0.3347 -0.1561
   8823SM   H4F11825   1.887   1.890  14.000 -2.4358  1.0106 -1.8748
   8823SM   H4G11826   1.889   2.060  13.967  1.6690  0.0435 -0.2582
   8823SM   C5F11827   2.084   1.978  14.011  0.2749 -0.3738 -0.3934
   8823SM   H5F11828   2.127   2.077  13.984  0.5077  0.2840  2.1033
   8823SM   H5G11829   2.142   1.891  13.973 -1.3584 -0.6893 -2.2961
   8823SM   C6F11830   2.082   1.969  14.165 -0.6314  0.1835  0.2638
   8823SM   H6F11831   2.007   2.038  14.208 -0.9667  0.2984 -0.4871
   8823SM   H6G11832   2.179   2.003  14.207 -0.9426 -1.2969  2.3181
   8823SM   C7F11833   2.058   1.824  14.217  0.9111  0.2374  0.0506
   8823SM   H7F11834   2.126   1.753  14.166  0.4221 -1.1859  1.3076
   8823SM   H7G11835   1.957   1.793  14.184  1.8952 -1.8494 -1.1530
   8823SM   C8F11836   2.073   1.824  14.371  0.3008  0.3088  0.8822
   8823SM   H8F11837   2.029   1.912  14.423  1.1191  0.7102  0.9206
   8823SM   H8G11838   2.181   1.844  14.384  0.5059  1.6936 -2.0555
   8823SM   C9F11839   2.006   1.700  14.439 -0.7211 -0.7564 -0.0379
   8823SM   H9F11840   2.054   1.607  14.403  0.7714  0.8952 -2.6053
   8823SM   H9G11841   1.900   1.702  14.406  0.0978  0.8511 -2.9086
   8823SM  C10F11842   2.002   1.713  14.596  0.3362 -0.1023 -0.4340
   8823SM  H10F11843   1.950   1.809  14.615 -0.2826 -0.5718  0.3420
   8823SM  H10G11844   2.105   1.708  14.637  0.4752  1.5439 -0.5061
   8823SM  C11F11845   1.925   1.593  14.648  0.1585  0.4291 -0.4050
   8823SM  H11F11846   1.967   1.500  14.605 -0.4583 -0.9362  1.7330
   8823SM  H11G11847   1.821   1.613  14.615 -0.0723 -1.2650 -0.8151
   8823SM  C12F11848   1.928   1.575  14.800  0.3896  0.0016 -0.5219
   8823SM  H12F11849   1.872   1.662  14.841 -0.5322 -0.8032 -0.0375
   8823SM  H12G11850   2.034   1.584  14.832 -0.4247 -0.4464  2.6206
   8823SM  C13F11851   1.883   1.437  14.841 -0.1321  1.3169 -0.3677
   8823SM  H13F11852   1.919   1.418  14.944 -0.4787  0.9670 -0.3096
   8823SM  H13G11853   1.927   1.363  14.771 -0.9375 -0.0783  0.5609
   8823SM  C14F11854   1.726   1.421  14.843 -0.2226  0.1334 -0.7517
   8823SM  H14F11855   1.686   1.395  14.742  0.4277 -0.3459 -0.8895
   8823SM  H14G11856   1.680   1.517  14.875 -0.0924  0.3287 -1.1426
   8823SM  C15F11857   1.677   1.302  14.930 -0.5456 -0.4209 -0.5466
   8823SM  H15F11858   1.570   1.288  14.904 -0.9833 -1.3844  1.5513
   8823SM  H15G11859   1.687   1.336  15.035 -2.4581  0.3261 -0.5586
   8823SM  C16F11860   1.753   1.169  14.904 -0.4596 -0.1609  0.0349
   8823SM  H16F11861   1.851   1.181  14.954 -2.9456  2.5645  5.0247
   8823SM  H16G11862   1.761   1.139  14.797  1.0068  0.2623  0.0036
   8823SM  C17F11863   1.691   1.065  14.992  0.9723 -0.5401  0.1339
   8823SM  H17F11864   1.589   1.049  14.950  0.5220  1.6844  0.2315
   8823SM  H17G11865   1.675   1.108  15.094 -3.6206 -0.1132 -0.5320
   8823SM  C18F11866   1.787   0.939  15.000  0.3595 -0.0987 -0.9116
   8823SM  H18F11867   1.885   0.975  15.037 -1.4989  2.5176  1.9304
   8823SM  H18G11868   1.807   0.899  14.899  0.9249 -1.4405 -0.2855
   8823SM  C19F11869   1.736   0.824  15.096 -0.5315  0.6220 -0.1821
   8823SM  H19F11870   1.643   0.773  15.063  1.2081 -1.5378 -2.1278
   8823SM  H19G11871   1.728   0.879  15.192  0.2963 -1.8189  1.3705
   8823SM  C20F11872   1.853   0.717  15.121  0.5746 -0.1390  0.5467
   8823SM  H20F11873   1.800   0.638  15.178 -0.5224  1.2905  1.5852
   8823SM  H20G11874   1.929   0.771  15.182 -0.5101  1.7940  0.2763
   8823SM  C21F11875   1.915   0.655  14.991 -0.0858  0.2303  0.4292
   8823SM  H21F11876   2.001   0.588  15.015  1.1299  1.4170 -0.4658
   8823SM  H21G11877   1.967   0.734  14.933  3.0092 -3.6834 -2.6869
   8823SM  C22F11878   1.815   0.580  14.902  0.5100  0.0629 -0.4908
   8823SM  H22F11879   1.868   0.540  14.813  2.7611  0.9558  0.3790
   8823SM  H22G11880   1.741   0.654  14.865  0.0042  0.4589  1.2043
   8823SM  C23F11881   1.741   0.474  14.975  0.7698  0.2759  0.5082
   8823SM  H23F11882   1.808   0.413  15.039 -0.6361  0.4635  2.2159
   8823SM  H23G11883   1.682   0.409  14.906  0.7487  1.7216 -0.9021
   8823SM  H23H11884   1.664   0.522  15.039  0.6070 -0.4049  0.8302
   8923SM     N11885   7.104   3.850  13.097  0.0895 -0.4562 -0.2852
   8923SM   C1511886   7.220   3.776  13.049  0.1150  0.1500 -0.4684
   8923SM  H15A11887   7.227   3.770  12.942 -1.2389  0.5066 -0.5871
   8923SM  H15B11888   7.219   3.675  13.087 -0.8022 -0.4813 -2.0876
   8923SM  H15C11889   7.313   3.823  13.079  0.0282  0.7606 -1.1287
   8923SM   C1411890   7.121   3.867  13.243 -0.2680 -0.5481  0.6752
   8923SM  H14A11891   7.112   3.773  13.295 -0.7686  0.8061  3.1844
   8923SM  H14B11892   7.042   3.919  13.294  0.4882  0.0150  1.2982
   8923SM  H14C11893   7.217   3.914  13.263  1.1040 -1.5792 -2.7455
   8923SM   C1311894   7.109   3.987  13.029 -0.3384  0.3909  0.6803
   8923SM  H13A11895   7.210   4.024  13.030  0.2910 -0.9805 -2.0873
   8923SM  H13B11896   7.041   4.058  13.075  0.2917  1.7336 -0.4107
   8923SM  H13C11897   7.087   3.976  12.924 -2.2904 -1.1040  1.1772
   8923SM   C1211898   6.977   3.779  13.067  0.2453 -0.0563  0.5357
   8923SM  H12A11899   6.959   3.764  12.962  1.3477  0.5963  0.2327
   8923SM  H12B11900   6.893   3.836  13.106  0.4995 -1.1241  2.8068
   8923SM   C1111901   6.937   3.649  13.144 -0.3792  0.1268 -0.2657
   8923SM  H11A11902   6.831   3.630  13.118 -1.1748 -0.1563  2.7971
   8923SM  H11B11903   6.933   3.673  13.252 -0.7974 -0.1150 -0.2232
   8923SM     P11904   7.004   3.462  12.994  0.6794 -0.4075  0.1900
   8923SM   O1311905   6.932   3.525  12.886 -0.0302  0.2822  0.2322
   8923SM   O1411906   7.129   3.387  12.955  0.3023  0.7501 -0.4267
   8923SM   O1111907   6.898   3.360  13.052 -0.3700 -0.0417 -0.6398
   8923SM   O1211908   7.033   3.549  13.113 -0.0423  0.2715  0.2295
   8923SM   C1S11909   6.945   3.271  13.159 -0.1516  0.2138 -0.0576
   8923SM   H1S11910   7.049   3.267  13.196 -0.2247 -0.5707  0.0980
   8923SM   H1T11911   6.945   3.169  13.115  0.8234  1.3274 -2.8331
   8923SM    NF11912   6.907   3.213  13.403 -0.1185  0.3717  0.6190
   8923SM   HNF11913   6.854   3.135  13.435  0.9496  0.0255  1.6425
   8923SM   C2S11914   6.859   3.282  13.281  0.3560  0.5138 -0.5869
   8923SM   H2S11915   6.853   3.389  13.311  0.3426  0.2683  0.3383
   8923SM   C3S11916   6.713   3.241  13.253  0.0426  0.2301  0.2620
   8923SM   H3S11917   6.715   3.130  13.251 -1.5556  0.1840  0.0099
   8923SM    O311918   6.650   3.287  13.127 -0.5007 -0.7327 -0.1654
   8923SM   HO311919   6.726   3.329  13.087 -1.7135  2.5472  0.6549
   8923SM   C4S11920   6.615   3.254  13.365 -0.0498 -0.6851 -0.2413
   8923SM   H4S11921   6.592   3.167  13.428 -2.0454 -1.6272 -2.1426
   8923SM   C5S11922   6.531   3.360  13.381 -0.8356 -0.6947  0.3836
   8923SM   H5S11923   6.523   3.431  13.298  0.1611 -1.3084 -0.2526
   8923SM   C6S11924   6.419   3.362  13.474 -0.1527 -0.5699  0.4096
   8923SM   H6S11925   6.331   3.357  13.405  0.4110 -0.4709 -0.3230
   8923SM   H6T11926   6.418   3.463  13.520  3.2846 -0.7296  1.0939
   8923SM   C7S11927   6.392   3.276  13.602  0.3165  0.5831 -0.3906
   8923SM   H7S11928   6.390   3.167  13.579 -2.1898  0.2632  1.0881
   8923SM   H7T11929   6.289   3.299  13.636  0.6173  0.9279  0.3027
   8923SM   C8S11930   6.494   3.308  13.712  0.3073  0.1017 -0.2285
   8923SM   H8S11931   6.487   3.418  13.730  1.2158 -0.0201  0.9386
   8923SM   H8T11932   6.592   3.283  13.666 -0.1615  1.2808 -2.0119
   8923SM   C9S11933   6.468   3.236  13.836  0.4945  0.4684 -0.4145
   8923SM   H9S11934   6.486   3.128  13.819  0.8661  0.3555  0.6392
   8923SM   H9T11935   6.367   3.260  13.876 -0.1622 -1.4476 -0.7976
   8923SM  C10S11936   6.563   3.280  13.949 -0.4381  0.1459 -0.4166
   8923SM  H10S11937   6.558   3.391  13.951  1.9804  0.3046 -0.9246
   8923SM  H10T11938   6.665   3.244  13.926 -0.6732 -2.1246  1.6501
   8923SM  C11S11939   6.531   3.227  14.093 -0.5556 -0.3641  0.6073
   8923SM  H11S11940   6.535   3.116  14.093  0.0104 -0.3582 -0.4894
   8923SM  H11T11941   6.424   3.243  14.116 -0.1236  3.8061  0.4159
   8923SM  C12S11942   6.633   3.286  14.196 -0.2902  0.3757 -0.4129
   8923SM  H12S11943   6.741   3.284  14.173  0.6067  1.2122  3.0616
   8923SM  H12T11944   6.616   3.223  14.286 -2.6608  1.1168 -0.2719
   8923SM  C13S11945   6.597   3.433  14.225  0.4667  0.2100  0.2162
   8923SM  H13S11946   6.491   3.451  14.195 -0.0273  0.2628  1.9000
   8923SM  H13T11947   6.664   3.495  14.162  3.8326 -2.3400  1.0143
   8923SM  C14S11948   6.609   3.474  14.370  0.0471 -0.2740 -0.0448
   8923SM  H14S11949   6.539   3.409  14.427 -1.8127 -0.4102 -2.3610
   8923SM  H14T11950   6.577   3.580  14.380  1.4937 -0.0528  3.7488
   8923SM  C15S11951   6.752   3.460  14.419  0.2546  0.3611 -0.4281
   8923SM  H15S11952   6.814   3.535  14.366 -1.4313  2.8947  0.9733
   8923SM  H15T11953   6.793   3.359  14.400  0.3642  0.1253  0.9147
   8923SM  C16S11954   6.764   3.489  14.576  1.5864 -0.7293  0.5897
   8923SM  H16S11955   6.848   3.429  14.618  0.7340 -0.5225  2.7213
   8923SM  H16T11956   6.664   3.456  14.611  1.0111  1.1760  0.8926
   8923SM  C17S11957   6.783   3.635  14.600  0.5718 -0.2555 -0.7367
   8923SM  H17S11958   6.696   3.689  14.556  0.1524 -0.1950  0.1550
   8923SM  H17T11959   6.875   3.680  14.557  0.4499  1.2811  0.4988
   8923SM  C18S11960   6.787   3.652  14.749  0.0171 -0.0630  0.3153
   8923SM  H18S11961   6.790   3.756  14.786  1.1677 -0.3066  0.9310
   8923SM  H18T11962   6.881   3.607  14.785  1.3250  1.8585 -0.5342
   8923SM  H18U11963   6.706   3.593  14.798 -0.7885 -0.4565 -1.3843
   8923SM   C1F11964   7.019   3.249  13.469 -0.6882 -0.9661  0.4194
   8923SM    OF11965   7.087   3.346  13.425  0.5282  0.4873  0.1607
   8923SM   C2F11966   7.050   3.169  13.586 -0.3227 -0.0512  0.0545
   8923SM   H2F11967   7.018   3.065  13.564 -0.7885  0.5467 -2.3420
   8923SM   H2G11968   6.986   3.214  13.665 -2.2798  0.8994 -1.9655
   8923SM   C3F11969   7.206   3.178  13.614  0.1915  0.0743  0.3373
   8923SM   H3F11970   7.249   3.275  13.646 -0.0523 -0.0821  1.1771
   8923SM   H3G11971   7.256   3.146  13.520 -0.3470  0.6918 -0.1705
   8923SM   C4F11972   7.262   3.079  13.724 -0.4089  0.6669 -0.3701
   8923SM   H4F11973   7.249   2.982  13.671 -3.2840 -0.0298  1.3810
   8923SM   H4G11974   7.201   3.083  13.817  1.5681 -1.1604  1.0920
   8923SM   C5F11975   7.407   3.101  13.775 -0.2406 -0.7171  0.3163
   8923SM   H5F11976   7.420   3.202  13.818 -0.9955  0.1585 -1.4546
   8923SM   H5G11977   7.477   3.088  13.690  0.1887  0.5831  0.4555
   8923SM   C6F11978   7.432   3.006  13.887 -0.1090 -0.1652  0.7119
   8923SM   H6F11979   7.384   2.907  13.875 -1.0796  0.2077  1.3814
   8923SM   H6G11980   7.391   3.053  13.979 -1.3908  0.0750  0.0461
   8923SM   C7F11981   7.583   2.976  13.903 -0.9001 -0.2293 -0.1072
   8923SM   H7F11982   7.641   3.071  13.904 -0.3503 -0.5436 -0.8961
   8923SM   H7G11983   7.631   2.916  13.824 -2.9151 -0.7599 -0.9979
   8923SM   C8F11984   7.610   2.917  14.038  0.2242  1.0896 -0.5726
   8923SM   H8F11985   7.582   2.809  14.038  0.6952  0.9640 -0.9020
   8923SM   H8G11986   7.555   2.968  14.119  0.2179 -0.1153  0.2038
   8923SM   C9F11987   7.761   2.917  14.067 -0.0381  0.1170  0.5881
   8923SM   H9F11988   7.802   3.013  14.031 -0.5458  0.6485  1.3925
   8923SM   H9G11989   7.815   2.831  14.020 -0.8859  0.5303 -1.2207
   8923SM  C10F11990   7.796   2.905  14.220  0.2791 -0.0855 -0.7303
   8923SM  H10F11991   7.768   2.804  14.257 -1.0736  0.6495  0.3314
   8923SM  H10G11992   7.731   2.975  14.276 -1.5246 -2.1064 -0.1364
   8923SM  C11F11993   7.946   2.921  14.240  0.4733 -0.3715 -0.2277
   8923SM  H11F11994   7.979   3.025  14.219 -2.7234  1.1415  1.4601
   8923SM  H11G11995   7.998   2.858  14.165  1.3446 -0.3902  0.3792
   8923SM  C12F11996   7.995   2.902  14.380  0.0760  0.7285  0.2944
   8923SM  H12F11997   7.941   2.817  14.428 -0.4997  0.3670 -0.9501
   8923SM  H12G11998   7.964   2.991  14.439 -0.9779  0.9655 -0.5848
   8923SM  C13F11999   8.149   2.895  14.404 -1.0198 -0.0449  0.4833
   8923SM  H13F12000   8.193   2.993  14.375  0.9940 -1.7226 -2.8159
   8923SM  H13G12001   8.183   2.808  14.344 -0.3592 -0.3904  1.3386
   8923SM  C14F12002   8.187   2.864  14.555 -0.6832 -0.1986 -0.5254
   8923SM  H14F12003   8.298   2.855  14.551 -0.7588 -0.5675 -2.5102
   8923SM  H14G12004   8.142   2.768  14.588  0.6841 -0.4956  0.5754
   8923SM  C15F12005   8.136   2.960  14.667 -0.3229  0.0529  0.2105
   8923SM  H15F12006   8.026   2.957  14.653 -0.2037 -0.8836 -0.6720
   8923SM  H15G12007   8.174   3.064  14.657  0.0894 -0.1720 -0.6000
   8923SM  C16F12008   8.156   2.900  14.809 -0.0934  0.1772 -0.3146
   8923SM  H16F12009   8.267   2.904  14.821  0.2958 -2.6622 -1.9593
   8923SM  H16G12010   8.130   2.792  14.801  1.7223 -0.3609  0.3377
   8923SM  C17F12011   8.071   2.969  14.921  0.1794  0.0291 -0.5930
   8923SM  H17F12012   8.082   3.079  14.913  1.9681  0.0451  1.3475
   8923SM  H17G12013   8.104   2.934  15.021  0.2901 -1.4821 -1.1239
   8923SM  C18F12014   7.914   2.942  14.924  0.2968 -0.0782 -0.8038
   8923SM  H18F12015   7.889   2.835  14.907 -0.1003 -0.2971  0.9753
   8923SM  H18G12016   7.852   2.998  14.850 -0.0763  1.8926  0.9325
   8923SM  C19F12017   7.853   2.963  15.069 -0.5186 -0.4660 -0.2308
   8923SM  H19F12018   7.884   3.068  15.088 -1.6088 -0.5019  2.1096
   8923SM  H19G12019   7.910   2.907  15.146 -0.1164  1.1137  0.6528
   8923SM  C20F12020   7.699   2.945  15.088 -0.3257  0.4131  0.0277
   8923SM  H20F12021   7.641   3.024  15.035 -1.8866  0.8303  2.2305
   8923SM  H20G12022   7.690   2.987  15.190 -0.7140  2.8810 -0.9437
   8923SM  C21F12023   7.652   2.799  15.076  0.4389  0.3812 -0.7967
   8923SM  H21F12024   7.719   2.742  15.144 -1.3289  0.1206  0.8341
   8923SM  H21G12025   7.675   2.768  14.972 -0.1650 -0.5890 -0.6528
   8923SM  C22F12026   7.505   2.793  15.117  0.1769 -0.0937 -0.3841
   8923SM  H22F12027   7.463   2.697  15.079  4.9216 -2.7160  0.1062
   8923SM  H22G12028   7.451   2.868  15.057 -0.6811  0.0587  0.5667
   8923SM  C23F12029   7.477   2.807  15.267 -0.0831  0.4650  0.3516
   8923SM  H23F12030   7.527   2.901  15.299  0.5372  0.0995  0.4791
   8923SM  H23G12031   7.533   2.728  15.323 -1.1781 -0.7853 -0.2803
   8923SM  H23H12032   7.370   2.815  15.295  0.6404 -0.4289  4.0081
   9023SM     N12033   5.365   2.738  12.910 -0.6198  0.1547  0.4085
   9023SM   C1512034   5.414   2.852  12.989  0.1393  0.3504 -1.2259
   9023SM  H15A12035   5.394   2.941  12.931 -3.4732  0.3618 -0.2115
   9023SM  H15B12036   5.520   2.844  13.011 -0.3222 -1.3016  0.6588
   9023SM  H15C12037   5.355   2.871  13.078 -0.0164  0.5714 -1.3764
   9023SM   C1412038   5.235   2.775  12.848 -0.4032 -0.6226 -0.1148
   9023SM  H14A12039   5.160   2.800  12.922 -1.4195  1.0740 -1.6417
   9023SM  H14B12040   5.203   2.696  12.782  0.8764  0.0039 -1.5429
   9023SM  H14C12041   5.245   2.858  12.781  0.2867  0.6115  1.4486
   9023SM   C1312042   5.470   2.725  12.801 -0.2174  0.0940 -0.0983
   9023SM  H13A12043   5.450   2.645  12.731  1.3228 -0.0070 -0.4677
   9023SM  H13B12044   5.566   2.703  12.846 -0.4891  1.7496  1.4263
   9023SM  H13C12045   5.481   2.823  12.757  0.1615  0.0373 -0.1363
   9023SM   C1212046   5.362   2.614  12.991 -0.3672 -0.2085  0.2606
   9023SM  H12A12047   5.330   2.528  12.933  1.5827 -2.6461  2.5902
   9023SM  H12B12048   5.283   2.631  13.062 -0.8970 -1.1521 -0.0808
   9023SM   C1112049   5.492   2.576  13.067  0.1146  0.0874 -0.1675
   9023SM  H11A12050   5.463   2.488  13.129  1.2203 -0.3591 -0.2568
   9023SM  H11B12051   5.507   2.655  13.143 -0.7161 -2.3095  2.7271
   9023SM     P12052   5.621   2.407  12.918  0.1429  0.2414 -0.5241
   9023SM   O1312053   5.478   2.364  12.899  0.0566  0.3214 -0.4565
   9023SM   O1412054   5.706   2.415  12.791  0.0451 -0.3996  0.3113
   9023SM   O1112055   5.691   2.322  13.035 -0.2423 -0.7480  0.2154
   9023SM   O1212056   5.609   2.550  12.985  0.0993  0.6249  0.0216
   9023SM   C1S12057   5.787   2.371  13.127 -0.4530 -0.3808  0.2326
   9023SM   H1S12058   5.828   2.470  13.098 -0.4931 -0.5760 -0.5082
   9023SM   H1T12059   5.873   2.301  13.126 -0.6245 -0.6128  0.9199
   9023SM    NF12060   5.832   2.456  13.355  0.1885 -0.3876  0.0335
   9023SM   HNF12061   5.911   2.412  13.396 -1.1673 -1.1568  1.9589
   9023SM   C2S12062   5.742   2.374  13.276 -0.5804 -0.5315  0.9691
   9023SM   H2S12063   5.642   2.421  13.286  0.0513  1.1276 -0.0837
   9023SM   C3S12064   5.725   2.224  13.329  0.3114 -0.2414  0.1013
   9023SM   H3S12065   5.826   2.178  13.338  1.4188  1.6910 -1.6129
   9023SM    O312066   5.649   2.133  13.243 -0.3914 -0.9368  0.0158
   9023SM   HO312067   5.631   2.183  13.163  1.7562 -1.8127 -1.1003
   9023SM   C4S12068   5.661   2.225  13.469  0.7404 -0.6814 -0.0974
   9023SM   H4S12069   5.726   2.172  13.541  1.1532  1.0093  0.8417
   9023SM   C5S12070   5.533   2.267  13.492 -0.3005  0.2425 -0.0105
   9023SM   H5S12071   5.474   2.306  13.407 -0.9438 -0.6648  0.0037
   9023SM   C6S12072   5.465   2.261  13.623  0.2524  1.4185 -0.1270
   9023SM   H6S12073   5.373   2.199  13.614  0.8022  0.5718  0.0083
   9023SM   H6T12074   5.437   2.363  13.655 -1.3666  0.8704  0.2859
   9023SM   C7S12075   5.536   2.198  13.743 -0.3922  0.4833  0.4309
   9023SM   H7S12076   5.643   2.225  13.754 -1.0010  2.7096  1.5117
   9023SM   H7T12077   5.537   2.087  13.729 -0.5337  0.6510 -1.1461
   9023SM   C8S12078   5.463   2.215  13.878  0.3848 -0.3593 -0.1151
   9023SM   H8S12079   5.517   2.165  13.961 -3.1072 -0.9392  1.9928
   9023SM   H8T12080   5.367   2.161  13.867 -0.3570  0.5155  1.6628
   9023SM   C9S12081   5.429   2.364  13.898  0.1669 -0.7857 -0.3829
   9023SM   H9S12082   5.343   2.389  13.832  1.0105 -1.2154 -1.6810
   9023SM   H9T12083   5.518   2.417  13.858  0.4925 -0.0897  1.1762
   9023SM  C10S12084   5.400   2.398  14.043 -0.7377  0.2047 -0.5136
   9023SM  H10S12085   5.401   2.509  14.053  0.1584  0.4683 -2.8754
   9023SM  H10T12086   5.493   2.356  14.088 -1.6731 -0.2010  1.1214
   9023SM  C11S12087   5.275   2.333  14.101  0.2315 -0.1816 -0.5831
   9023SM  H11S12088   5.273   2.223  14.090 -1.2744 -0.1216 -1.0957
   9023SM  H11T12089   5.190   2.356  14.034 -2.4796  2.3095  3.2739
   9023SM  C12S12090   5.246   2.378  14.250 -0.5768 -0.1758  0.5745
   9023SM  H12S12091   5.226   2.487  14.245  1.4106  0.2004 -0.7432
   9023SM  H12T12092   5.338   2.365  14.311  0.4311 -0.0701 -0.8721
   9023SM  C13S12093   5.123   2.315  14.315 -0.0890  0.3250  0.2265
   9023SM  H13S12094   5.142   2.206  14.317 -1.4973  0.0667  0.4935
   9023SM  H13T12095   5.033   2.342  14.255 -1.6284 -3.2914  0.6783
   9023SM  C14S12096   5.094   2.369  14.452 -0.3251  0.0945 -0.3117
   9023SM  H14S12097   4.993   2.332  14.482 -1.0381  1.1440 -1.3370
   9023SM  H14T12098   5.094   2.480  14.447 -0.3311  0.1907  1.1877
   9023SM  C15S12099   5.183   2.317  14.572  0.1274  0.1587 -0.0325
   9023SM  H15S12100   5.283   2.360  14.551  1.0405 -1.6674  0.3809
   9023SM  H15T12101   5.192   2.206  14.573 -0.3935  0.1174  0.6437
   9023SM  C16S12102   5.136   2.366  14.710 -0.3210  0.3768 -0.1784
   9023SM  H16S12103   5.035   2.326  14.735  0.7837 -1.3850  1.7616
   9023SM  H16T12104   5.129   2.476  14.723  1.6957  0.2411  2.9689
   9023SM  C17S12105   5.233   2.334  14.820  0.6697 -0.3533  0.0425
   9023SM  H17S12106   5.326   2.391  14.797  0.5390  0.2758  1.0140
   9023SM  H17T12107   5.256   2.226  14.817  2.4735  0.0249 -0.8510
   9023SM  C18S12108   5.182   2.384  14.958 -0.1611  0.2024 -0.3919
   9023SM  H18S12109   5.261   2.376  15.036 -1.8149  0.8004  1.4296
   9023SM  H18T12110   5.088   2.337  14.994 -0.6106  1.2344 -0.1713
   9023SM  H18U12111   5.150   2.491  14.957  2.1719  1.0378  2.2426
   9023SM   C1F12112   5.823   2.591  13.359  1.0943 -0.0645 -0.4854
   9023SM    OF12113   5.731   2.647  13.302  0.6162  0.2213  0.1287
   9023SM   C2F12114   5.923   2.669  13.437 -0.1388 -0.3985  0.5139
   9023SM   H2F12115   5.962   2.617  13.527 -1.3925  0.2991  1.4851
   9023SM   H2G12116   5.874   2.766  13.460 -0.3265 -0.3034 -0.2487
   9023SM   C3F12117   6.044   2.705  13.344  0.0749  0.6374  0.1755
   9023SM   H3F12118   5.994   2.750  13.255 -1.2560 -0.6119  0.2459
   9023SM   H3G12119   6.100   2.613  13.319  0.3364  0.4724  1.3205
   9023SM   C4F12120   6.145   2.808  13.398  0.8230 -0.0709  0.3248
   9023SM   H4F12121   6.093   2.903  13.422  0.0153 -0.1601 -0.9580
   9023SM   H4G12122   6.226   2.823  13.323 -1.4422  3.1826 -1.7722
   9023SM   C5F12123   6.222   2.755  13.515  0.5617 -0.4681  0.2597
   9023SM   H5F12124   6.254   2.653  13.486 -1.0497 -1.0591  0.4721
   9023SM   H5G12125   6.155   2.725  13.598 -0.1607  3.0782  1.1452
   9023SM   C6F12126   6.340   2.848  13.545  0.1787  0.3592 -0.4397
   9023SM   H6F12127   6.308   2.928  13.615 -1.1044  0.9122 -1.6130
   9023SM   H6G12128   6.395   2.884  13.456  0.7464 -1.7451 -0.9911
   9023SM   C7F12129   6.448   2.765  13.623 -0.4429 -0.1646 -0.1729
   9023SM   H7F12130   6.481   2.681  13.557  1.3691 -0.2612  0.7689
   9023SM   H7G12131   6.402   2.730  13.718  0.4078 -1.9837 -0.3725
   9023SM   C8F12132   6.573   2.857  13.658  0.8017  0.3628 -0.1171
   9023SM   H8F12133   6.525   2.954  13.684  0.7729  0.3046  0.0469
   9023SM   H8G12134   6.628   2.875  13.563  1.9420  1.0267  0.6427
   9023SM   C9F12135   6.667   2.790  13.755 -0.3733 -0.3190  0.3824
   9023SM   H9F12136   6.723   2.700  13.722 -0.8655 -0.7157  0.6245
   9023SM   H9G12137   6.616   2.764  13.850 -0.6052  0.8375  0.5949
   9023SM  C10F12138   6.771   2.901  13.806 -0.1180  0.2915  0.4787
   9023SM  H10F12139   6.719   2.995  13.831 -1.3991  0.7346 -3.1401
   9023SM  H10G12140   6.836   2.922  13.718 -0.8506 -1.4354 -0.5384
   9023SM  C11F12141   6.857   2.855  13.919  0.7549  0.2492  0.0611
   9023SM  H11F12142   6.885   2.750  13.899 -0.6693 -0.1244 -0.0659
   9023SM  H11G12143   6.801   2.870  14.014  0.7858  0.7953  0.0008
   9023SM  C12F12144   6.994   2.932  13.922 -0.1622  0.1793 -0.2261
   9023SM  H12F12145   6.990   3.042  13.938  2.4370  0.3200 -0.0219
   9023SM  H12G12146   7.051   2.914  13.828  0.4453  0.5265  0.0680
   9023SM  C13F12147   7.088   2.881  14.026 -0.8149  0.1101 -0.3513
   9023SM  H13F12148   7.187   2.929  14.023 -1.5269  1.7804  1.2093
   9023SM  H13G12149   7.116   2.773  14.019  2.8025  0.7313  1.9879
   9023SM  C14F12150   7.024   2.905  14.166  0.4088 -0.3527  0.0876
   9023SM  H14F12151   6.969   2.811  14.190  0.3938 -0.8667 -1.7875
   9023SM  H14G12152   6.951   2.989  14.160  0.7562  0.1826  2.4336
   9023SM  C15F12153   7.128   2.944  14.266 -0.1606  0.7410 -0.0419
   9023SM  H15F12154   7.079   2.953  14.366 -1.5753  3.9093 -0.8933
   9023SM  H15G12155   7.169   3.044  14.241 -0.4102  0.7442 -0.4462
   9023SM  C16F12156   7.247   2.852  14.267  0.8999  0.3162  0.2013
   9023SM  H16F12157   7.311   2.867  14.177 -0.4969 -1.7132 -1.2341
   9023SM  H16G12158   7.200   2.753  14.248  4.3771 -1.5848  0.5500
   9023SM  C17F12159   7.340   2.862  14.387  0.2747  0.0621  0.2210
   9023SM  H17F12160   7.278   2.845  14.477 -0.7504 -1.4958 -0.7312
   9023SM  H17G12161   7.379   2.964  14.406 -0.8146  0.2772  1.4566
   9023SM  C18F12162   7.459   2.763  14.384 -0.0664  0.1753 -0.2684
   9023SM  H18F12163   7.500   2.780  14.282  2.4409  0.8538  0.7694
   9023SM  H18G12164   7.426   2.657  14.387  0.3656  0.0530  0.2966
   9023SM  C19F12165   7.551   2.770  14.506  0.4094 -0.8541 -0.1179
   9023SM  H19F12166   7.482   2.767  14.593 -0.5910 -0.2105 -0.8601
   9023SM  H19G12167   7.593   2.873  14.514 -2.4097  0.3872 -0.2340
   9023SM  C20F12168   7.652   2.654  14.516  0.0006  0.3888 -0.0368
   9023SM  H20F12169   7.723   2.656  14.430 -1.6393 -0.2583 -1.4644
   9023SM  H20G12170   7.594   2.563  14.491 -1.1840  1.2114 -0.3328
   9023SM  C21F12171   7.715   2.634  14.649 -0.3908  0.6612 -0.2741
   9023SM  H21F12172   7.640   2.649  14.730  0.0057 -3.6863  1.1653
   9023SM  H21G12173   7.799   2.706  14.660 -0.6477  0.8851  0.2847
   9023SM  C22F12174   7.767   2.494  14.665 -0.0453  0.0747 -0.3345
   9023SM  H22F12175   7.848   2.478  14.590  0.8083  0.9897  0.3640
   9023SM  H22G12176   7.687   2.423  14.637  0.8821 -0.5500 -1.5001
   9023SM  C23F12177   7.831   2.439  14.795 -0.8311 -0.2875 -0.0266
   9023SM  H23F12178   7.903   2.513  14.835 -0.3041 -0.5502 -0.4717
   9023SM  H23G12179   7.879   2.346  14.760  1.0754  0.6569 -0.0142
   9023SM  H23H12180   7.760   2.424  14.879 -1.0735  0.2160 -0.1400
   9123SM     N12181   0.412   4.353  13.120 -0.3477  0.3826  0.1484
   9123SM   C1512182   0.285   4.413  13.070 -0.5463 -0.4533  0.5449
   9123SM  H15A12183   0.229   4.348  13.004 -1.7934  0.6239  0.4837
   9123SM  H15B12184   0.307   4.506  13.019  0.8249 -1.4647 -0.8050
   9123SM  H15C12185   0.212   4.426  13.149 -0.3920  1.8325  0.3976
   9123SM   C1412186   0.385   4.205  13.150 -0.8964 -0.0749 -0.6458
   9123SM  H14A12187   0.480   4.155  13.162 -0.1238  1.8639  2.3877
   9123SM  H14B12188   0.319   4.154  13.081 -0.0453  0.0015 -1.5518
   9123SM  H14C12189   0.340   4.192  13.247  3.3689 -0.9992  1.4386
   9123SM   C1312190   0.513   4.364  13.008  0.1607  0.2307  1.4003
   9123SM  H13A12191   0.606   4.318  13.035  0.8026  0.2975 -0.5300
   9123SM  H13B12192   0.524   4.471  12.997  0.9384 -0.0025 -0.4934
   9123SM  H13C12193   0.472   4.334  12.912  1.6877  2.1725  0.0632
   9123SM   C1212194   0.458   4.420  13.247  0.4725  0.4930  0.4246
   9123SM  H12A12195   0.477   4.524  13.225 -2.0725  1.1400  0.9980
   9123SM  H12B12196   0.553   4.375  13.273 -1.1337 -2.6021  1.4384
   9123SM   C1112197   0.364   4.419  13.376 -0.1631  0.3176 -0.1358
   9123SM  H11A12198   0.412   4.473  13.460 -2.6915  1.2030  0.8256
   9123SM  H11B12199   0.373   4.317  13.418 -0.4567  0.3684  0.0530
   9123SM     P12200   0.176   4.589  13.394  0.0545  0.3353  0.2871
   9123SM   O1312201   0.268   4.647  13.492  0.0113 -0.0794  0.3319
   9123SM   O1412202   0.159   4.671  13.271  0.1340 -0.5748  0.3087
   9123SM   O1112203   0.039   4.570  13.461  0.1181  0.7874 -0.0421
   9123SM   O1212204   0.222   4.445  13.347 -0.5869  0.4673 -0.1323
   9123SM   C1S12205   0.023   4.458  13.549  0.7769 -0.5372 -0.1727
   9123SM   H1S12206   0.110   4.438  13.616 -1.4940 -0.0471  3.1987
   9123SM   H1T12207  -0.001   4.375  13.480 -0.1894 -0.0932 -0.3931
   9123SM    NF12208  -0.083   4.377  13.749  0.6531 -0.4122 -0.0654
   9123SM   HNF12209  -0.141   4.299  13.728  0.9481 -0.3040 -1.3651
   9123SM   C2S12210  -0.093   4.479  13.647 -0.6026 -0.2298  0.1058
   9123SM   H2S12211  -0.085   4.583  13.685 -1.6282  0.4240 -1.3728
   9123SM   C3S12212  -0.228   4.479  13.574 -0.0345 -0.2556  0.2724
   9123SM   H3S12213  -0.257   4.376  13.544 -0.8759  0.0245  0.0639
   9123SM    O312214  -0.231   4.556  13.452  0.1957 -0.5139  0.1312
   9123SM   HO312215  -0.140   4.583  13.437 -0.3006  0.1350 -2.0722
   9123SM   C4S12216  -0.338   4.527  13.662  0.2661  0.0797 -0.1263
   9123SM   H4S12217  -0.368   4.439  13.722 -0.4119  1.2920  1.4015
   9123SM   C5S12218  -0.396   4.654  13.670 -0.0793 -0.5775 -0.0984
   9123SM   H5S12219  -0.365   4.730  13.597  1.4946 -0.0259  1.0861
   9123SM   C6S12220  -0.507   4.700  13.759  0.0621  0.2353 -0.2144
   9123SM   H6S12221  -0.596   4.738  13.704  1.5296  1.9488 -1.5041
   9123SM   H6T12222  -0.460   4.777  13.824  0.4065  0.1617 -0.3730
   9123SM   C7S12223  -0.577   4.600  13.845  0.4630  0.7158 -0.6118
   9123SM   H7S12224  -0.511   4.528  13.899  1.3554  0.4786 -1.9773
   9123SM   H7T12225  -0.632   4.533  13.776 -1.7295 -0.2299  1.8954
   9123SM   C8S12226  -0.665   4.668  13.953 -0.5568  0.1945  0.1377
   9123SM   H8S12227  -0.745   4.726  13.903 -1.1051 -0.7800 -0.1415
   9123SM   H8T12228  -0.604   4.739  14.014  0.2736 -2.3187  2.4195
   9123SM   C9S12229  -0.726   4.567  14.054 -0.1245  0.5237  0.2009
   9123SM   H9S12230  -0.644   4.504  14.096  1.0403  1.3652 -0.7624
   9123SM   H9T12231  -0.799   4.501  14.002  0.2055 -0.2574  0.7130
   9123SM  C10S12232  -0.790   4.646  14.165 -0.2914  0.2919  0.2817
   9123SM  H10S12233  -0.856   4.726  14.124  0.5217  0.6899 -0.2755
   9123SM  H10T12234  -0.715   4.705  14.221 -1.4677  1.2619  0.8981
   9123SM  C11S12235  -0.874   4.567  14.263  0.3372 -0.7946 -0.1553
   9123SM  H11S12236  -0.916   4.630  14.345 -0.4282  0.1036 -1.2075
   9123SM  H11T12237  -0.802   4.502  14.317  2.0670  0.4474 -0.8644
   9123SM  C12S12238  -0.977   4.474  14.210  0.3943 -0.2632  0.3729
   9123SM  H12S12239  -0.929   4.379  14.177  1.1426 -0.3180  1.5648
   9123SM  H12T12240  -1.021   4.516  14.117  1.4865 -0.6921 -0.3660
   9123SM  C13S12241  -1.079   4.443  14.316  0.3689 -0.2113  0.4550
   9123SM  H13S12242  -1.130   4.540  14.333 -0.0617  0.3309 -3.2039
   9123SM  H13T12243  -1.024   4.417  14.409 -0.8374 -0.1140  1.2136
   9123SM  C14S12244  -1.179   4.334  14.271 -0.0533 -0.1840 -0.3854
   9123SM  H14S12245  -1.106   4.256  14.241 -0.0998 -0.5674  0.4681
   9123SM  H14T12246  -1.237   4.362  14.180  0.8803  1.4319 -0.5224
   9123SM  C15S12247  -1.262   4.282  14.392 -0.4943  0.5141  0.2765
   9123SM  H15S12248  -1.334   4.357  14.433  0.8861  2.2956 -0.4215
   9123SM  H15T12249  -1.189   4.260  14.472 -0.2471 -1.4964 -0.4352
   9123SM  C16S12250  -1.330   4.149  14.352  0.5718 -0.1440 -0.2522
   9123SM  H16S12251  -1.261   4.091  14.286  0.1065  1.6204 -2.3882
   9123SM  H16T12252  -1.414   4.166  14.282  0.6184  1.4170  0.0313
   9123SM  C17S12253  -1.352   4.068  14.480  1.2605 -0.3795 -0.0380
   9123SM  H17S12254  -1.401   4.133  14.557 -0.5933  1.5104 -2.6452
   9123SM  H17T12255  -1.252   4.047  14.524  0.7547 -1.5972  0.5924
   9123SM  C18S12256  -1.440   3.949  14.458 -0.3600  0.3369  0.6787
   9123SM  H18S12257  -1.390   3.881  14.386  0.1539  0.6266  0.7581
   9123SM  H18T12258  -1.537   3.984  14.415 -0.1355 -0.4874 -0.5528
   9123SM  H18U12259  -1.467   3.893  14.550  1.0454 -2.1428 -0.3332
   9123SM   C1F12260   0.013   4.370  13.842 -0.4561  0.0012  0.5295
   9123SM    OF12261   0.088   4.465  13.857  0.0971 -0.7130 -0.6377
   9123SM   C2F12262   0.034   4.234  13.906 -0.5153  0.0676  0.6818
   9123SM   H2F12263   0.027   4.156  13.828 -2.4670 -0.7272  1.5829
   9123SM   H2G12264  -0.060   4.211  13.960 -2.7628  0.6560 -2.6824
   9123SM   C3F12265   0.160   4.211  13.997  0.2533 -0.5167  0.6822
   9123SM   H3F12266   0.154   4.270  14.091  1.1868  0.1449  0.3386
   9123SM   H3G12267   0.250   4.240  13.938  0.1131 -2.7155 -0.7427
   9123SM   C4F12268   0.169   4.066  14.040 -0.7349 -0.3420  0.4874
   9123SM   H4F12269   0.266   4.046  14.091 -0.3968 -0.8514 -0.3223
   9123SM   H4G12270   0.167   4.004  13.948 -0.9358 -0.0368  0.2848
   9123SM   C5F12271   0.052   4.024  14.132  0.1030 -0.3194  0.5373
   9123SM   H5F12272  -0.049   4.057  14.099  0.2718 -2.1863 -2.2197
   9123SM   H5G12273   0.082   4.076  14.225  2.4874  1.8241 -1.2777
   9123SM   C6F12274   0.039   3.873  14.159 -0.1535 -0.2159  0.7526
   9123SM   H6F12275   0.145   3.843  14.174  0.3204 -0.1215 -1.9030
   9123SM   H6G12276   0.004   3.835  14.061  2.5076 -0.2079 -0.2811
   9123SM   C7F12277  -0.056   3.856  14.278  0.5365  0.1065 -0.5319
   9123SM   H7F12278  -0.154   3.903  14.256 -0.1670  0.3077  2.6337
   9123SM   H7G12279  -0.017   3.911  14.366  1.2800  1.5920 -1.7397
   9123SM   C8F12280  -0.093   3.710  14.317 -0.1385  0.1906  0.0829
   9123SM   H8F12281  -0.001   3.659  14.352 -0.8560 -1.8562 -0.8626
   9123SM   H8G12282  -0.127   3.641  14.237  0.4015 -1.1542  0.9795
   9123SM   C9F12283  -0.209   3.708  14.417 -0.3414 -0.3173 -0.1170
   9123SM   H9F12284  -0.299   3.737  14.358  0.8472  1.1140 -1.2882
   9123SM   H9G12285  -0.195   3.788  14.493  0.3497  0.3039 -0.8760
   9123SM  C10F12286  -0.213   3.568  14.483  0.4636  0.5660 -0.2313
   9123SM  H10F12287  -0.133   3.575  14.560  0.7016  2.3053 -0.6012
   9123SM  H10G12288  -0.193   3.481  14.416  1.2858 -0.9171  1.8031
   9123SM  C11F12289  -0.349   3.536  14.543  0.0374  0.1316  0.4587
   9123SM  H11F12290  -0.431   3.545  14.468 -2.1728 -1.5392  2.5434
   9123SM  H11G12291  -0.374   3.601  14.629 -1.4763 -1.9809  1.7162
   9123SM  C12F12292  -0.346   3.390  14.598  0.1774 -0.5273 -0.1948
   9123SM  H12F12293  -0.305   3.320  14.522  0.0608  1.9499 -2.7182
   9123SM  H12G12294  -0.455   3.370  14.613  0.6921 -1.9934  1.8934
   9123SM  C13F12295  -0.267   3.377  14.732  1.0011 -0.7250  0.2130
   9123SM  H13F12296  -0.268   3.474  14.786  1.0437 -1.5328  1.7345
   9123SM  H13G12297  -0.163   3.353  14.699  0.7558  0.9236 -2.0141
   9123SM  C14F12298  -0.331   3.283  14.829 -0.6255  0.3900 -0.1586
   9123SM  H14F12299  -0.309   3.178  14.800  3.0766  1.4379 -1.6466
   9123SM  H14G12300  -0.443   3.282  14.827 -0.7789 -0.3161  2.8286
   9123SM  C15F12301  -0.292   3.308  14.980  0.0604 -0.1410  0.5972
   9123SM  H15F12302  -0.182   3.322  14.984  0.0413  0.9870 -1.5620
   9123SM  H15G12303  -0.329   3.223  15.042  0.4329 -0.7954 -0.0602
   9123SM  C16F12304  -0.363   3.434  15.050  0.3450 -0.6637  0.4234
   9123SM  H16F12305  -0.468   3.409  15.076 -0.5593  0.4947 -1.7893
   9123SM  H16G12306  -0.370   3.523  14.984 -0.7366 -1.6300 -0.8067
   9123SM  C17F12307  -0.287   3.480  15.171 -0.1614 -0.0203 -0.2547
   9123SM  H17F12308  -0.183   3.497  15.137  0.5893 -1.3914  1.2318
   9123SM  H17G12309  -0.281   3.403  15.251 -0.5726  1.0447  0.8236
   9123SM  C18F12310  -0.350   3.608  15.226 -0.0729 -0.0199  0.3082
   9123SM  H18F12311  -0.459   3.605  15.248  0.2398  1.5283  2.3950
   9123SM  H18G12312  -0.332   3.683  15.147  2.8013 -0.1765  0.7077
   9123SM  C19F12313  -0.277   3.662  15.350  0.2143  0.8284  0.3756
   9123SM  H19F12314  -0.324   3.757  15.383 -0.3738 -0.4559  3.6763
   9123SM  H19G12315  -0.169   3.688  15.341  0.6460 -0.4742  1.3719
   9123SM  C20F12316  -0.291   3.563  15.463 -0.0521  0.1778  0.5289
   9123SM  H20F12317  -0.243   3.464  15.448 -1.7248 -0.2741 -2.6921
   9123SM  H20G12318  -0.398   3.535  15.450 -0.1960  1.0113 -0.1721
   9123SM  C21F12319  -0.273   3.627  15.600  0.0492  0.1957  0.1252
   9123SM  H21F12320  -0.331   3.568  15.675  0.9234 -0.2150  0.5009
   9123SM  H21G12321  -0.307   3.733  15.602 -1.7792 -0.3414 -0.4974
   9123SM  C22F12322  -0.129   3.611  15.641  0.2283 -0.4210  0.2094
   9123SM  H22F12323  -0.067   3.668  15.569 -0.8871 -0.1983 -0.5892
   9123SM  H22G12324  -0.088   3.508  15.645  0.1145 -0.4859 -0.2230
   9123SM  C23F12325  -0.105   3.667  15.785  0.3818 -0.2777 -0.5147
   9123SM  H23F12326  -0.004   3.668  15.831 -0.7080  0.6509  2.0304
   9123SM  H23G12327  -0.164   3.610  15.860  3.1359 -1.2755  1.0671
   9123SM  H23H12328  -0.151   3.767  15.794 -2.6431 -1.5084 -1.2271
   9223SM     N12329   6.089   1.046  12.522  0.5278  0.5463  0.1178
   9223SM   C1512330   6.000   1.146  12.464  0.2485 -0.1727 -0.2136
   9223SM  H15A12331   5.900   1.107  12.447  0.4278  0.0986 -2.1633
   9223SM  H15B12332   6.032   1.198  12.374 -0.0118  1.6615  0.6981
   9223SM  H15C12333   5.994   1.231  12.530  1.6271  1.6330 -2.2817
   9223SM   C1412334   6.127   0.937  12.420  0.1634 -0.0121 -0.1102
   9223SM  H14A12335   6.219   0.888  12.447 -0.8551 -1.6870  0.4733
   9223SM  H14B12336   6.149   0.986  12.326 -1.9026 -0.4429 -0.8692
   9223SM  H14C12337   6.049   0.863  12.409  0.8230 -1.2976  2.8719
   9223SM   C1312338   6.218   1.110  12.561  0.5907 -0.3821  0.2030
   9223SM  H13A12339   6.254   1.044  12.638  0.0183 -1.4494 -0.4017
   9223SM  H13B12340   6.203   1.207  12.606 -0.7051 -0.3474 -0.2584
   9223SM  H13C12341   6.292   1.130  12.485  0.5236 -0.5707  0.0859
   9223SM   C1212342   6.008   0.985  12.642 -0.3427  0.0862  0.2094
   9223SM  H12A12343   5.929   0.931  12.591  0.6182 -0.8661 -0.2969
   9223SM  H12B12344   5.976   1.067  12.704 -0.3000  2.7500 -3.0096
   9223SM   C1112345   6.090   0.885  12.729 -0.2116 -0.1104 -0.5712
   9223SM  H11A12346   6.144   0.948  12.803 -1.9438  0.8789 -0.1109
   9223SM  H11B12347   6.168   0.836  12.666  0.9672  2.5135 -1.2960
   9223SM     P12348   6.054   0.688  12.883  0.0207 -0.2027 -0.2942
   9223SM   O1312349   5.945   0.613  12.936 -0.0552 -0.3188 -0.2193
   9223SM   O1412350   6.162   0.620  12.810 -0.3598  0.2574  0.1774
   9223SM   O1112351   6.113   0.781  13.001 -0.0748  0.3337 -0.0923
   9223SM   O1212352   5.992   0.805  12.789 -0.1079  0.1625  0.6001
   9223SM   C1S12353   6.027   0.850  13.100  0.1011 -0.5057  0.1938
   9223SM   H1S12354   5.919   0.831  13.082 -0.5320  3.2661 -1.0027
   9223SM   H1T12355   6.038   0.961  13.098  0.1703 -0.4067  2.4343
   9223SM    NF12356   5.978   0.874  13.342 -0.5857 -0.4840  0.4770
   9223SM   HNF12357   6.011   0.954  13.392 -0.4707  0.4785 -1.0900
   9223SM   C2S12358   6.066   0.817  13.242 -0.4216  0.4994  0.9721
   9223SM   H2S12359   6.056   0.707  13.255  1.1810  0.0851 -0.9004
   9223SM   C3S12360   6.219   0.851  13.264  0.0326  0.3056 -0.1396
   9223SM   H3S12361   6.236   0.958  13.238  0.7249  0.6653  1.6727
   9223SM    O312362   6.312   0.777  13.181 -0.0252 -0.0874 -0.0178
   9223SM   HO312363   6.273   0.766  13.094 -0.0990  1.0627 -0.1438
   9223SM   C4S12364   6.255   0.841  13.407  0.1270 -0.1317  0.4836
   9223SM   H4S12365   6.246   0.738  13.443 -0.9336  0.4491  1.9430
   9223SM   C5S12366   6.317   0.939  13.482 -0.4674  0.5261 -0.3343
   9223SM   H5S12367   6.350   1.035  13.438  0.7371  0.7088  0.8791
   9223SM   C6S12368   6.352   0.927  13.628 -0.1499 -0.0497  0.1616
   9223SM   H6S12369   6.307   1.012  13.684 -0.5701 -0.8920  1.1351
   9223SM   H6T12370   6.459   0.949  13.649 -1.1006  2.4951  3.2528
   9223SM   C7S12371   6.312   0.807  13.705  0.3220  0.5351  0.3224
   9223SM   H7S12372   6.363   0.715  13.671 -1.7549 -0.9078  0.8989
   9223SM   H7T12373   6.203   0.784  13.703  0.6751 -1.2403 -1.9313
   9223SM   C8S12374   6.348   0.824  13.850  0.3522  0.7880 -0.1442
   9223SM   H8S12375   6.298   0.917  13.885 -0.6970  0.7684 -1.4934
   9223SM   H8T12376   6.458   0.832  13.868  0.5049 -2.2318  0.8160
   9223SM   C9S12377   6.288   0.714  13.933  0.4522  0.1735  0.2044
   9223SM   H9S12378   6.332   0.614  13.909  0.2976 -0.1530  1.2140
   9223SM   H9T12379   6.177   0.714  13.929  0.4835 -0.1114 -1.5664
   9223SM  C10S12380   6.317   0.724  14.082  0.7222  0.8917 -0.0313
   9223SM  H10S12381   6.239   0.782  14.137  0.7702  0.7746  0.1582
   9223SM  H10T12382   6.405   0.790  14.098  0.8896  0.1948  2.2324
   9223SM  C11S12383   6.351   0.591  14.160  0.1530  0.2600  0.0513
   9223SM  H11S12384   6.437   0.552  14.102 -0.2308 -1.2743  0.4896
   9223SM  H11T12385   6.266   0.524  14.135 -0.0883  1.4708 -2.8605
   9223SM  C12S12386   6.381   0.607  14.317  0.3979  0.1120  0.6652
   9223SM  H12S12387   6.299   0.669  14.359 -2.6500 -1.7364 -2.0090
   9223SM  H12T12388   6.481   0.649  14.338 -0.2396  1.7560  0.5590
   9223SM  C13S12389   6.393   0.474  14.401 -0.2503  0.6114  0.8780
   9223SM  H13S12390   6.460   0.406  14.344  1.3153  1.0275  2.1541
   9223SM  H13T12391   6.293   0.425  14.404 -0.0040  0.1468  1.7318
   9223SM  C14S12392   6.445   0.490  14.538  0.0942  0.0703  0.0894
   9223SM  H14S12393   6.436   0.387  14.579  1.6532  0.0616  0.4952
   9223SM  H14T12394   6.396   0.569  14.599  1.7531  1.4073 -0.2319
   9223SM  C15S12395   6.600   0.513  14.553 -0.2294  0.4418 -0.3624
   9223SM  H15S12396   6.624   0.611  14.507  0.9782 -0.0470 -0.8196
   9223SM  H15T12397   6.661   0.440  14.495 -1.7050 -0.3718 -0.9225
   9223SM  C16S12398   6.655   0.507  14.703  0.7714  0.4233  0.8347
   9223SM  H16S12399   6.756   0.553  14.708  0.7154  0.5236  1.0658
   9223SM  H16T12400   6.671   0.402  14.736 -0.1841  0.1283  0.3972
   9223SM  C17S12401   6.559   0.572  14.803  0.2199 -0.3434 -0.7885
   9223SM  H17S12402   6.461   0.522  14.814  0.0535  0.2337  0.5418
   9223SM  H17T12403   6.545   0.677  14.769 -1.0510 -1.0703 -2.7143
   9223SM  C18S12404   6.624   0.578  14.941 -0.4166 -0.0432 -0.0098
   9223SM  H18S12405   6.705   0.654  14.928 -2.3053  2.2190  0.6494
   9223SM  H18T12406   6.657   0.476  14.968 -1.6597 -0.6381 -0.6804
   9223SM  H18U12407   6.558   0.625  15.017  1.1786 -2.3678  3.0460
   9223SM   C1F12408   5.847   0.843  13.354 -0.0783  0.6829 -0.5145
   9223SM    OF12409   5.792   0.750  13.298  0.4185 -0.3683  0.2884
   9223SM   C2F12410   5.762   0.944  13.424 -0.1001 -0.4029  0.0236
   9223SM   H2F12411   5.671   0.967  13.365 -1.0118 -3.5205  0.0438
   9223SM   H2G12412   5.815   1.041  13.437 -0.0897  0.4237 -4.5099
   9223SM   C3F12413   5.712   0.888  13.557  0.5624  0.5279 -0.2377
   9223SM   H3F12414   5.647   0.799  13.541  0.1134  0.1470  3.0467
   9223SM   H3G12415   5.643   0.966  13.594  0.4884  0.4989 -0.3124
   9223SM   C4F12416   5.819   0.859  13.658  0.7067  0.3331  0.0119
   9223SM   H4F12417   5.873   0.956  13.663 -0.9482  1.2468  0.8889
   9223SM   H4G12418   5.888   0.780  13.622 -0.5950 -0.2343 -1.3671
   9223SM   C5F12419   5.763   0.815  13.795  0.1705 -0.5753  0.4382
   9223SM   H5F12420   5.705   0.721  13.787  0.4002 -0.5818 -1.9961
   9223SM   H5G12421   5.683   0.884  13.830  1.7030  0.9079  1.1717
   9223SM   C6F12422   5.878   0.809  13.895  0.0484 -0.1960 -0.3525
   9223SM   H6F12423   5.916   0.913  13.904 -1.1772  0.1003  3.0918
   9223SM   H6G12424   5.962   0.743  13.864 -0.2961 -0.7055 -0.2149
   9223SM   C7F12425   5.830   0.769  14.037 -0.3736 -0.4656 -1.0902
   9223SM   H7F12426   5.783   0.670  14.023 -0.9049 -0.2551 -0.8475
   9223SM   H7G12427   5.749   0.837  14.073  0.9162  0.9645 -0.7828
   9223SM   C8F12428   5.936   0.757  14.144  0.2176 -0.3177  0.6003
   9223SM   H8F12429   5.977   0.858  14.168  0.0135  0.4989 -2.1327
   9223SM   H8G12430   6.026   0.698  14.114  1.3772  0.3962  2.4500
   9223SM   C9F12431   5.879   0.713  14.276 -0.2091  0.3430 -0.1565
   9223SM   H9F12432   5.818   0.620  14.271 -1.4838  0.8354  3.4263
   9223SM   H9G12433   5.803   0.786  14.310 -0.3699 -0.8578  2.2875
   9223SM  C10F12434   5.977   0.692  14.394  0.4543  0.1755 -0.7979
   9223SM  H10F12435   6.030   0.595  14.395  0.7474  0.2872  2.1814
   9223SM  H10G12436   5.921   0.690  14.490  2.0872  2.2248  0.3046
   9223SM  C11F12437   6.062   0.820  14.425  0.9540 -0.0048  0.4937
   9223SM  H11F12438   6.001   0.912  14.433  1.1829  0.0784  1.4453
   9223SM  H11G12439   6.133   0.818  14.339  0.0539 -1.7110 -0.2693
   9223SM  C12F12440   6.141   0.816  14.556 -0.3496  0.2347 -0.2816
   9223SM  H12F12441   6.192   0.718  14.567 -1.2930 -0.0556  2.2885
   9223SM  H12G12442   6.065   0.820  14.637  1.3372 -1.0486  1.4619
   9223SM  C13F12443   6.244   0.928  14.578 -0.4472  0.6228 -0.1522
   9223SM  H13F12444   6.182   1.021  14.576  1.1536  1.8065  1.7507
   9223SM  H13G12445   6.301   0.941  14.483 -1.4797 -1.0551 -1.0577
   9223SM  C14F12446   6.328   0.921  14.706  0.1756 -0.4874  0.1654
   9223SM  H14F12447   6.393   1.011  14.709  0.0971 -0.4513  1.2541
   9223SM  H14G12448   6.401   0.838  14.699  0.7639  0.0308  0.0803
   9223SM  C15F12449   6.263   0.911  14.846 -0.0308  0.0525  0.2318
   9223SM  H15F12450   6.201   0.819  14.845  0.0254  0.0106  0.6586
   9223SM  H15G12451   6.193   0.996  14.862 -1.1786 -1.0752  1.4415
   9223SM  C16F12452   6.353   0.905  14.968  0.4063  0.0290 -0.1330
   9223SM  H16F12453   6.441   0.840  14.953  2.3485  1.5366  3.3195
   9223SM  H16G12454   6.305   0.877  15.064  0.3800  3.0214  0.8360
   9223SM  C17F12455   6.402   1.042  15.012 -0.2546 -0.6372  0.1346
   9223SM  H17F12456   6.321   1.108  15.050 -0.5080 -2.2967  2.7294
   9223SM  H17G12457   6.454   1.091  14.927  0.5043 -1.9846 -0.2054
   9223SM  C18F12458   6.511   1.039  15.124  0.3427  0.3876 -0.1480
   9223SM  H18F12459   6.588   0.964  15.095  0.0920  0.3439 -0.7262
   9223SM  H18G12460   6.463   1.010  15.220 -0.2828  1.7256 -0.0320
   9223SM  C19F12461   6.574   1.177  15.144 -0.0218 -0.1603 -0.3064
   9223SM  H19F12462   6.491   1.244  15.176 -1.3667 -2.2770  0.8268
   9223SM  H19G12463   6.609   1.209  15.043 -0.2892 -0.0766 -0.3768
   9223SM  C20F12464   6.679   1.182  15.253 -0.3566 -0.3560  0.3054
   9223SM  H20F12465   6.777   1.154  15.208 -0.8978  1.2116 -2.0334
   9223SM  H20G12466   6.658   1.112  15.337  1.1141 -0.0889  0.9162
   9223SM  C21F12467   6.691   1.323  15.305 -0.2206  0.1591 -0.1715
   9223SM  H21F12468   6.599   1.354  15.359  0.1648  2.4900 -0.7109
   9223SM  H21G12469   6.691   1.392  15.218  1.2679  1.0843  0.5138
   9223SM  C22F12470   6.807   1.344  15.397 -0.6365 -0.4613 -0.3064
   9223SM  H22F12471   6.888   1.281  15.354 -0.9580 -1.4153  0.4528
   9223SM  H22G12472   6.783   1.299  15.496  1.7692 -2.6704 -0.5969
   9223SM  C23F12473   6.835   1.499  15.420  0.4007 -0.3302  0.1424
   9223SM  H23F12474   6.750   1.543  15.476  0.9635 -1.9795  2.4627
   9223SM  H23G12475   6.837   1.549  15.321 -0.0190 -0.2153  0.1922
   9223SM  H23H12476   6.922   1.516  15.487 -1.0787  2.4622  1.5017
   9323SM     N12477   1.151   4.187  13.590  0.2531  0.2838 -0.2919
   9323SM   C1512478   1.026   4.196  13.675  0.1464  0.5331 -0.0542
   9323SM  H15A12479   1.048   4.181  13.779  2.3540 -1.8771 -0.7618
   9323SM  H15B12480   0.954   4.118  13.655 -2.0069  2.3362  0.3356
   9323SM  H15C12481   0.975   4.289  13.655  1.3152  1.1891 -0.0919
   9323SM   C1412482   1.259   4.276  13.632  0.5895 -0.4749 -0.3828
   9323SM  H14A12483   1.263   4.269  13.740 -2.3899  3.8815  0.2978
   9323SM  H14B12484   1.228   4.376  13.605  2.5589 -0.2099 -1.9033
   9323SM  H14C12485   1.349   4.239  13.585  0.8003  0.5403 -0.7859
   9323SM   C1312486   1.217   4.051  13.603  0.4543 -0.3874  0.3371
   9323SM  H13A12487   1.267   4.043  13.699  0.9471  0.7359  0.1804
   9323SM  H13B12488   1.293   4.035  13.529  0.4098  1.4086 -0.1361
   9323SM  H13C12489   1.143   3.973  13.588  0.4726 -0.0876 -1.4076
   9323SM   C1212490   1.112   4.211  13.444  0.2675  0.1348 -0.6619
   9323SM  H12A12491   1.033   4.142  13.415  0.7823 -1.2086  0.9729
   9323SM  H12B12492   1.192   4.173  13.382 -0.8330 -0.3593 -1.8266
   9323SM   C1112493   1.084   4.355  13.404  0.9451  0.2337  0.0165
   9323SM  H11A12494   1.062   4.357  13.295 -1.6695 -0.6678  0.4563
   9323SM  H11B12495   1.171   4.420  13.427  0.6071  0.8656 -0.4673
   9323SM     P12496   0.843   4.466  13.415 -0.3289 -0.5292  0.1762
   9323SM   O1312497   0.869   4.554  13.299 -0.2764  0.9448  0.4023
   9323SM   O1412498   0.742   4.364  13.386 -0.0495 -0.0633  0.3933
   9323SM   O1112499   0.792   4.564  13.526  0.3487  0.5056  0.7474
   9323SM   O1212500   0.974   4.409  13.477  0.0056  0.6451 -0.2057
   9323SM   C1S12501   0.707   4.492  13.620 -0.9349  0.0758 -0.2383
   9323SM   H1S12502   0.762   4.414  13.676 -3.2425 -0.6957  1.0684
   9323SM   H1T12503   0.609   4.462  13.576 -2.1907  1.5543  1.3965
   9323SM    NF12504   0.579   4.501  13.825  0.0538  0.0014  0.5271
   9323SM   HNF12505   0.482   4.489  13.806  0.0293 -1.9388  1.5631
   9323SM   C2S12506   0.663   4.589  13.742 -0.3126 -0.5181  1.2371
   9323SM   H2S12507   0.757   4.616  13.794 -0.9940  0.6669  1.9160
   9323SM   C3S12508   0.600   4.715  13.682  0.8384  0.2090 -0.4552
   9323SM   H3S12509   0.522   4.682  13.610 -0.0667 -0.2053  0.6802
   9323SM    O312510   0.686   4.790  13.590  0.6722  0.0660 -0.3099
   9323SM   HO312511   0.749   4.729  13.550  1.7657  1.0968 -0.2252
   9323SM   C4S12512   0.534   4.806  13.782  0.5221  0.2344 -0.7592
   9323SM   H4S12513   0.424   4.805  13.777  0.4492 -0.0337  0.5379
   9323SM   C5S12514   0.609   4.883  13.868  0.6621  0.5331 -0.1453
   9323SM   H5S12515   0.716   4.899  13.848  1.2156 -2.3031  0.1610
   9323SM   C6S12516   0.550   4.973  13.971 -0.1447 -0.4734  0.3582
   9323SM   H6S12517   0.607   5.068  13.983 -1.1223 -0.0345  1.8169
   9323SM   H6T12518   0.543   4.931  14.074 -0.6229 -0.3312  0.3853
   9323SM   C7S12519   0.413   5.021  13.943  0.5121  0.3908 -0.7581
   9323SM   H7S12520   0.335   4.945  13.967 -1.7257  2.1720 -1.9696
   9323SM   H7T12521   0.399   5.038  13.834 -0.2523  1.2306 -0.5464
   9323SM   C8S12522   0.370   5.148  14.023 -0.7912  0.1400  0.3744
   9323SM   H8S12523   0.264   5.171  13.998 -0.8676 -1.4733 -1.0076
   9323SM   H8T12524   0.434   5.223  13.973  0.4696  0.2466  2.0839
   9323SM   C9S12525   0.382   5.131  14.175  0.2930 -0.1561  0.2101
   9323SM   H9S12526   0.486   5.122  14.213  0.5271 -1.1134 -0.5903
   9323SM   H9T12527   0.327   5.038  14.200 -0.5916 -0.1366 -1.4716
   9323SM  C10S12528   0.304   5.240  14.250  0.0220  0.9572  0.3898
   9323SM  H10S12529   0.273   5.191  14.345  1.2461 -0.4108  0.1218
   9323SM  H10T12530   0.212   5.265  14.194  1.1214  1.1207 -1.4433
   9323SM  C11S12531   0.393   5.359  14.280  0.1186  0.0784 -0.8176
   9323SM  H11S12532   0.404   5.417  14.186 -1.1193  2.5781  0.4825
   9323SM  H11T12533   0.490   5.323  14.322 -0.4828 -1.0122 -0.3313
   9323SM  C12S12534   0.327   5.446  14.389 -0.6025  0.7959 -0.5609
   9323SM  H12S12535   0.221   5.460  14.359 -0.9394  0.6384  0.5123
   9323SM  H12T12536   0.377   5.545  14.389 -2.2154  1.6655  0.7420
   9323SM  C13S12537   0.339   5.388  14.532  0.0745  0.2888  0.5034
   9323SM  H13S12538   0.445   5.378  14.565  0.5906 -0.1858 -1.1812
   9323SM  H13T12539   0.294   5.287  14.532  1.0805 -0.1848 -0.3546
   9323SM  C14S12540   0.261   5.474  14.634 -0.7817  0.2712  0.1633
   9323SM  H14S12541   0.152   5.473  14.611 -0.3346  1.2861 -2.3119
   9323SM  H14T12542   0.289   5.581  14.630 -0.4458  0.1680 -3.5385
   9323SM  C15S12543   0.261   5.414  14.780  0.5346 -0.3204  0.8659
   9323SM  H15S12544   0.360   5.381  14.817  0.4099 -0.2674  1.2545
   9323SM  H15T12545   0.231   5.499  14.844 -1.2450 -2.8580  3.6400
   9323SM  C16S12546   0.161   5.302  14.794  0.2236  0.3546 -0.0813
   9323SM  H16S12547   0.201   5.208  14.750 -1.2597  0.1634 -1.1206
   9323SM  H16T12548   0.075   5.330  14.730  0.5554  0.0893 -0.6571
   9323SM  C17S12549   0.111   5.272  14.935  0.4583  0.7434 -0.6516
   9323SM  H17S12550   0.194   5.281  15.009 -1.2916  1.3365  1.3224
   9323SM  H17T12551   0.081   5.166  14.946  1.5293  0.2816 -1.9314
   9323SM  C18S12552   0.016   5.371  14.979  0.3314 -0.5806 -0.1622
   9323SM  H18S12553  -0.062   5.396  14.904 -1.3629  0.7835  1.9488
   9323SM  H18T12554   0.068   5.462  15.015 -0.1043  0.4400 -1.9759
   9323SM  H18U12555  -0.043   5.350  15.070  1.7529  0.9530  1.1645
   9323SM   C1F12556   0.622   4.421  13.927 -0.4334  0.2072  0.2331
   9323SM    OF12557   0.738   4.393  13.934  0.3176 -0.0819 -0.0181
   9323SM   C2F12558   0.517   4.344  13.989  0.3353 -0.0638 -0.4462
   9323SM   H2F12559   0.500   4.253  13.927  1.9596  0.4096 -1.6710
   9323SM   H2G12560   0.425   4.404  14.002  0.5853  0.7517 -2.1452
   9323SM   C3F12561   0.561   4.295  14.128  0.2713 -0.3563 -0.5441
   9323SM   H3F12562   0.657   4.239  14.127  0.4434 -0.0653 -1.6504
   9323SM   H3G12563   0.483   4.226  14.166 -0.2833  1.0296  0.9254
   9323SM   C4F12564   0.591   4.404  14.229  0.2892 -0.3739 -0.4520
   9323SM   H4F12565   0.659   4.481  14.187 -1.3372  0.6071 -1.3833
   9323SM   H4G12566   0.644   4.356  14.314  1.6302  2.8616  0.7321
   9323SM   C5F12567   0.462   4.470  14.288  0.0071 -0.0336  0.2870
   9323SM   H5F12568   0.407   4.385  14.335  2.5439 -1.7395  0.3536
   9323SM   H5G12569   0.409   4.526  14.209 -1.6818  0.5167  1.7348
   9323SM   C6F12570   0.497   4.566  14.411 -0.2127  0.5252  0.4673
   9323SM   H6F12571   0.578   4.528  14.477  0.6049  1.3351 -0.0451
   9323SM   H6G12572   0.403   4.567  14.471  0.4927 -0.1512  1.6224
   9323SM   C7F12573   0.536   4.707  14.374 -0.1387 -0.4133 -0.4325
   9323SM   H7F12574   0.444   4.755  14.337 -0.4452  1.0810  1.9980
   9323SM   H7G12575   0.608   4.701  14.290  0.7849 -0.3714  0.3263
   9323SM   C8F12576   0.589   4.788  14.495  0.0656  0.5130  0.3727
   9323SM   H8F12577   0.697   4.761  14.506  0.3749  1.7434  0.5138
   9323SM   H8G12578   0.541   4.759  14.590 -0.7275  0.5404 -0.0163
   9323SM   C9F12579   0.597   4.938  14.484 -0.2370 -0.3765  0.9893
   9323SM   H9F12580   0.620   4.961  14.378 -1.3559  0.7137  0.9576
   9323SM   H9G12581   0.685   4.968  14.546 -1.7584 -2.1119  4.2476
   9323SM  C10F12582   0.484   5.025  14.533 -0.0676  0.2214 -0.2926
   9323SM  H10F12583   0.386   4.998  14.488 -0.1856  1.9560 -1.1369
   9323SM  H10G12584   0.502   5.125  14.488  1.7060  0.7385  1.4276
   9323SM  C11F12585   0.484   5.056  14.684  0.1962 -0.1822  0.1084
   9323SM  H11F12586   0.426   5.149  14.704  1.3772  1.2849 -2.6590
   9323SM  H11G12587   0.588   5.057  14.723 -0.1044 -1.9236  1.0398
   9323SM  C12F12588   0.417   4.941  14.764 -0.1015  0.3156 -0.1544
   9323SM  H12F12589   0.488   4.856  14.753  0.3774  0.9901 -3.1295
   9323SM  H12G12590   0.321   4.913  14.717  0.1379 -0.2203 -0.3322
   9323SM  C13F12591   0.416   4.963  14.914 -0.3597  0.1607  0.0440
   9323SM  H13F12592   0.365   5.060  14.931  2.9282  1.8811  0.8311
   9323SM  H13G12593   0.521   4.980  14.947 -1.6163  2.6854  3.4188
   9323SM  C14F12594   0.335   4.847  14.994  0.2576 -0.2344 -0.5491
   9323SM  H14F12595   0.386   4.749  14.986  1.0006  0.2165 -1.5630
   9323SM  H14G12596   0.236   4.848  14.942  0.1590  0.2191 -0.3593
   9323SM  C15F12597   0.316   4.882  15.138 -0.5839 -0.0449  0.3815
   9323SM  H15F12598   0.227   4.839  15.189 -1.7716  0.4251 -1.1758
   9323SM  H15G12599   0.307   4.993  15.141 -1.1370 -0.0454 -0.6440
   9323SM  C16F12600   0.436   4.840  15.212  0.1748 -0.1022 -0.5268
   9323SM  H16F12601   0.530   4.883  15.172 -0.7092  1.7907 -0.6919
   9323SM  H16G12602   0.447   4.731  15.194  1.4613 -0.3341  1.3760
   9323SM  C17F12603   0.446   4.884  15.360  0.1961  0.3060  0.9187
   9323SM  H17F12604   0.510   4.806  15.408  1.1857  1.4030  1.4625
   9323SM  H17G12605   0.346   4.873  15.406  0.1999 -0.4470  0.7610
   9323SM  C18F12606   0.508   5.025  15.377  0.3850 -0.6910  0.3899
   9323SM  H18F12607   0.446   5.098  15.319 -1.0117 -0.6316  1.8806
   9323SM  H18G12608   0.603   5.027  15.320  0.1959 -0.6251  0.0702
   9323SM  C19F12609   0.540   5.072  15.516 -0.5519 -0.6313  0.4616
   9323SM  H19F12610   0.590   5.171  15.525 -1.7259  0.0226 -0.1184
   9323SM  H19G12611   0.622   5.002  15.546  1.0454  0.6461 -0.7133
   9323SM  C20F12612   0.425   5.082  15.616  0.6427  0.0011  0.1899
   9323SM  H20F12613   0.363   4.991  15.624 -0.4395  0.4488 -2.3223
   9323SM  H20G12614   0.358   5.160  15.573  1.4202  0.8922  0.5397
   9323SM  C21F12615   0.482   5.138  15.749  0.1641 -0.2106 -0.0044
   9323SM  H21F12616   0.554   5.221  15.730  0.8439 -0.5249  1.1080
   9323SM  H21G12617   0.541   5.059  15.799  3.0298  1.3455 -0.6700
   9323SM  C22F12618   0.378   5.196  15.839 -0.6356  0.1678 -0.0160
   9323SM  H22F12619   0.291   5.127  15.845  0.1664 -0.8925 -0.1767
   9323SM  H22G12620   0.332   5.283  15.789 -1.4265 -0.3839 -0.2698
   9323SM  C23F12621   0.438   5.234  15.977 -0.5760 -0.4220 -0.0218
   9323SM  H23F12622   0.506   5.162  16.028  2.4102  1.7433 -0.7082
   9323SM  H23G12623   0.361   5.281  16.042 -0.3622 -0.9082  0.5962
   9323SM  H23H12624   0.504   5.318  15.947  1.3995 -0.4879  3.6186
   9423SM     N12625   6.027   7.154  12.659  0.0199 -0.1214 -0.5730
   9423SM   C1512626   6.122   7.275  12.657 -0.6270  0.2267  0.2991
   9423SM  H15A12627   6.167   7.280  12.755 -1.0661  0.7410  0.4819
   9423SM  H15B12628   6.059   7.361  12.638 -2.3501 -1.0303  0.1591
   9423SM  H15C12629   6.204   7.275  12.586  0.7740  1.9202  1.8339
   9423SM   C1412630   5.932   7.156  12.545 -0.2292 -0.4302 -0.6420
   9423SM  H14A12631   5.869   7.243  12.553 -1.7674 -1.5098 -0.5109
   9423SM  H14B12632   5.869   7.068  12.544 -1.4588  0.4054 -2.2612
   9423SM  H14C12633   5.988   7.158  12.453  2.6346 -1.6139  0.9571
   9423SM   C1312634   6.105   7.024  12.654 -0.2760  0.3814 -0.1485
   9423SM  H13A12635   6.178   7.017  12.576  0.8408  0.3253  0.8692
   9423SM  H13B12636   6.047   6.933  12.649 -2.9546  1.9220  0.5047
   9423SM  H13C12637   6.159   7.016  12.747 -0.0824  0.7148 -0.2292
   9423SM   C1212638   5.944   7.162  12.791  0.1995 -0.3287 -0.4765
   9423SM  H12A12639   5.895   7.067  12.806  0.7888 -0.3634  1.4040
   9423SM  H12B12640   5.873   7.242  12.786  1.6044  0.9958  0.0589
   9423SM   C1112641   6.017   7.185  12.925 -0.1682  0.2281 -0.0667
   9423SM  H11A12642   5.950   7.161  13.011 -0.6584  0.8845 -0.2565
   9423SM  H11B12643   6.050   7.291  12.929  0.1708  0.1424 -0.5807
   9423SM     P12644   6.269   7.111  12.976  0.4992  0.0726  0.0695
   9423SM   O1312645   6.327   6.975  12.967  0.0795  0.6364 -0.2774
   9423SM   O1412646   6.323   7.220  12.893 -0.0379 -0.2276  0.4115
   9423SM   O1112647   6.262   7.151  13.131  0.0504 -0.0359 -0.0371
   9423SM   O1212648   6.119   7.087  12.930 -0.0988 -0.8730 -0.1449
   9423SM   C1S12649   6.151   7.116  13.214  0.1139 -0.2764  0.1540
   9423SM   H1S12650   6.128   7.008  13.200  2.5026 -0.8977  0.4873
   9423SM   H1T12651   6.058   7.175  13.204 -1.6656 -2.5649  2.0856
   9423SM    NF12652   6.048   7.105  13.448  0.5668  0.5528  0.3428
   9423SM   HNF12653   6.006   7.176  13.504  2.1878  1.3274  0.6357
   9423SM   C2S12654   6.175   7.135  13.370  0.7188  0.2719 -0.0276
   9423SM   H2S12655   6.251   7.062  13.405  1.4147  0.4227 -1.1660
   9423SM   C3S12656   6.234   7.276  13.398 -0.3607  0.6295 -0.2458
   9423SM   H3S12657   6.159   7.353  13.371 -2.4484 -0.2334  2.6286
   9423SM    O312658   6.348   7.313  13.312 -0.6292 -0.0147 -0.1568
   9423SM   HO312659   6.330   7.254  13.238 -0.0399 -1.0610  0.5072
   9423SM   C4S12660   6.271   7.308  13.537 -0.1253  0.3662 -0.2065
   9423SM   H4S12661   6.191   7.364  13.588 -1.5340 -1.7256 -0.0193
   9423SM   C5S12662   6.390   7.302  13.604  0.9021  0.1719  0.4994
   9423SM   H5S12663   6.483   7.263  13.562  0.2690  0.2486 -1.0380
   9423SM   C6S12664   6.412   7.350  13.747  0.4338 -0.1662 -0.0659
   9423SM   H6S12665   6.459   7.449  13.731 -0.3526 -0.0595 -1.9326
   9423SM   H6T12666   6.473   7.270  13.794 -0.3349 -0.4623  0.4514
   9423SM   C7S12667   6.291   7.372  13.841  0.0696  0.0522 -0.1098
   9423SM   H7S12668   6.224   7.283  13.835 -1.5914  1.1215  1.7161
   9423SM   H7T12669   6.239   7.462  13.801  1.3647  0.5350 -0.7642
   9423SM   C8S12670   6.339   7.386  13.992 -0.8102  0.0249  0.5774
   9423SM   H8S12671   6.423   7.458  13.989 -1.3521  0.8014  2.5065
   9423SM   H8T12672   6.391   7.292  14.021  1.1576  0.7309 -0.5003
   9423SM   C9S12673   6.231   7.430  14.095  0.1998  0.3808 -0.1086
   9423SM   H9S12674   6.149   7.356  14.093  0.7557 -0.2303 -0.5781
   9423SM   H9T12675   6.197   7.534  14.076 -2.4248 -0.3151  0.4331
   9423SM  C10S12676   6.290   7.437  14.235 -0.4036  0.2800 -0.2901
   9423SM  H10S12677   6.381   7.500  14.233  0.3006 -0.6720  0.5304
   9423SM  H10T12678   6.310   7.332  14.267 -1.7605 -0.3974 -1.4918
   9423SM  C11S12679   6.196   7.493  14.342 -0.2623  0.3909  1.3476
   9423SM  H11S12680   6.137   7.569  14.286  0.9332  0.9304  0.7868
   9423SM  H11T12681   6.251   7.546  14.422 -0.2853 -0.3662  1.8759
   9423SM  C12S12682   6.105   7.385  14.393  0.8186 -0.0938  0.2441
   9423SM  H12S12683   6.159   7.290  14.416  0.5295  0.1560  2.1001
   9423SM  H12T12684   6.030   7.355  14.316 -0.0957 -1.1485  1.5070
   9423SM  C13S12685   6.024   7.430  14.515 -0.1408  0.6194  0.5820
   9423SM  H13S12686   5.949   7.350  14.535  2.6694 -2.0080  1.3602
   9423SM  H13T12687   5.980   7.531  14.500 -0.1533  0.6379  0.7468
   9423SM  C14S12688   6.109   7.439  14.640  0.3235 -0.3226 -0.2123
   9423SM  H14S12689   6.189   7.515  14.633  1.6968 -1.7597 -0.7276
   9423SM  H14T12690   6.151   7.338  14.659 -1.2141 -0.6106  2.0331
   9423SM  C15S12691   6.023   7.490  14.768  0.0790  0.3856  0.4556
   9423SM  H15S12692   6.087   7.464  14.854  0.2745 -0.1757  0.1442
   9423SM  H15T12693   5.937   7.421  14.783  0.1905 -0.0265 -0.7014
   9423SM  C16S12694   5.981   7.637  14.756 -0.1156 -0.6791 -0.3663
   9423SM  H16S12695   5.888   7.637  14.696  0.3042  3.7005 -1.3115
   9423SM  H16T12696   6.056   7.699  14.702 -1.4212  0.5905 -0.7826
   9423SM  C17S12697   5.950   7.688  14.893 -0.4040  0.5825 -0.1062
   9423SM  H17S12698   5.904   7.788  14.875  0.2364  1.0335  0.7143
   9423SM  H17T12699   6.049   7.699  14.943  0.6291 -0.4069 -1.8445
   9423SM  C18S12700   5.846   7.609  14.980  0.6871 -0.0251 -0.3556
   9423SM  H18S12701   5.810   7.677  15.059  2.6204  1.1696 -0.4492
   9423SM  H18T12702   5.888   7.513  15.017  1.6193 -1.0667 -3.7443
   9423SM  H18U12703   5.765   7.574  14.913  0.5327  0.2654 -0.3180
   9423SM   C1F12704   6.009   6.974  13.468 -0.2259  0.1492  0.4657
   9423SM    OF12705   6.065   6.880  13.414 -0.1823 -0.3867 -0.2836
   9423SM   C2F12706   5.893   6.944  13.550 -0.2639  0.4751 -0.2192
   9423SM   H2F12707   5.799   6.972  13.497 -1.5292 -0.6635  1.3378
   9423SM   H2G12708   5.906   6.996  13.647  0.7284 -0.6150  0.2411
   9423SM   C3F12709   5.883   6.797  13.588  0.2300  0.1980 -0.9791
   9423SM   H3F12710   5.960   6.764  13.660 -2.2763 -0.7280  1.4608
   9423SM   H3G12711   5.887   6.726  13.503 -1.4259 -1.4033  0.2027
   9423SM   C4F12712   5.742   6.764  13.647 -0.3261  0.9297 -0.4368
   9423SM   H4F12713   5.732   6.654  13.656  1.3168  0.8142  0.4308
   9423SM   H4G12714   5.666   6.791  13.570 -1.6129  0.7537  0.7529
   9423SM   C5F12715   5.702   6.844  13.773  0.3829 -0.2885  0.0988
   9423SM   H5F12716   5.685   6.949  13.740  0.6881  0.2726  1.6539
   9423SM   H5G12717   5.767   6.834  13.862  0.6439  0.6717  0.0246
   9423SM   C6F12718   5.556   6.808  13.826 -0.1265 -0.0064  0.2473
   9423SM   H6F12719   5.552   6.698  13.836 -0.2879 -0.0279 -0.0705
   9423SM   H6G12720   5.496   6.834  13.737 -0.2265  0.4323  0.4387
   9423SM   C7F12721   5.514   6.886  13.950 -0.7604  0.6980  0.4303
   9423SM   H7F12722   5.484   6.990  13.926  0.7656  1.0988  0.1656
   9423SM   H7G12723   5.601   6.899  14.018 -0.8150 -0.2704  0.7096
   9423SM   C8F12724   5.395   6.831  14.026  0.0636  0.0861 -0.4566
   9423SM   H8F12725   5.416   6.733  14.075  1.1210  1.1888  1.4002
   9423SM   H8G12726   5.311   6.825  13.954 -0.7138  3.3408  0.0348
   9423SM   C9F12727   5.349   6.922  14.136  0.6258 -0.5903  0.5240
   9423SM   H9F12728   5.318   7.016  14.085  0.7189 -0.3187  0.9607
   9423SM   H9G12729   5.434   6.948  14.203  0.2964  0.9717  0.3775
   9423SM  C10F12730   5.229   6.849  14.206 -0.7914  0.1621 -0.4142
   9423SM  H10F12731   5.250   6.745  14.237 -2.1143  0.1906  0.6700
   9423SM  H10G12732   5.145   6.826  14.137 -0.7582 -0.9945 -0.0903
   9423SM  C11F12733   5.175   6.928  14.323 -0.6378  0.6389  0.0835
   9423SM  H11F12734   5.262   6.941  14.392 -2.9700  0.5074  3.2858
   9423SM  H11G12735   5.112   6.862  14.386 -2.4140  0.3442 -1.9182
   9423SM  C12F12736   5.129   7.072  14.300  0.1203 -0.3953  0.1057
   9423SM  H12F12737   5.050   7.072  14.222 -0.9384  0.4636  1.1287
   9423SM  H12G12738   5.218   7.124  14.259 -0.8375  2.2424  1.1480
   9423SM  C13F12739   5.081   7.141  14.424 -0.1259  0.4732 -0.0245
   9423SM  H13F12740   5.156   7.128  14.506 -3.6382 -1.4206  3.1706
   9423SM  H13G12741   4.992   7.083  14.454  0.2327 -0.4760 -0.7432
   9423SM  C14F12742   5.048   7.292  14.404  0.4445 -1.1424 -0.4333
   9423SM  H14F12743   5.035   7.312  14.296  0.8083 -3.3708 -0.9448
   9423SM  H14G12744   5.138   7.351  14.431  0.3582 -1.4476  0.5542
   9423SM  C15F12745   4.924   7.345  14.483 -0.2598 -0.0592  0.8301
   9423SM  H15F12746   4.834   7.295  14.441  0.7220 -0.5467 -0.7952
   9423SM  H15G12747   4.921   7.456  14.478  2.0445  0.0364  0.6690
   9423SM  C16F12748   4.928   7.299  14.627 -0.0671 -0.4665 -0.3805
   9423SM  H16F12749   4.969   7.197  14.643 -0.1992 -0.2447  1.6144
   9423SM  H16G12750   4.825   7.293  14.670  1.2080 -0.4004  3.0031
   9423SM  C17F12751   5.008   7.398  14.720  0.1696  0.4393  0.0571
   9423SM  H17F12752   4.989   7.503  14.688  2.0175  1.2373  1.4620
   9423SM  H17G12753   5.118   7.386  14.707 -0.1983 -0.9057 -2.6935
   9423SM  C18F12754   4.956   7.396  14.869  0.0709  0.2176 -0.7759
   9423SM  H18F12755   4.992   7.298  14.906  1.1333  0.0147 -2.2360
   9423SM  H18G12756   4.845   7.401  14.865  0.1260  0.9175 -2.0770
   9423SM  C19F12757   5.011   7.514  14.954  0.6640  0.2460 -0.0255
   9423SM  H19F12758   4.977   7.599  14.891  0.8956  0.3002 -0.0765
   9423SM  H19G12759   5.122   7.507  14.954  0.6537 -0.6673  2.0207
   9423SM  C20F12760   4.955   7.510  15.091  0.4361 -0.6029  0.3903
   9423SM  H20F12761   4.992   7.420  15.145  0.4197 -2.4840 -2.5452
   9423SM  H20G12762   4.846   7.514  15.073  0.6179 -0.5769 -0.8034
   9423SM  C21F12763   5.006   7.622  15.188 -0.1945  0.1471  0.4005
   9423SM  H21F12764   4.987   7.725  15.153 -2.8646 -0.2527  0.4509
   9423SM  H21G12765   5.116   7.606  15.190 -0.0771  0.5845 -1.1882
   9423SM  C22F12766   4.936   7.597  15.321 -0.3798  0.2788  0.9070
   9423SM  H22F12767   4.952   7.491  15.350 -2.0132  0.3229  2.1145
   9423SM  H22G12768   4.826   7.613  15.319 -0.1628  1.8538 -0.8303
   9423SM  C23F12769   4.991   7.684  15.432  0.2681 -0.2650  0.4616
   9423SM  H23F12770   4.993   7.791  15.400 -0.1609 -0.4858 -0.3148
   9423SM  H23G12771   5.098   7.671  15.461  0.4460 -2.4477 -0.9499
   9423SM  H23H12772   4.924   7.682  15.520  0.5560  1.0911  0.7482
   9523SM     N12773   1.882   1.223  13.092 -0.1208 -0.4554  0.2492
   9523SM   C1512774   2.024   1.265  13.056 -0.0659 -0.4359  0.2221
   9523SM  H15A12775   2.015   1.357  13.000  1.8727 -1.4724 -1.9619
   9523SM  H15B12776   2.067   1.194  12.988  0.1397  0.5467 -0.7078
   9523SM  H15C12777   2.083   1.282  13.145  0.2334 -2.1615  0.3884
   9523SM   C1412778   1.813   1.180  12.973 -0.5139  0.6107  0.0719
   9523SM  H14A12779   1.713   1.220  12.973 -1.7044 -2.1342 -1.3506
   9523SM  H14B12780   1.794   1.074  12.976  0.8937  0.3508  2.2665
   9523SM  H14C12781   1.845   1.201  12.872 -2.8575  0.0095 -0.8613
   9523SM   C1312782   1.899   1.110  13.190 -0.2535  0.1867 -0.0511
   9523SM  H13A12783   1.937   1.135  13.287 -0.2665  0.6612 -0.1660
   9523SM  H13B12784   1.947   1.021  13.152 -0.3477 -0.9928  2.4085
   9523SM  H13C12785   1.803   1.067  13.215  0.3658 -1.9183 -1.0688
   9523SM   C1212786   1.811   1.335  13.157  0.3174  0.6477  0.7835
   9523SM  H12A12787   1.813   1.413  13.082 -0.8068 -0.9311 -0.9408
   9523SM  H12B12788   1.866   1.359  13.247  1.8374  0.3433 -0.0321
   9523SM   C1112789   1.657   1.320  13.195 -0.2816  0.0404  0.1426
   9523SM  H11A12790   1.638   1.411  13.255  1.2514 -1.5889  3.3268
   9523SM  H11B12791   1.648   1.233  13.263  2.6340 -0.5183 -0.0593
   9523SM     P12792   1.449   1.381  13.064 -0.3195  0.1373 -0.0487
   9523SM   O1312793   1.488   1.518  13.031 -0.5492  0.0832 -0.3438
   9523SM   O1412794   1.352   1.308  12.975 -0.2015  0.0271 -0.1908
   9523SM   O1112795   1.418   1.387  13.218 -0.5504 -0.0120  0.4443
   9523SM   O1212796   1.580   1.293  13.079  0.1188 -0.0283  0.0190
   9523SM   C1S12797   1.370   1.280  13.293  0.4145  0.4064  0.1890
   9523SM   H1S12798   1.428   1.190  13.264 -0.8428  0.2058 -1.8569
   9523SM   H1T12799   1.265   1.253  13.269  0.9165 -2.5194  0.8416
   9523SM    NF12800   1.345   1.165  13.518 -0.0408  0.5230  0.5672
   9523SM   HNF12801   1.251   1.152  13.548 -1.3966 -1.3262 -3.6812
   9523SM   C2S12802   1.376   1.291  13.446 -0.0566 -0.1541 -0.2983
   9523SM   H2S12803   1.477   1.313  13.487  0.5129 -1.9621 -0.6195
   9523SM   C3S12804   1.288   1.419  13.474  0.7747  0.0723 -0.3887
   9523SM   H3S12805   1.192   1.413  13.418  0.8145  0.0734 -0.4572
   9523SM    O312806   1.356   1.543  13.431  0.1762 -0.2302 -0.4361
   9523SM   HO312807   1.439   1.511  13.396 -0.7152 -1.1468 -1.7982
   9523SM   C4S12808   1.246   1.427  13.619 -0.6140  0.2739 -0.5216
   9523SM   H4S12809   1.142   1.395  13.637 -0.5476  0.1252 -0.3972
   9523SM   C5S12810   1.321   1.475  13.721 -0.1530  0.0004  0.5343
   9523SM   H5S12811   1.423   1.514  13.705  0.5054 -0.0646  3.7230
   9523SM   C6S12812   1.278   1.491  13.869  0.2810 -0.4022 -0.3290
   9523SM   H6S12813   1.240   1.593  13.890 -1.0547 -1.1037  0.7786
   9523SM   H6T12814   1.370   1.464  13.925  0.9097 -0.6599 -1.4423
   9523SM   C7S12815   1.160   1.397  13.911  0.0026  1.4427 -0.1574
   9523SM   H7S12816   1.178   1.288  13.901 -1.2694  1.0201  1.7442
   9523SM   H7T12817   1.081   1.424  13.838 -1.7122 -0.0669  1.0539
   9523SM   C8S12818   1.125   1.426  14.056  0.4397 -0.0004  0.1010
   9523SM   H8S12819   1.114   1.534  14.081 -3.0534 -0.6085  1.9023
   9523SM   H8T12820   1.194   1.383  14.131 -1.7331  1.8439  3.4165
   9523SM   C9S12821   0.985   1.372  14.096  0.4451  0.1273 -0.3704
   9523SM   H9S12822   0.980   1.265  14.068  3.0783 -0.2029  0.1158
   9523SM   H9T12823   0.911   1.427  14.034 -0.5507  0.8124  1.3365
   9523SM  C10S12824   0.951   1.401  14.249 -0.4862  0.5776 -0.3513
   9523SM  H10S12825   1.025   1.346  14.310 -0.8515  1.4410  0.9108
   9523SM  H10T12826   0.850   1.357  14.267  0.1447 -1.0346 -0.6017
   9523SM  C11S12827   0.968   1.542  14.310  0.2985  0.1950  0.7187
   9523SM  H11S12828   0.946   1.616  14.230 -0.5146  0.1103  0.8495
   9523SM  H11T12829   1.075   1.554  14.338  1.7409  1.7069 -4.3302
   9523SM  C12S12830   0.876   1.573  14.426  0.1042  0.1148  0.2878
   9523SM  H12S12831   0.899   1.490  14.497 -0.9766  0.9270  1.6444
   9523SM  H12T12832   0.770   1.565  14.395  0.3446 -0.9098 -0.3346
   9523SM  C13S12833   0.915   1.703  14.493 -0.8922 -0.6320 -0.3004
   9523SM  H13S12834   0.904   1.789  14.424  1.6496  2.8680  3.1505
   9523SM  H13T12835   1.022   1.700  14.525 -1.4017 -0.5045  1.5422
   9523SM  C14S12836   0.821   1.734  14.610  0.0234  0.4174 -0.1671
   9523SM  H14S12837   0.732   1.782  14.565  0.0733  0.6137 -0.0621
   9523SM  H14T12838   0.877   1.803  14.678 -0.3137  1.3253 -0.7952
   9523SM  C15S12839   0.759   1.607  14.689 -0.4624 -0.2251  0.0257
   9523SM  H15S12840   0.847   1.542  14.710 -0.0404 -0.5089 -2.2986
   9523SM  H15T12841   0.694   1.552  14.618  0.8152 -1.0720 -0.5235
   9523SM  C16S12842   0.675   1.630  14.818 -0.6090  0.4970  0.5312
   9523SM  H16S12843   0.584   1.679  14.775  0.1334  1.9837  0.5969
   9523SM  H16T12844   0.721   1.713  14.875  2.2186  0.9564 -2.1473
   9523SM  C17S12845   0.650   1.500  14.895  0.2034  0.4159  0.0460
   9523SM  H17S12846   0.747   1.454  14.926  0.2276 -1.3501 -2.3153
   9523SM  H17T12847   0.625   1.429  14.813  1.2110 -2.4512  2.0318
   9523SM  C18S12848   0.541   1.496  14.994  0.3788  0.0457 -0.0547
   9523SM  H18S12849   0.521   1.396  15.039  1.2591 -0.0268  0.1846
   9523SM  H18T12850   0.446   1.523  14.944 -0.2636 -1.8195  0.0676
   9523SM  H18U12851   0.552   1.572  15.074 -0.7472  0.9620 -0.7334
   9523SM   C1F12852   1.433   1.062  13.527 -0.0042 -0.2791 -0.9818
   9523SM    OF12853   1.542   1.065  13.477  0.5683  0.3835 -0.0770
   9523SM   C2F12854   1.380   0.944  13.607 -0.3280  0.1010 -0.9504
   9523SM   H2F12855   1.336   0.871  13.535 -0.3625  0.7893 -1.6375
   9523SM   H2G12856   1.300   0.974  13.677 -0.6906  0.3625 -1.4724
   9523SM   C3F12857   1.490   0.884  13.697 -0.5612 -0.5499  0.5160
   9523SM   H3F12858   1.534   0.972  13.748 -3.6621  0.4891  1.6178
   9523SM   H3G12859   1.573   0.841  13.638 -0.4528  1.5345 -0.9756
   9523SM   C4F12860   1.434   0.790  13.809  0.0200  0.6520 -0.1256
   9523SM   H4F12861   1.392   0.706  13.750 -0.5556  0.5358  0.4433
   9523SM   H4G12862   1.359   0.840  13.874 -1.8807 -2.0447 -0.1095
   9523SM   C5F12863   1.538   0.731  13.894 -0.4213  0.6234 -0.0971
   9523SM   H5F12864   1.627   0.703  13.833  0.4394 -0.2521  1.5197
   9523SM   H5G12865   1.493   0.635  13.926 -1.2168  1.2202  0.5972
   9523SM   C6F12866   1.569   0.816  14.018 -0.1723  0.2752 -0.4877
   9523SM   H6F12867   1.478   0.810  14.082 -0.5452 -0.2037 -1.0456
   9523SM   H6G12868   1.597   0.920  13.991 -1.1953  0.5767 -0.4323
   9523SM   C7F12869   1.686   0.751  14.101  0.4797 -0.2228 -0.0561
   9523SM   H7F12870   1.782   0.767  14.047 -0.8791  0.7858 -2.3082
   9523SM   H7G12871   1.676   0.643  14.126 -1.0127 -0.1449 -0.2493
   9523SM   C8F12872   1.706   0.827  14.234 -1.2103 -0.2760  0.5346
   9523SM   H8F12873   1.619   0.809  14.300 -0.9803  1.5363  1.4054
   9523SM   H8G12874   1.717   0.937  14.222 -0.7281 -0.1198  2.1107
   9523SM   C9F12875   1.842   0.786  14.304  0.2802  0.0767  0.1248
   9523SM   H9F12876   1.922   0.802  14.229 -1.0103  2.6505 -0.8525
   9523SM   H9G12877   1.841   0.677  14.325  1.7055 -0.3626 -1.8024
   9523SM  C10F12878   1.873   0.870  14.434  1.0320 -0.4554  0.3533
   9523SM  H10F12879   1.817   0.824  14.518  0.7404 -1.0057 -0.1325
   9523SM  H10G12880   1.838   0.973  14.409  1.3835 -0.3413  0.3313
   9523SM  C11F12881   2.025   0.868  14.461  0.7583  0.0472  0.6608
   9523SM  H11F12882   2.073   0.921  14.376 -1.6176 -0.2550 -0.9740
   9523SM  H11G12883   2.061   0.764  14.477  1.6722  0.2623  0.0790
   9523SM  C12F12884   2.047   0.939  14.593 -0.4163  0.4505  0.7637
   9523SM  H12F12885   1.976   0.897  14.667  0.9779 -0.5116  1.6081
   9523SM  H12G12886   2.027   1.046  14.573  0.0214  0.6780  1.5090
   9523SM  C13F12887   2.194   0.928  14.652  0.3362  0.4040  0.4840
   9523SM  H13F12888   2.263   0.940  14.566 -0.9257  0.9894 -0.4802
   9523SM  H13G12889   2.197   0.825  14.695 -3.1521  0.2199  0.5804
   9523SM  C14F12890   2.217   1.036  14.758  0.1773  1.0648  0.6622
   9523SM  H14F12891   2.283   0.984  14.831 -1.3142 -0.5000  0.9830
   9523SM  H14G12892   2.116   1.042  14.805  0.2170 -4.1796  2.1473
   9523SM  C15F12893   2.260   1.165  14.684 -0.5439 -0.4702 -0.0614
   9523SM  H15F12894   2.185   1.175  14.603 -1.5369  0.4730  0.9324
   9523SM  H15G12895   2.357   1.146  14.634 -1.2806 -2.1562 -0.9004
   9523SM  C16F12896   2.259   1.285  14.777 -0.7906 -0.0182 -0.7827
   9523SM  H16F12897   2.180   1.260  14.851 -0.1302  0.8424  0.2469
   9523SM  H16G12898   2.235   1.375  14.717 -2.2851 -0.2543 -0.5750
   9523SM  C17F12899   2.388   1.310  14.860 -0.1296 -0.0234  0.1525
   9523SM  H17F12900   2.469   1.305  14.783 -2.2253 -0.1815 -2.1814
   9523SM  H17G12901   2.397   1.233  14.939 -0.1847  1.7383  1.9569
   9523SM  C18F12902   2.414   1.444  14.933  0.3021  0.4646 -0.1305
   9523SM  H18F12903   2.333   1.450  15.008  0.5664 -1.1187  0.3350
   9523SM  H18G12904   2.419   1.531  14.864  0.1492  2.2658  2.0521
   9523SM  C19F12905   2.546   1.440  15.008  0.1222  0.2663 -0.0459
   9523SM  H19F12906   2.620   1.420  14.927 -0.3748 -1.5175 -0.0942
   9523SM  H19G12907   2.550   1.348  15.070 -0.9772 -0.4628 -1.0116
   9523SM  C20F12908   2.590   1.565  15.078  0.1837  0.4432  0.2689
   9523SM  H20F12909   2.577   1.649  15.006 -0.6961 -1.4490 -1.8905
   9523SM  H20G12910   2.698   1.564  15.103 -0.1119  1.6224  1.7633
   9523SM  C21F12911   2.507   1.592  15.201 -0.0322 -0.0013 -0.4605
   9523SM  H21F12912   2.503   1.492  15.250  1.0991 -0.3926 -1.1248
   9523SM  H21G12913   2.402   1.617  15.175 -0.2821 -0.6389 -0.0773
   9523SM  C22F12914   2.569   1.700  15.295  0.4408  0.5049  0.0298
   9523SM  H22F12915   2.500   1.695  15.382 -1.3063 -0.2887 -1.3606
   9523SM  H22G12916   2.565   1.803  15.254  1.7400  1.1230  1.3289
   9523SM  C23F12917   2.713   1.666  15.336  0.0496  0.2105 -0.1336
   9523SM  H23F12918   2.776   1.683  15.246 -0.1457 -1.7682 -0.6773
   9523SM  H23G12919   2.723   1.566  15.381 -1.8326  0.3945  0.7769
   9523SM  H23H12920   2.760   1.734  15.410  1.2920 -1.0259  0.2541
   9623SM     N12921   4.059   8.092  12.781 -0.1213  0.4840 -0.0445
   9623SM   C1512922   3.970   7.990  12.851 -0.7577  0.2502  0.2730
   9623SM  H15A12923   3.892   7.951  12.787 -0.5315 -0.1820  0.2564
   9623SM  H15B12924   3.932   8.031  12.944 -1.8479  0.2592 -0.1575
   9623SM  H15C12925   4.031   7.906  12.879  0.4358  0.0886 -2.5425
   9623SM   C1412926   4.110   8.013  12.666 -1.0348 -0.8211  0.2714
   9623SM  H14A12927   4.168   7.927  12.697 -1.0672 -0.9533 -0.0247
   9623SM  H14B12928   4.169   8.061  12.590 -0.7445  1.2703  1.7376
   9623SM  H14C12929   4.026   7.957  12.627 -0.4931 -0.9803 -0.7117
   9623SM   C1312930   3.974   8.199  12.725 -0.7194  0.1978 -0.5024
   9623SM  H13A12931   4.041   8.282  12.713 -0.2919 -0.2112 -0.9542
   9623SM  H13B12932   3.900   8.229  12.799  0.6185  2.1392  0.1184
   9623SM  H13C12933   3.929   8.174  12.630  0.2516  1.1554 -1.2366
   9623SM   C1212934   4.167   8.139  12.875 -0.3148 -0.4750  0.4391
   9623SM  H12A12935   4.236   8.193  12.811 -0.4718 -1.2606 -0.4104
   9623SM  H12B12936   4.214   8.053  12.920  0.9734 -0.8339 -1.4337
   9623SM   C1112937   4.120   8.229  12.996 -0.7578 -0.3580 -0.1301
   9623SM  H11A12938   4.076   8.323  12.956 -0.4886 -0.4519 -0.6568
   9623SM  H11B12939   4.210   8.262  13.053 -0.2044 -1.6720 -0.2066
   9623SM     P12940   4.079   8.070  13.196  0.4406 -0.0271 -0.4287
   9623SM   O1312941   3.967   8.026  13.285  0.7886  0.4371 -0.3348
   9623SM   O1412942   4.158   7.964  13.125  0.1162 -0.0699 -0.3293
   9623SM   O1112943   4.167   8.161  13.282  0.3071  0.0385 -0.2527
   9623SM   O1212944   4.025   8.161  13.083 -0.3932  0.5390 -0.3470
   9623SM   C1S12945   4.131   8.283  13.333  0.4304 -0.0120  0.2093
   9623SM   H1S12946   4.034   8.282  13.387  1.2421 -0.6117  1.7015
   9623SM   H1T12947   4.133   8.359  13.251  1.5698  0.0021  0.2393
   9623SM    NF12948   4.171   8.438  13.528  0.2408  0.3666  0.1766
   9623SM   HNF12949   4.207   8.528  13.506  0.9368 -0.4051 -2.1155
   9623SM   C2S12950   4.227   8.338  13.442 -0.6558 -0.4202  0.8513
   9623SM   H2S12951   4.246   8.246  13.502  0.0240 -0.3147  0.8128
   9623SM   C3S12952   4.360   8.362  13.369 -1.0780  0.1071 -0.5154
   9623SM   H3S12953   4.333   8.446  13.301 -1.0221  2.0017  1.6942
   9623SM    O312954   4.406   8.250  13.289  0.2592 -0.0781 -0.3211
   9623SM   HO312955   4.332   8.189  13.297  0.7191 -0.6271 -0.1057
   9623SM   C4S12956   4.477   8.398  13.459 -0.9409 -0.2013  0.5401
   9623SM   H4S12957   4.492   8.322  13.537 -0.3471  1.5382  2.1809
   9623SM   C5S12958   4.561   8.503  13.438 -0.0275 -0.4606 -0.1400
   9623SM   H5S12959   4.562   8.552  13.340  2.7710  0.6411  0.3448
   9623SM   C6S12960   4.685   8.530  13.518  0.2017  0.5061  0.4166
   9623SM   H6S12961   4.780   8.527  13.461  0.1944  0.1210  0.4241
   9623SM   H6T12962   4.702   8.465  13.607 -0.2344 -1.7753 -1.0984
   9623SM   C7S12963   4.664   8.673  13.563 -0.6956  0.9636 -0.6604
   9623SM   H7S12964   4.569   8.679  13.622  0.1322  1.8920  0.6344
   9623SM   H7T12965   4.672   8.730  13.468  2.4462  0.1481 -0.9935
   9623SM   C8S12966   4.775   8.733  13.646  0.1069 -0.1350  0.0353
   9623SM   H8S12967   4.762   8.843  13.637  0.0524 -0.2495 -1.5238
   9623SM   H8T12968   4.874   8.716  13.600  0.8616  1.3316  1.0389
   9623SM   C9S12969   4.765   8.705  13.792 -0.0178  0.2034 -0.0871
   9623SM   H9S12970   4.745   8.596  13.800  2.1487 -0.2510 -0.0984
   9623SM   H9T12971   4.680   8.762  13.835 -0.0746 -0.1093  0.2279
   9623SM  C10S12972   4.890   8.743  13.873  0.3754 -0.4100 -0.3175
   9623SM  H10S12973   4.914   8.851  13.867  0.0089 -0.2165  1.3640
   9623SM  H10T12974   4.971   8.682  13.828  2.2334 -0.1891  2.4572
   9623SM  C11S12975   4.891   8.706  14.029  0.7486 -0.1813  0.3341
   9623SM  H11S12976   4.904   8.596  14.040  0.3433 -0.6053 -2.6161
   9623SM  H11T12977   4.791   8.727  14.073  1.2505  0.4050  1.2380
   9623SM  C12S12978   4.994   8.782  14.102 -0.3889 -0.5748 -0.4112
   9623SM  H12S12979   5.010   8.776  14.212  0.9557  2.1122 -0.3717
   9623SM  H12T12980   4.991   8.891  14.079  0.5805 -0.2950  0.7287
   9623SM  C13S12981   5.135   8.753  14.052  0.5007 -0.0417  0.4697
   9623SM  H13S12982   5.145   8.768  13.942 -2.0823 -0.2473  0.1500
   9623SM  H13T12983   5.154   8.645  14.069  0.6144  0.1355  1.5690
   9623SM  C14S12984   5.241   8.830  14.132  0.1808 -0.0728 -0.4404
   9623SM  H14S12985   5.342   8.803  14.095  0.4431  0.3762 -0.0670
   9623SM  H14T12986   5.229   8.793  14.236 -2.1708 -1.1721 -1.0300
   9623SM  C15S12987   5.232   8.985  14.113  0.0244 -0.5185 -0.7071
   9623SM  H15S12988   5.134   9.031  14.139  0.2918 -1.5644  2.6622
   9623SM  H15T12989   5.265   9.006  14.009  0.8906 -0.3849 -0.4125
   9623SM  C16S12990   5.316   9.061  14.211  0.0077 -0.4634  0.1447
   9623SM  H16S12991   5.418   9.029  14.178 -0.8367 -3.0547 -0.2416
   9623SM  H16T12992   5.284   9.032  14.313  0.0504 -0.4312  0.1673
   9623SM  C17S12993   5.302   9.219  14.206  0.5865  0.5763 -0.2529
   9623SM  H17S12994   5.286   9.250  14.100  0.1109  0.3625 -0.2494
   9623SM  H17T12995   5.401   9.255  14.240  0.8154  1.3770 -1.7082
   9623SM  C18S12996   5.203   9.279  14.308  0.2631 -0.0357  0.5731
   9623SM  H18S12997   5.105   9.227  14.309 -0.4633  1.2886  1.8776
   9623SM  H18T12998   5.169   9.382  14.284  0.4124 -0.2375 -0.5407
   9623SM  H18U12999   5.253   9.272  14.407 -0.0024  1.7350  0.8683
   9623SM   C1F13000   4.085   8.411  13.624  0.2277 -0.7940 -1.4614
   9623SM    OF13001   4.047   8.300  13.648  0.1708  0.1281  0.4088
   9623SM   C2F13002   4.027   8.521  13.706 -0.2176  0.2848  0.0305
   9623SM   H2F13003   4.080   8.611  13.671 -0.7780  0.2574 -0.9188
   9623SM   H2G13004   4.043   8.506  13.815  1.8536  0.7751 -0.1636
   9623SM   C3F13005   3.871   8.522  13.691  0.4329  0.6048 -0.5943
   9623SM   H3F13006   3.819   8.424  13.694  0.2547  0.7146  0.7341
   9623SM   H3G13007   3.835   8.566  13.595 -0.4715 -0.8376 -0.9530
   9623SM   C4F13008   3.803   8.609  13.800  0.1085 -0.3124  0.1778
   9623SM   H4F13009   3.862   8.703  13.811 -0.6464  0.2625 -0.6381
   9623SM   H4G13010   3.823   8.546  13.890 -0.3759 -0.6109  0.0784
   9623SM   C5F13011   3.657   8.627  13.784  0.4442  0.0006  0.0657
   9623SM   H5F13012   3.605   8.530  13.765 -2.5342  1.2332  1.3098
   9623SM   H5G13013   3.638   8.686  13.691  0.0199 -2.1571 -1.3068
   9623SM   C6F13014   3.593   8.699  13.900  0.4478 -0.1377  0.2639
   9623SM   H6F13015   3.646   8.795  13.919  0.6952 -0.1680 -0.2671
   9623SM   H6G13016   3.593   8.637  13.992 -2.0097  1.9840  1.8426
   9623SM   C7F13017   3.449   8.734  13.879  0.3293  0.4089 -0.1112
   9623SM   H7F13018   3.378   8.650  13.890  1.1386 -0.0733  1.7780
   9623SM   H7G13019   3.430   8.775  13.777 -1.7330  1.5593  0.6658
   9623SM   C8F13020   3.413   8.838  13.984  0.0342 -0.1482 -0.6662
   9623SM   H8F13021   3.498   8.833  14.056 -0.7465  1.4894  0.4295
   9623SM   H8G13022   3.320   8.812  14.040  1.5561  0.4371  2.3793
   9623SM   C9F13023   3.404   8.980  13.926  0.4116 -0.0136  0.1262
   9623SM   H9F13024   3.334   8.981  13.840  2.0389 -0.8388 -1.2816
   9623SM   H9G13025   3.503   9.002  13.881 -0.1072 -0.7000 -1.4368
   9623SM  C10F13026   3.358   9.087  14.033  0.4492  0.0191 -0.0629
   9623SM  H10F13027   3.263   9.047  14.075  0.2887 -1.4903 -1.7416
   9623SM  H10G13028   3.334   9.175  13.968 -0.8120 -0.4019 -0.2046
   9623SM  C11F13029   3.442   9.127  14.155  0.1532 -0.0729 -0.3354
   9623SM  H11F13030   3.438   9.036  14.218  1.1386 -0.8349 -1.3255
   9623SM  H11G13031   3.395   9.215  14.205  1.9049 -0.0944  1.5178
   9623SM  C12F13032   3.584   9.152  14.123 -0.0992 -0.0264 -0.0326
   9623SM  H12F13033   3.616   9.080  14.045  2.0353  2.1353 -1.3050
   9623SM  H12G13034   3.650   9.132  14.209  0.7277 -1.5056 -0.9812
   9623SM  C13F13035   3.605   9.294  14.063  0.4240  0.4424 -0.0916
   9623SM  H13F13036   3.588   9.358  14.151  0.8567 -0.0488  0.3546
   9623SM  H13G13037   3.528   9.315  13.985  1.3834 -1.9020 -1.8062
   9623SM  C14F13038   3.748   9.310  14.024 -0.2892 -0.4008  1.1314
   9623SM  H14F13039   3.774   9.238  13.943  0.8163  3.9448 -2.8953
   9623SM  H14G13040   3.809   9.287  14.114  1.5345  0.8588  0.2918
   9623SM  C15F13041   3.766   9.444  13.945  0.7974 -0.6466 -0.3882
   9623SM  H15F13042   3.689   9.453  13.865 -1.3873 -2.7250  1.3521
   9623SM  H15G13043   3.869   9.442  13.902  1.0788 -0.7908  0.2858
   9623SM  C16F13044   3.764   9.570  14.034  0.3768  0.0136  0.0682
   9623SM  H16F13045   3.663   9.575  14.080  0.8045  1.5135  0.9011
   9623SM  H16G13046   3.778   9.667  13.982  0.0836 -1.0157 -2.0325
   9623SM  C17F13047   3.862   9.569  14.149  0.4488  0.0860 -0.4261
   9623SM  H17F13048   3.966   9.549  14.116  0.1984 -1.7227 -0.2233
   9623SM  H17G13049   3.843   9.475  14.204  0.8947 -1.2168 -2.4171
   9623SM  C18F13050   3.861   9.690  14.239  0.4824  0.2837  0.3152
   9623SM  H18F13051   3.760   9.706  14.282  0.4157  2.1440 -0.4236
   9623SM  H18G13052   3.890   9.777  14.177  0.1147 -1.2822 -2.1837
   9623SM  C19F13053   3.956   9.689  14.364  0.6061 -0.0134  0.7116
   9623SM  H19F13054   3.940   9.598  14.426 -0.6429  1.1712  2.1774
   9623SM  H19G13055   3.928   9.775  14.427  1.9004  0.3052  0.8597
   9623SM  C20F13056   4.096   9.688  14.316 -0.7921 -0.0632 -0.1592
   9623SM  H20F13057   4.110   9.775  14.249 -0.9418  4.1146  4.6030
   9623SM  H20G13058   4.107   9.595  14.256  0.2022  0.0732 -0.2088
   9623SM  C21F13059   4.199   9.702  14.427 -0.3952  0.3807  0.1245
   9623SM  H21F13060   4.200   9.610  14.489  1.7828 -1.2752 -2.1733
   9623SM  H21G13061   4.191   9.801  14.477 -1.4158  1.8129 -2.6600
   9623SM  C22F13062   4.336   9.699  14.362 -0.0294  0.0612 -0.5420
   9623SM  H22F13063   4.345   9.782  14.289  0.3036  1.1774  0.7430
   9623SM  H22G13064   4.351   9.599  14.316  0.5065 -0.7756  1.3368
   9623SM  C23F13065   4.450   9.725  14.453  0.3655 -0.4373 -0.2448
   9623SM  H23F13066   4.542   9.757  14.399  0.5608 -1.7024 -0.6820
   9623SM  H23G13067   4.481   9.637  14.513  1.6413 -1.2591 -2.0280
   9623SM  H23H13068   4.441   9.810  14.525  0.4061 -0.4651 -0.2074
   9723SM     N13069   4.421   1.258  12.681  0.2430 -0.4611 -0.2183
   9723SM   C1513070   4.447   1.119  12.638  0.1792 -0.4549 -0.6142
   9723SM  H15A13071   4.360   1.088  12.582  0.2903 -1.8836 -0.0332
   9723SM  H15B13072   4.467   1.050  12.718  0.7351 -0.4922 -0.7778
   9723SM  H15C13073   4.529   1.111  12.568  1.5395  0.4746  0.7964
   9723SM   C1413074   4.395   1.339  12.562  0.1531  0.2647 -0.4787
   9723SM  H14A13075   4.476   1.322  12.493  0.7453 -0.2518  0.3236
   9723SM  H14B13076   4.407   1.445  12.581 -0.6345  0.6215 -1.8311
   9723SM  H14C13077   4.294   1.327  12.526 -0.0458  0.3140  0.0510
   9723SM   C1313078   4.300   1.262  12.769 -0.0088 -0.4952  0.0337
   9723SM  H13A13079   4.284   1.365  12.797  2.9111  0.8173 -2.5596
   9723SM  H13B13080   4.319   1.197  12.853 -1.6360 -1.4039 -0.2515
   9723SM  H13C13081   4.211   1.221  12.724  0.0088 -0.5332  0.0342
   9723SM   C1213082   4.536   1.313  12.759 -0.1373 -0.5847 -1.3355
   9723SM  H12A13083   4.493   1.410  12.779 -1.1153 -1.0460 -1.1687
   9723SM  H12B13084   4.634   1.312  12.714  1.0701 -0.0268  1.1104
   9723SM   C1113085   4.563   1.250  12.901  0.6053 -0.2504  0.0558
   9723SM  H11A13086   4.481   1.268  12.973 -1.7415 -2.8844 -1.7450
   9723SM  H11B13087   4.651   1.313  12.929  1.0039  0.2766 -2.1867
   9723SM     P13088   4.744   1.052  12.889  0.0267 -0.2619 -0.3683
   9723SM   O1313089   4.735   0.906  12.899 -0.4408  0.3238  0.2773
   9723SM   O1413090   4.813   1.100  12.772 -0.0467 -0.1025  0.4273
   9723SM   O1113091   4.819   1.122  13.010  0.2968  0.1402 -0.1115
   9723SM   O1213092   4.595   1.114  12.900 -0.4035 -0.4341 -0.2004
   9723SM   C1S13093   4.772   1.111  13.148 -1.1897 -0.4447  0.3608
   9723SM   H1S13094   4.740   1.006  13.166 -1.1096 -0.0321  3.3735
   9723SM   H1T13095   4.686   1.179  13.166 -0.4401  1.3625 -2.2129
   9723SM    NF13096   4.861   1.093  13.380 -0.7238  0.1988 -0.1973
   9723SM   HNF13097   4.827   1.153  13.452 -0.1596 -0.6509  0.8009
   9723SM   C2S13098   4.888   1.146  13.242  0.3861  0.0347 -0.4192
   9723SM   H2S13099   4.972   1.093  13.194 -0.8737 -0.4516 -2.1933
   9723SM   C3S13100   4.918   1.299  13.241 -0.6006  0.1668  0.2890
   9723SM   H3S13101   4.833   1.356  13.283 -0.3665  2.0987 -1.6611
   9723SM    O313102   4.949   1.345  13.105  0.0465  0.3877  0.1381
   9723SM   HO313103   4.907   1.276  13.053  0.9531 -0.8352  0.9484
   9723SM   C4S13104   5.045   1.330  13.327  0.0423  0.5069  0.6714
   9723SM   H4S13105   5.140   1.282  13.297 -0.4606  0.3307 -0.7136
   9723SM   C5S13106   5.042   1.392  13.444 -0.1569 -0.2688 -0.2835
   9723SM   H5S13107   4.942   1.424  13.478  0.0926 -1.7238  2.0407
   9723SM   C6S13108   5.160   1.426  13.529 -0.6519 -0.3474 -0.6746
   9723SM   H6S13109   5.169   1.535  13.548  0.9165 -0.7186  0.9265
   9723SM   H6T13110   5.252   1.398  13.475  0.3196 -1.3810  1.4118
   9723SM   C7S13111   5.162   1.351  13.663  0.2189 -0.2247 -0.2885
   9723SM   H7S13112   5.084   1.392  13.731 -0.1383  0.8257 -1.2969
   9723SM   H7T13113   5.255   1.369  13.721  0.7756  0.3897 -1.3337
   9723SM   C8S13114   5.133   1.201  13.638 -0.2504  0.0970  1.0996
   9723SM   H8S13115   5.193   1.172  13.549  0.0688 -0.3556  1.4651
   9723SM   H8T13116   5.030   1.185  13.598 -0.4737 -1.0468  2.0799
   9723SM   C9S13117   5.158   1.097  13.747 -0.1099 -0.0649 -0.1154
   9723SM   H9S13118   5.105   1.137  13.836  1.4299 -2.5019  2.0287
   9723SM   H9T13119   5.265   1.085  13.774 -0.6210 -0.6509  1.8331
   9723SM  C10S13120   5.083   0.964  13.724 -0.0374 -0.9346 -0.5871
   9723SM  H10S13121   4.975   0.987  13.711 -0.3388 -1.5590  0.6867
   9723SM  H10T13122   5.093   0.909  13.820  0.8734  3.5100  2.1778
   9723SM  C11S13123   5.154   0.885  13.619  0.6180 -0.0991 -0.1298
   9723SM  H11S13124   5.257   0.860  13.652  0.5113  0.5444  0.7194
   9723SM  H11T13125   5.150   0.935  13.520 -0.0799 -0.9540 -0.5535
   9723SM  C12S13126   5.080   0.752  13.586 -0.4208  0.6447 -0.1127
   9723SM  H12S13127   5.146   0.710  13.508 -0.2841  2.3184 -0.9518
   9723SM  H12T13128   4.986   0.783  13.535  0.0792 -0.2246 -1.6445
   9723SM  C13S13129   5.043   0.655  13.701 -0.1351 -0.0717  0.2419
   9723SM  H13S13130   5.002   0.565  13.650 -1.7207  1.0437 -0.5260
   9723SM  H13T13131   4.959   0.690  13.764 -0.0660 -0.2987  0.4638
   9723SM  C14S13132   5.166   0.604  13.776  0.9766  0.6650 -0.0121
   9723SM  H14S13133   5.209   0.690  13.832  1.6075 -0.5011  1.3740
   9723SM  H14T13134   5.233   0.558  13.700  0.7457 -0.1113  0.2431
   9723SM  C15S13135   5.139   0.476  13.859  0.4768 -0.9743  0.6894
   9723SM  H15S13136   5.098   0.395  13.795  1.0489 -0.6177 -0.1402
   9723SM  H15T13137   5.066   0.498  13.939  1.1524 -1.7401  1.5274
   9723SM  C16S13138   5.271   0.426  13.926  0.5328 -0.2104 -0.3176
   9723SM  H16S13139   5.357   0.417  13.856  0.0222  0.3961 -1.0361
   9723SM  H16T13140   5.250   0.330  13.978  2.6641  0.1557  1.3891
   9723SM  C17S13141   5.331   0.522  14.034 -0.3368  0.1901  0.0009
   9723SM  H17S13142   5.354   0.457  14.121 -0.6925 -1.2685 -0.9629
   9723SM  H17T13143   5.260   0.590  14.087  0.7973  0.4129  1.2886
   9723SM  C18S13144   5.454   0.608  13.994 -0.3134 -0.6378 -0.1584
   9723SM  H18S13145   5.416   0.702  13.949  1.0776  0.3168  0.5811
   9723SM  H18T13146   5.518   0.561  13.916  0.1630 -0.3140  0.0301
   9723SM  H18U13147   5.515   0.630  14.085 -1.1957  1.3280 -0.0047
   9723SM   C1F13148   4.832   0.967  13.398 -0.0965 -0.9241 -0.3864
   9723SM    OF13149   4.885   0.887  13.319  0.2387  0.8584 -0.3797
   9723SM   C2F13150   4.740   0.929  13.512 -0.5138  0.6411  0.4084
   9723SM   H2F13151   4.649   0.992  13.512 -2.4647 -1.8950 -2.1920
   9723SM   H2G13152   4.795   0.950  13.606 -0.0824 -1.1014  0.5832
   9723SM   C3F13153   4.695   0.784  13.500  0.8228 -0.6796 -0.6176
   9723SM   H3F13154   4.777   0.710  13.489  0.4822 -0.9882 -1.1255
   9723SM   H3G13155   4.627   0.780  13.412 -0.6290  2.8342  0.1586
   9723SM   C4F13156   4.603   0.750  13.622  0.0107 -0.2266 -0.0092
   9723SM   H4F13157   4.520   0.822  13.637 -1.0191 -0.9281 -1.9481
   9723SM   H4G13158   4.658   0.759  13.718  0.6996 -1.0540 -0.3072
   9723SM   C5F13159   4.536   0.611  13.605 -0.0477  0.0433 -0.1607
   9723SM   H5F13160   4.450   0.611  13.535  0.1450 -0.4077 -0.3948
   9723SM   H5G13161   4.498   0.592  13.708  1.4588  0.8124  0.5833
   9723SM   C6F13162   4.639   0.498  13.582  0.0908 -0.2987  0.4419
   9723SM   H6F13163   4.703   0.507  13.672 -0.5067  0.3931  0.8076
   9723SM   H6G13164   4.694   0.511  13.486 -1.4941 -1.2806 -0.6469
   9723SM   C7F13165   4.576   0.354  13.573 -0.5885 -0.0083  0.6853
   9723SM   H7F13166   4.503   0.359  13.490 -1.9318  0.3217  1.8577
   9723SM   H7G13167   4.517   0.334  13.665 -1.9315  1.5395  0.2080
   9723SM   C8F13168   4.679   0.241  13.556  0.3489  0.6527 -0.3256
   9723SM   H8F13169   4.723   0.215  13.655 -1.2358  2.2066  0.8450
   9723SM   H8G13170   4.758   0.277  13.487  0.7160  0.3220 -0.0842
   9723SM   C9F13171   4.605   0.119  13.499 -0.0014 -0.3610  0.0634
   9723SM   H9F13172   4.609   0.131  13.388  0.1703  1.0035  0.2046
   9723SM   H9G13173   4.499   0.122  13.531 -0.8427 -1.4595 -2.3519
   9723SM  C10F13174   4.682  -0.012  13.518  0.4765  0.1368 -0.2144
   9723SM  H10F13175   4.627  -0.096  13.471 -0.3133  1.2057 -1.2599
   9723SM  H10G13176   4.687  -0.031  13.627 -1.4849 -1.1090 -0.3005
   9723SM  C11F13177   4.826  -0.010  13.465  0.3654  0.3808 -0.1655
   9723SM  H11F13178   4.877   0.083  13.497  1.8920  0.0507 -1.5441
   9723SM  H11G13179   4.819  -0.026  13.355 -0.7742  1.8285 -0.3279
   9723SM  C12F13180   4.908  -0.126  13.513  0.3300 -0.0707 -0.3895
   9723SM  H12F13181   4.997  -0.127  13.447  0.6352  1.7132 -0.0545
   9723SM  H12G13182   4.864  -0.227  13.494 -0.7763 -0.5152  3.5348
   9723SM  C13F13183   4.947  -0.122  13.660 -0.0136  0.5833  0.5892
   9723SM  H13F13184   4.999  -0.220  13.672  0.4003  0.3512 -2.4171
   9723SM  H13G13185   4.854  -0.120  13.721  0.4413  0.9499  1.2906
   9723SM  C14F13186   5.020   0.007  13.701  0.4138 -0.2433  0.2366
   9723SM  H14F13187   4.947   0.090  13.697 -0.3987 -0.9520  0.1654
   9723SM  H14G13188   5.109   0.036  13.642 -0.7372  1.3373 -0.7771
   9723SM  C15F13189   5.067   0.008  13.843 -0.2180 -0.3138 -0.3871
   9723SM  H15F13190   5.150   0.081  13.838 -0.6626  0.1337 -1.3286
   9723SM  H15G13191   5.102  -0.090  13.883  0.2745  1.0386  2.8178
   9723SM  C16F13192   4.961   0.051  13.945  0.4956  0.9557  0.6140
   9723SM  H16F13193   5.020   0.039  14.038  2.1827 -0.7480 -0.6122
   9723SM  H16G13194   4.872  -0.015  13.948  0.7876  0.2909 -2.3428
   9723SM  C17F13195   4.929   0.197  13.935  0.1165 -0.1529  0.1962
   9723SM  H17F13196   4.936   0.231  13.830  0.0827  0.0202  0.2508
   9723SM  H17G13197   4.998   0.262  13.993  0.5572  0.0049 -0.4983
   9723SM  C18F13198   4.792   0.233  13.973  0.2782  0.0568  0.2821
   9723SM  H18F13199   4.773   0.211  14.081  3.4637  2.5084  1.4774
   9723SM  H18G13200   4.714   0.182  13.911 -1.1400 -2.1554  3.5651
   9723SM  C19F13201   4.765   0.383  13.950 -0.1328  0.2774  0.6915
   9723SM  H19F13202   4.805   0.425  13.855  0.1242 -1.6959 -0.1106
   9723SM  H19G13203   4.823   0.436  14.029 -2.9920  1.0164  2.4642
   9723SM  C20F13204   4.617   0.433  13.981 -0.0426  0.3935 -0.2536
   9723SM  H20F13205   4.597   0.396  14.084 -0.8576  2.8620  0.5462
   9723SM  H20G13206   4.544   0.386  13.913 -0.1309  0.9864 -0.5715
   9723SM  C21F13207   4.590   0.583  13.989 -0.6702  0.5622  0.2493
   9723SM  H21F13208   4.485   0.594  14.026 -2.4557 -1.3093 -3.6591
   9723SM  H21G13209   4.591   0.635  13.891 -2.7297 -0.3906 -0.3434
   9723SM  C22F13210   4.683   0.673  14.076  0.1462  0.8273  0.0217
   9723SM  H22F13211   4.723   0.622  14.166 -0.1594  0.6997  0.0838
   9723SM  H22G13212   4.630   0.768  14.100 -1.5438  0.5674 -2.2593
   9723SM  C23F13213   4.797   0.723  13.996  0.3891  1.1087  0.4279
   9723SM  H23F13214   4.764   0.796  13.919 -1.8349  1.4072  1.5722
   9723SM  H23G13215   4.859   0.644  13.948  1.2625  2.3647 -0.5894
   9723SM  H23H13216   4.858   0.793  14.058  1.0489  2.4606 -1.6218
   9823SM     N13217   7.898   8.360  12.317 -0.4104  0.0648 -1.4253
   9823SM   C1513218   7.759   8.360  12.375 -0.2703  0.2022 -0.4104
   9823SM  H15A13219   7.732   8.266  12.421  1.0468 -0.3160 -0.6376
   9823SM  H15B13220   7.683   8.404  12.313  0.2719  0.8067 -0.6596
   9823SM  H15C13221   7.762   8.419  12.465 -1.6014 -0.2406 -0.0574
   9823SM   C1413222   7.904   8.265  12.207  0.1138  0.5822 -0.1262
   9823SM  H14A13223   7.815   8.281  12.149  0.9077 -0.4092 -1.6856
   9823SM  H14B13224   7.901   8.166  12.250  0.5632 -0.3767 -2.1603
   9823SM  H14C13225   7.988   8.291  12.144  1.0990 -0.6789  0.6077
   9823SM   C1313226   7.923   8.500  12.268  0.3131 -0.1560  0.5078
   9823SM  H13A13227   8.012   8.513  12.208  1.2489 -1.2018  1.5942
   9823SM  H13B13228   7.936   8.566  12.353  1.8967 -0.2529  0.3658
   9823SM  H13C13229   7.840   8.528  12.206  1.4477  0.6859 -0.6871
   9823SM   C1213230   7.999   8.330  12.431 -0.0326 -0.4070 -0.3811
   9823SM  H12A13231   8.092   8.314  12.378 -0.6950 -0.9785 -1.3913
   9823SM  H12B13232   7.976   8.238  12.482 -0.1943  0.0566  0.3958
   9823SM   C1113233   8.023   8.442  12.541  0.1145 -0.9971 -0.7313
   9823SM  H11A13234   8.074   8.530  12.497 -0.5509 -0.7080 -0.9313
   9823SM  H11B13235   8.083   8.406  12.627 -1.0813 -0.0644  0.5175
   9823SM     P13236   7.880   8.595  12.700  0.0810 -0.0182  0.1132
   9823SM   O1313237   7.948   8.718  12.645  0.1340 -0.5304 -0.0027
   9823SM   O1413238   7.735   8.615  12.724  0.1325 -0.1302  0.4678
   9823SM   O1113239   7.946   8.555  12.835 -0.2162 -0.0943  0.5359
   9823SM   O1213240   7.895   8.477  12.600  0.4796 -0.4544 -0.3711
   9823SM   C1S13241   7.892   8.458  12.923  0.8558  0.2204  0.3542
   9823SM   H1S13242   7.915   8.358  12.881  1.0550 -0.2802  1.6206
   9823SM   H1T13243   7.783   8.472  12.941  1.0114  0.9997  0.7241
   9823SM    NF13244   7.912   8.337  13.135  0.3442  0.5115 -0.2203
   9823SM   HNF13245   7.846   8.361  13.206  0.1526 -0.3202 -0.1050
   9823SM   C2S13246   7.957   8.458  13.066 -0.0285 -0.3016 -0.1941
   9823SM   H2S13247   8.066   8.454  13.046  0.2247  0.3403  1.0051
   9823SM   C3S13248   7.923   8.588  13.148 -0.0981  0.1575  0.4157
   9823SM   H3S13249   7.814   8.589  13.164 -0.2205  0.2719 -0.3594
   9823SM    O313250   7.936   8.711  13.066 -0.2717  0.3648  0.1566
   9823SM   HO313251   7.908   8.678  12.980 -2.7072 -1.5837  1.5419
   9823SM   C4S13252   7.995   8.602  13.278 -0.2010  0.7065 -0.3371
   9823SM   H4S13253   8.101   8.574  13.283 -1.3331 -4.4011  1.7859
   9823SM   C5S13254   7.935   8.618  13.398  0.1748 -0.3241  0.2047
   9823SM   H5S13255   7.825   8.621  13.404  0.2322  0.4207  1.0096
   9823SM   C6S13256   8.011   8.631  13.528 -0.1236 -0.1368  0.0082
   9823SM   H6S13257   7.991   8.733  13.566 -3.7824 -0.8082  0.2826
   9823SM   H6T13258   8.121   8.614  13.525 -0.1982 -1.5166  2.5441
   9823SM   C7S13259   7.972   8.531  13.632  0.0734  0.7086 -0.3431
   9823SM   H7S13260   8.047   8.501  13.708 -1.4162 -2.0397  0.2011
   9823SM   H7T13261   7.937   8.435  13.587 -1.4029  0.1878  1.7236
   9823SM   C8S13262   7.842   8.571  13.717 -0.3118  0.2944  0.1293
   9823SM   H8S13263   7.753   8.547  13.656 -0.0595 -1.8053  0.5011
   9823SM   H8T13264   7.849   8.681  13.732 -1.5389  0.3244  0.5934
   9823SM   C9S13265   7.836   8.501  13.847 -0.1644 -0.2535 -0.0998
   9823SM   H9S13266   7.866   8.395  13.836 -0.1212 -0.8545  4.2103
   9823SM   H9T13267   7.732   8.496  13.887 -0.5029  0.3426 -0.8630
   9823SM  C10S13268   7.928   8.553  13.963 -0.5884 -0.1303  0.5282
   9823SM  H10S13269   7.914   8.664  13.967  0.2069  0.0843 -1.5482
   9823SM  H10T13270   8.035   8.536  13.943 -0.2859  0.4706  1.5406
   9823SM  C11S13271   7.918   8.480  14.099 -0.3121 -0.2585 -0.5803
   9823SM  H11S13272   7.972   8.382  14.099  2.2353  1.0601  0.5118
   9823SM  H11T13273   7.813   8.469  14.132  0.3401 -3.0203  0.9023
   9823SM  C12S13274   7.995   8.554  14.214  0.0432  0.0268  0.0038
   9823SM  H12S13275   7.921   8.631  14.247  0.7780  1.0612 -0.7273
   9823SM  H12T13276   8.080   8.618  14.185 -0.2570  1.7756  2.5950
   9823SM  C13S13277   8.034   8.448  14.326  0.0063  0.0533  0.3113
   9823SM  H13S13278   8.131   8.399  14.304  1.0264  1.6324  1.0755
   9823SM  H13T13279   7.943   8.384  14.330 -1.2462  1.7349  0.0628
   9823SM  C14S13280   8.047   8.508  14.465 -0.2878 -0.1444 -0.4300
   9823SM  H14S13281   8.067   8.617  14.458 -0.6949  0.0803  1.4598
   9823SM  H14T13282   8.140   8.470  14.511 -1.5619 -0.1538  2.3078
   9823SM  C15S13283   7.924   8.487  14.561  0.7673 -0.0450 -0.3477
   9823SM  H15S13284   7.883   8.385  14.549  0.0687  0.1851  0.0154
   9823SM  H15T13285   7.837   8.547  14.527  0.3414  0.1245  0.9791
   9823SM  C16S13286   7.947   8.531  14.703  0.0630  0.2007 -0.9296
   9823SM  H16S13287   8.003   8.627  14.711  1.7548 -0.8514  1.2239
   9823SM  H16T13288   8.009   8.454  14.755 -1.3206  0.2475  0.9034
   9823SM  C17S13289   7.821   8.548  14.781  0.0538  0.3756 -0.5065
   9823SM  H17S13290   7.754   8.630  14.748  1.8657  1.2729 -2.1071
   9823SM  H17T13291   7.843   8.586  14.883 -1.3604 -2.4604  0.9898
   9823SM  C18S13292   7.745   8.419  14.798 -0.0189  0.3162 -0.3465
   9823SM  H18S13293   7.706   8.381  14.701 -0.6153 -0.7552  0.2920
   9823SM  H18T13294   7.673   8.440  14.880 -0.7310  1.0003 -1.1249
   9823SM  H18U13295   7.820   8.347  14.837 -1.3628 -0.4852  0.8542
   9823SM   C1F13296   7.945   8.212  13.101  0.3798  0.4188 -0.2767
   9823SM    OF13297   8.012   8.187  13.002  0.1342  0.1716 -0.2150
   9823SM   C2F13298   7.891   8.096  13.183 -0.4571  0.0166 -0.3218
   9823SM   H2F13299   7.850   8.013  13.122 -0.4618 -1.4885  1.6523
   9823SM   H2G13300   7.814   8.129  13.255  0.6588  0.2268  0.8056
   9823SM   C3F13301   8.013   8.041  13.268 -0.6466  0.8303 -0.2222
   9823SM   H3F13302   8.088   8.001  13.197 -1.3466  0.5835 -0.8279
   9823SM   H3G13303   7.972   7.958  13.329  0.5329 -1.5633 -2.4746
   9823SM   C4F13304   8.066   8.143  13.371 -0.2988 -0.7528  0.1698
   9823SM   H4F13305   7.984   8.181  13.435 -1.6016 -1.1008 -1.2228
   9823SM   H4G13306   8.115   8.228  13.317  0.2193 -0.1239  1.5891
   9823SM   C5F13307   8.174   8.098  13.472  0.2038 -0.6070 -0.5331
   9823SM   H5F13308   8.266   8.082  13.412  0.6408 -1.9974  0.4640
   9823SM   H5G13309   8.143   8.000  13.513 -1.9250 -1.4140 -3.6216
   9823SM   C6F13310   8.195   8.199  13.587  0.4118  0.6922  0.1852
   9823SM   H6F13311   8.104   8.230  13.641 -0.9700  2.3633 -2.8429
   9823SM   H6G13312   8.222   8.291  13.531 -2.7378  0.5787 -1.7583
   9823SM   C7F13313   8.297   8.147  13.691  0.1768  0.6053  0.0843
   9823SM   H7F13314   8.395   8.152  13.640  1.6289  1.5298  2.7517
   9823SM   H7G13315   8.273   8.039  13.703 -2.2942  1.0819 -0.0483
   9823SM   C8F13316   8.300   8.236  13.815  0.1814 -0.1815  0.1570
   9823SM   H8F13317   8.200   8.259  13.858  1.0985  1.1826  1.6746
   9823SM   H8G13318   8.337   8.338  13.791 -0.9219  0.1399 -0.2293
   9823SM   C9F13319   8.385   8.188  13.936 -0.5783  0.6240  0.0692
   9823SM   H9F13320   8.385   8.278  14.002 -1.7225  1.9453 -1.6560
   9823SM   H9G13321   8.490   8.168  13.905 -1.1860 -2.6062 -0.2125
   9823SM  C10F13322   8.324   8.065  13.992  0.1894 -0.7269  0.1236
   9823SM  H10F13323   8.366   7.978  13.936  0.5983 -0.1867 -0.4159
   9823SM  H10G13324   8.216   8.064  13.968  0.4306 -0.8328 -1.0431
   9823SM  C11F13325   8.357   8.046  14.139  0.5364 -0.2303 -0.3434
   9823SM  H11F13326   8.317   7.944  14.159  0.6083 -0.4812 -1.4046
   9823SM  H11G13327   8.319   8.125  14.207  3.7589  0.2535  1.0355
   9823SM  C12F13328   8.510   8.045  14.177 -0.3063 -0.0040 -0.1295
   9823SM  H12F13329   8.541   8.148  14.207 -3.3550  0.9528  0.1253
   9823SM  H12G13330   8.569   8.019  14.087 -0.1649 -0.4745  0.0992
   9823SM  C13F13331   8.544   7.944  14.284  0.0485 -0.4813  0.1101
   9823SM  H13F13332   8.654   7.929  14.284  0.6315  2.6789 -2.8986
   9823SM  H13G13333   8.488   7.851  14.259  1.2419 -1.0100 -0.6408
   9823SM  C14F13334   8.506   7.987  14.432 -0.3797  0.4114  0.2004
   9823SM  H14F13335   8.412   8.042  14.411  0.2822  0.3936 -3.3031
   9823SM  H14G13336   8.584   8.061  14.457  1.4378 -1.1115 -0.7061
   9823SM  C15F13337   8.484   7.875  14.534 -0.9205 -0.5712 -0.5775
   9823SM  H15F13338   8.581   7.821  14.536 -0.1932  0.6728 -1.0826
   9823SM  H15G13339   8.406   7.800  14.510  1.2760 -2.6907 -1.5275
   9823SM  C16F13340   8.442   7.926  14.676  0.4701  0.3653 -0.0639
   9823SM  H16F13341   8.335   7.954  14.687  0.5179  2.1325 -2.8739
   9823SM  H16G13342   8.492   8.025  14.689  1.4829 -0.1246 -0.1929
   9823SM  C17F13343   8.483   7.830  14.791  0.2558 -0.1134  0.3032
   9823SM  H17F13344   8.594   7.821  14.792  0.2694 -0.1926 -0.7856
   9823SM  H17G13345   8.444   7.727  14.776  1.0573 -0.8671  2.8335
   9823SM  C18F13346   8.443   7.883  14.925 -0.2163 -0.1506  0.0253
   9823SM  H18F13347   8.446   7.994  14.927 -0.3956 -0.0668 -2.0992
   9823SM  H18G13348   8.511   7.842  15.003 -1.2519  0.3743  1.2521
   9823SM  C19F13349   8.304   7.835  14.964 -0.3838  0.2597 -0.4434
   9823SM  H19F13350   8.303   7.725  14.979  0.3722  0.5550  2.4575
   9823SM  H19G13351   8.233   7.858  14.882 -1.4673  1.3823  0.7513
   9823SM  C20F13352   8.243   7.901  15.091 -0.6966 -0.0575 -0.5813
   9823SM  H20F13353   8.141   7.856  15.096 -0.2183 -1.3895 -1.9130
   9823SM  H20G13354   8.235   8.011  15.079  0.7371  0.1186 -0.0340
   9823SM  C21F13355   8.315   7.858  15.220 -0.1770  0.1976 -0.3248
   9823SM  H21F13356   8.423   7.886  15.217 -0.3872  1.2752  0.9368
   9823SM  H21G13357   8.328   7.749  15.233  0.2630  0.3473  0.5439
   9823SM  C22F13358   8.261   7.921  15.343 -0.4477 -0.1277 -1.0343
   9823SM  H22F13359   8.161   7.875  15.359  0.1187 -0.9626  0.2920
   9823SM  H22G13360   8.237   8.028  15.325 -0.1131 -0.3008 -2.7333
   9823SM  C23F13361   8.346   7.905  15.471 -0.2246  0.6300  0.1268
   9823SM  H23F13362   8.352   7.797  15.496 -1.6700 -0.4065 -3.3265
   9823SM  H23G13363   8.299   7.952  15.560  0.9373 -0.9056  1.6066
   9823SM  H23H13364   8.448   7.947  15.455 -0.5132  1.3733  0.1966
   9923SM     N13365   0.521   8.533  12.936  0.1982 -0.3115 -0.4010
   9923SM   C1513366   0.502   8.446  12.817  0.0268 -0.3412 -0.0175
   9923SM  H15A13367   0.399   8.415  12.806 -0.8073  2.2803 -0.2883
   9923SM  H15B13368   0.564   8.357  12.817  1.0842  0.3669  0.3785
   9923SM  H15C13369   0.524   8.493  12.722 -1.0087 -0.6997 -0.4432
   9923SM   C1413370   0.446   8.661  12.906 -0.0583 -0.1780 -0.0184
   9923SM  H14A13371   0.489   8.712  12.821  0.7799 -0.9655 -0.0798
   9923SM  H14B13372   0.442   8.735  12.985  0.5623 -0.4209  0.2557
   9923SM  H14C13373   0.343   8.638  12.886 -0.2888 -0.9520  1.8590
   9923SM   C1313374   0.447   8.473  13.056 -0.4024  0.2676 -0.1456
   9923SM  H13A13375   0.349   8.447  13.020 -0.3209 -0.9335  0.4901
   9923SM  H13B13376   0.446   8.532  13.146 -2.8364  0.2511 -0.0979
   9923SM  H13C13377   0.477   8.370  13.065 -2.1522 -0.3215 -0.6530
   9923SM   C1213378   0.668   8.573  12.952 -0.4551 -0.3987 -0.1697
   9923SM  H12A13379   0.712   8.601  12.858  0.2077  0.8466  0.4887
   9923SM  H12B13380   0.719   8.483  12.983 -0.0715 -1.3829 -3.3111
   9923SM   C1113381   0.707   8.680  13.056  1.2419 -0.5428 -0.3592
   9923SM  H11A13382   0.652   8.774  13.031  0.5388 -0.9852 -0.5038
   9923SM  H11B13383   0.814   8.702  13.035  1.6332 -1.8237  0.2310
   9923SM     P13384   0.762   8.565  13.285 -0.4813 -0.0912 -0.1901
   9923SM   O1313385   0.691   8.435  13.300 -0.2463 -0.1043 -0.2840
   9923SM   O1413386   0.903   8.568  13.242  0.0957  0.4437 -0.1692
   9923SM   O1113387   0.748   8.647  13.419 -0.5421  0.8003  0.1560
   9923SM   O1213388   0.671   8.656  13.194 -0.0959 -0.0337  0.7474
   9923SM   C1S13389   0.618   8.665  13.483 -0.5727  0.0834  0.2444
   9923SM   H1S13390   0.544   8.586  13.457 -1.1885  0.7046  0.0902
   9923SM   H1T13391   0.579   8.764  13.454  0.2691  0.1809 -0.6022
   9923SM    NF13392   0.501   8.664  13.699 -0.0423  0.0937 -0.5088
   9923SM   HNF13393   0.478   8.757  13.729 -2.0070 -0.8274  1.0703
   9923SM   C2S13394   0.630   8.654  13.640 -0.1133 -0.7726  0.9481
   9923SM   H2S13395   0.663   8.550  13.661  0.5429 -0.5517  1.0362
   9923SM   C3S13396   0.727   8.760  13.692 -0.7479 -0.0401 -0.0860
   9923SM   H3S13397   0.693   8.866  13.685  0.2789  0.2834 -0.3441
   9923SM    O313398   0.857   8.756  13.630 -0.0520 -0.3017 -0.5521
   9923SM   HO313399   0.841   8.728  13.540 -1.2814 -2.1938  0.1817
   9923SM   C4S13400   0.754   8.742  13.846 -0.4315 -0.6245  0.1475
   9923SM   H4S13401   0.676   8.805  13.891 -0.6444 -1.3311  0.7841
   9923SM   C5S13402   0.839   8.674  13.925 -0.2022 -0.3663  0.2602
   9923SM   H5S13403   0.914   8.610  13.876 -1.3060 -1.1536 -0.4617
   9923SM   C6S13404   0.833   8.671  14.077  0.1642 -0.1294  0.4244
   9923SM   H6S13405   0.924   8.718  14.121  1.7385 -3.6179  1.2202
   9923SM   H6T13406   0.824   8.569  14.118 -0.4554  0.2563  1.2634
   9923SM   C7S13407   0.711   8.741  14.152  0.2097  0.3785 -0.2500
   9923SM   H7S13408   0.716   8.846  14.116 -0.9417  0.9868  1.2589
   9923SM   H7T13409   0.731   8.745  14.261 -0.1273  0.8516 -0.2009
   9923SM   C8S13410   0.572   8.680  14.124 -0.0336  0.8240 -0.0550
   9923SM   H8S13411   0.576   8.572  14.152  0.1365  0.1108 -2.5373
   9923SM   H8T13412   0.545   8.676  14.016 -0.7026 -0.3462  0.1290
   9923SM   C9S13413   0.453   8.745  14.203 -0.5953  0.4113  0.5700
   9923SM   H9S13414   0.478   8.853  14.191  2.1105 -0.3081 -0.9765
   9923SM   H9T13415   0.479   8.723  14.309  1.5036  0.2231  0.0594
   9923SM  C10S13416   0.308   8.718  14.158 -0.4033  0.7006 -0.0585
   9923SM  H10S13417   0.316   8.649  14.071 -1.8634 -0.9029  1.0140
   9923SM  H10T13418   0.267   8.814  14.120 -0.9030  0.3735 -0.3599
   9923SM  C11S13419   0.222   8.651  14.256  0.4579  0.3605 -0.1981
   9923SM  H11S13420   0.118   8.663  14.220  0.3987  2.9922  0.6804
   9923SM  H11T13421   0.223   8.699  14.356 -1.7543  0.2594 -0.0852
   9923SM  C12S13422   0.261   8.498  14.262 -0.4571 -0.5402  0.1153
   9923SM  H12S13423   0.369   8.503  14.291 -0.1732 -0.0841 -0.9665
   9923SM  H12T13424   0.244   8.461  14.158 -0.7771 -1.2810  0.4237
   9923SM  C13S13425   0.191   8.423  14.370 -0.8819 -0.1964  0.0249
   9923SM  H13S13426   0.088   8.404  14.334 -1.4379 -1.1259  1.9934
   9923SM  H13T13427   0.186   8.484  14.462 -0.6925  1.7487 -1.1878
   9923SM  C14S13428   0.266   8.299  14.414  1.0238  0.0034 -0.2954
   9923SM  H14S13429   0.206   8.267  14.501  2.0859 -0.9436  0.1132
   9923SM  H14T13430   0.365   8.329  14.455  1.5189  0.4576 -1.7598
   9923SM  C15S13431   0.268   8.194  14.309 -0.1553  0.0308  0.2928
   9923SM  H15S13432   0.336   8.224  14.226 -2.4601  3.0366 -0.6865
   9923SM  H15T13433   0.166   8.175  14.269 -0.3875  0.4006  0.7047
   9923SM  C16S13434   0.332   8.068  14.362  0.2386  0.6925  0.7369
   9923SM  H16S13435   0.258   8.021  14.431 -1.4221  1.0358 -0.7580
   9923SM  H16T13436   0.419   8.097  14.425  0.6355  0.9715  0.0587
   9923SM  C17S13437   0.394   7.977  14.259 -0.0912 -0.0552  0.1814
   9923SM  H17S13438   0.448   7.895  14.311  0.3379 -0.7903 -1.3504
   9923SM  H17T13439   0.482   8.019  14.206  1.2286 -4.3452 -1.4736
   9923SM  C18S13440   0.293   7.924  14.150  0.5240  1.1789 -0.6990
   9923SM  H18S13441   0.273   8.012  14.085 -0.9332  0.8485 -0.7355
   9923SM  H18T13442   0.206   7.878  14.201  1.3072  1.1513  0.6617
   9923SM  H18U13443   0.332   7.847  14.080 -2.7049 -0.5163 -0.8174
   9923SM   C1F13444   0.392   8.590  13.667 -0.3650  0.1635 -0.5031
   9923SM    OF13445   0.400   8.475  13.623 -0.0690  0.0008  0.5415
   9923SM   C2F13446   0.257   8.653  13.690 -0.1591  0.0673 -0.1323
   9923SM   H2F13447   0.255   8.725  13.606  0.7169  0.2571  0.0017
   9923SM   H2G13448   0.243   8.712  13.783 -2.4722 -0.9571  0.2507
   9923SM   C3F13449   0.131   8.560  13.672 -0.1464 -0.0515 -0.1051
   9923SM   H3F13450   0.098   8.514  13.768 -0.5638 -0.2842 -0.3567
   9923SM   H3G13451   0.172   8.478  13.611  2.7803  0.8242  0.5201
   9923SM   C4F13452   0.016   8.630  13.603  0.5601 -0.1120 -0.6909
   9923SM   H4F13453  -0.073   8.562  13.602 -0.6780  1.3055  1.9667
   9923SM   H4G13454   0.040   8.670  13.502  0.6023 -1.1418 -1.1123
   9923SM   C5F13455  -0.026   8.751  13.688 -0.1872 -0.6788  0.1747
   9923SM   H5F13456  -0.093   8.822  13.636  1.3328  1.5494  1.0544
   9923SM   H5G13457   0.059   8.822  13.699  1.2467 -2.1320 -0.9419
   9923SM   C6F13458  -0.084   8.713  13.825 -0.7393  0.2866 -0.4565
   9923SM   H6F13459  -0.007   8.690  13.902 -0.3246  1.4864 -0.4840
   9923SM   H6G13460  -0.143   8.620  13.811  0.3282 -0.3101 -1.0935
   9923SM   C7F13461  -0.170   8.821  13.885 -0.3048  0.2403  0.7744
   9923SM   H7F13462  -0.252   8.853  13.817  1.1365  0.5788 -0.8780
   9923SM   H7G13463  -0.107   8.910  13.903 -0.5855  0.3753  1.0910
   9923SM   C8F13464  -0.236   8.770  14.015  0.0890 -0.2371  0.0060
   9923SM   H8F13465  -0.270   8.666  13.999 -0.6269 -0.0035 -0.0330
   9923SM   H8G13466  -0.325   8.834  14.036  0.6578  1.0455 -1.2611
   9923SM   C9F13467  -0.150   8.763  14.147  0.0359 -0.0664  0.4474
   9923SM   H9F13468  -0.109   8.861  14.178  0.5519  0.0709 -0.6298
   9923SM   H9G13469  -0.069   8.695  14.114  0.9227 -0.4812  3.2008
   9923SM  C10F13470  -0.222   8.686  14.263  0.3664 -0.5022 -0.9371
   9923SM  H10F13471  -0.246   8.583  14.228 -1.3626  0.0111 -1.3620
   9923SM  H10G13472  -0.312   8.746  14.288  2.0332  2.0521 -0.6720
   9923SM  C11F13473  -0.141   8.698  14.393 -0.7269 -0.4544  0.2523
   9923SM  H11F13474  -0.104   8.802  14.403  0.1841 -0.8422  1.0966
   9923SM  H11G13475  -0.056   8.627  14.391  0.9763  1.4931 -1.1822
   9923SM  C12F13476  -0.225   8.671  14.512 -0.0010 -0.3199  0.5864
   9923SM  H12F13477  -0.280   8.574  14.519 -1.0528  0.1476 -0.8976
   9923SM  H12G13478  -0.313   8.739  14.514  1.3222  1.4540 -0.2791
   9923SM  C13F13479  -0.154   8.710  14.640  0.6743  0.5533  0.0695
   9923SM  H13F13480  -0.223   8.742  14.721 -1.1117  0.2470 -1.2534
   9923SM  H13G13481  -0.087   8.795  14.619  0.5295  0.7941  0.5680
   9923SM  C14F13482  -0.071   8.589  14.695  0.1650 -0.0631  0.4175
   9923SM  H14F13483  -0.008   8.546  14.614  1.7286  0.7880  1.1329
   9923SM  H14G13484  -0.155   8.522  14.722 -1.1297  0.5360 -1.8713
   9923SM  C15F13485   0.005   8.609  14.827  0.1230 -0.1492  0.4880
   9923SM  H15F13486   0.052   8.509  14.840 -1.2185 -0.7404  0.9995
   9923SM  H15G13487  -0.066   8.637  14.907 -0.6981  2.1628 -0.9414
   9923SM  C16F13488   0.113   8.718  14.821 -0.0592  0.4914 -0.3969
   9923SM  H16F13489   0.166   8.721  14.918  1.5098  0.6173 -1.2304
   9923SM  H16G13490   0.059   8.815  14.808 -2.6465 -0.9013 -0.6760
   9923SM  C17F13491   0.225   8.688  14.720  1.0047 -0.1859 -0.0906
   9923SM  H17F13492   0.178   8.645  14.629  0.3174 -0.1565  0.2487
   9923SM  H17G13493   0.280   8.602  14.766  0.5564  0.0481  0.9104
   9923SM  C18F13494   0.315   8.801  14.697 -0.3230  0.2180  0.3614
   9923SM  H18F13495   0.364   8.833  14.792 -1.0318  0.4275  0.6653
   9923SM  H18G13496   0.250   8.884  14.662 -0.7281 -0.7674 -1.3362
   9923SM  C19F13497   0.427   8.787  14.586 -0.1492  0.5438 -0.2538
   9923SM  H19F13498   0.477   8.885  14.577 -0.0571  0.6147  0.8578
   9923SM  H19G13499   0.367   8.767  14.495 -1.3473 -1.0876  0.8253
   9923SM  C20F13500   0.522   8.672  14.619 -0.1103  0.0910  0.0756
   9923SM  H20F13501   0.596   8.683  14.537 -1.1904  1.2039 -0.7907
   9923SM  H20G13502   0.470   8.575  14.605  0.0567  0.0543 -0.3209
   9923SM  C21F13503   0.590   8.682  14.756  0.6465  0.7546 -0.6796
   9923SM  H21F13504   0.664   8.600  14.762  1.5916  1.6172 -0.3727
   9923SM  H21G13505   0.517   8.651  14.835  1.2928 -1.2188 -0.8109
   9923SM  C22F13506   0.662   8.814  14.786 -0.3901  0.0061  0.1926
   9923SM  H22F13507   0.721   8.797  14.879  0.0715 -0.1527 -0.1244
   9923SM  H22G13508   0.592   8.896  14.812 -2.1427 -2.5525  4.6816
   9923SM  C23F13509   0.761   8.854  14.674 -0.4642  0.6698 -0.1826
   9923SM  H23F13510   0.714   8.908  14.589  2.9333  1.3144 -1.8316
   9923SM  H23G13511   0.808   8.764  14.629 -1.6497 -0.1079  0.1081
   9923SM  H23H13512   0.839   8.925  14.710  0.8527 -0.8896  0.1671
  10023SM     N13513   0.105   1.823  13.151 -0.4094  0.2145  0.0522
  10023SM   C1513514   0.181   1.932  13.079  0.0539  0.1008  0.4341
  10023SM  H15A13515   0.114   2.014  13.060 -0.1837 -0.1389  0.2332
  10023SM  H15B13516   0.232   1.899  12.990 -2.6898 -3.4796 -0.0350
  10023SM  H15C13517   0.258   1.970  13.145 -0.9762  0.7969  1.2811
  10023SM   C1413518   0.210   1.727  13.202  0.1865 -0.4036  1.0110
  10023SM  H14A13519   0.177   1.639  13.256  0.2167 -1.5054 -0.6855
  10023SM  H14B13520   0.275   1.786  13.266 -2.0759  1.5283  1.6800
  10023SM  H14C13521   0.258   1.686  13.115 -1.9689 -2.1920  0.5823
  10023SM   C1313522   0.031   1.887  13.266 -0.8285 -0.0451  0.2774
  10023SM  H13A13523   0.095   1.956  13.319  0.3624 -0.1882 -0.9355
  10023SM  H13B13524  -0.003   1.816  13.339  0.4767 -0.2828  0.6740
  10023SM  H13C13525  -0.059   1.928  13.224 -0.4088 -0.7521 -1.4012
  10023SM   C1213526   0.008   1.753  13.068  0.0699  0.2301 -0.3220
  10023SM  H12A13527  -0.046   1.685  13.132  0.6693  2.4360  2.7851
  10023SM  H12B13528   0.055   1.681  13.003 -0.2738  0.9071 -1.3407
  10023SM   C1113529  -0.093   1.845  12.992  0.4235  0.2583  0.2074
  10023SM  H11A13530  -0.152   1.778  12.927  1.5165  1.2572 -1.9029
  10023SM  H11B13531  -0.041   1.900  12.911  1.5987 -0.7787  0.2103
  10023SM     P13532  -0.197   2.072  13.045 -0.1111 -0.0204  0.1050
  10023SM   O1313533  -0.064   2.136  13.033  0.2785 -0.1662  0.3782
  10023SM   O1413534  -0.286   2.081  12.926 -0.2878 -0.4655  0.3233
  10023SM   O1113535  -0.267   2.134  13.175 -0.2616 -0.3205 -0.2541
  10023SM   O1213536  -0.177   1.920  13.077 -0.0790  0.3518 -0.2890
  10023SM   C1S13537  -0.240   2.081  13.305  0.3722  0.3661  0.7367
  10023SM   H1S13538  -0.143   2.117  13.345  1.7383 -0.8226 -1.3507
  10023SM   H1T13539  -0.238   1.970  13.305  1.5143  0.3494 -1.2026
  10023SM    NF13540  -0.308   2.074  13.548  0.4090  0.3725  1.0007
  10023SM   HNF13541  -0.336   1.980  13.569  0.6635 -0.7603 -2.9799
  10023SM   C2S13542  -0.347   2.116  13.414  0.5176 -0.5725 -0.0541
  10023SM   H2S13543  -0.341   2.227  13.409  2.2334 -0.6596 -0.8659
  10023SM   C3S13544  -0.486   2.068  13.365  0.2917  0.5746  0.1453
  10023SM   H3S13545  -0.476   1.960  13.339  1.4469  0.4684  0.9395
  10023SM    O313546  -0.520   2.130  13.243  0.3957 -0.1664  0.6598
  10023SM   HO313547  -0.436   2.162  13.209 -0.0126  1.1267  0.8148
  10023SM   C4S13548  -0.599   2.091  13.462  0.4025  0.3734 -0.3473
  10023SM   H4S13549  -0.638   2.194  13.457  1.9899  1.0213 -0.1553
  10023SM   C5S13550  -0.663   1.997  13.533 -0.1917 -0.6941  0.2045
  10023SM   H5S13551  -0.628   1.893  13.524  0.7897 -0.6434  2.6433
  10023SM   C6S13552  -0.785   2.025  13.616  0.7004 -0.0665  0.1573
  10023SM   H6S13553  -0.872   1.964  13.585  0.6542  0.1290 -0.1009
  10023SM   H6T13554  -0.823   2.130  13.609 -0.5609 -0.6074 -1.9819
  10023SM   C7S13555  -0.769   1.985  13.771 -0.1224  0.3048 -0.0734
  10023SM   H7S13556  -0.672   2.025  13.808  1.2708 -1.3373 -1.7368
  10023SM   H7T13557  -0.763   1.875  13.778 -1.1957  0.2350  0.0001
  10023SM   C8S13558  -0.874   2.042  13.872 -0.3135  0.4848  0.7217
  10023SM   H8S13559  -0.977   2.039  13.830 -0.3759 -1.1010  0.9147
  10023SM   H8T13560  -0.861   2.149  13.897 -0.8056  0.2860  1.9187
  10023SM   C9S13561  -0.890   1.977  14.010 -0.5594 -0.5412 -0.4031
  10023SM   H9S13562  -0.794   2.010  14.054  1.2330 -1.3114 -3.3964
  10023SM   H9T13563  -0.897   1.866  13.998 -1.3964 -0.4500 -0.8338
  10023SM  C10S13564  -0.992   2.033  14.110 -1.2301  0.1452  0.1819
  10023SM  H10S13565  -1.092   2.014  14.064 -0.8425 -0.4807 -0.4209
  10023SM  H10T13566  -0.984   2.142  14.128  0.0210  0.1962 -0.5680
  10023SM  C11S13567  -0.963   1.971  14.252 -0.7722  0.1088  0.2959
  10023SM  H11S13568  -0.861   2.009  14.278 -0.4112 -1.0979  0.7256
  10023SM  H11T13569  -0.969   1.860  14.249 -4.2092  0.0949  2.3707
  10023SM  C12S13570  -1.061   2.027  14.352  0.7472  0.0249 -0.5554
  10023SM  H12S13571  -1.037   2.134  14.368 -1.5617  0.3378  1.4277
  10023SM  H12T13572  -1.034   1.985  14.452  1.4014  2.7127  0.4773
  10023SM  C13S13573  -1.208   2.014  14.305  0.1730 -0.3145  0.1104
  10023SM  H13S13574  -1.227   1.923  14.244 -0.1294 -1.1336  1.3956
  10023SM  H13T13575  -1.219   2.107  14.246  0.8527 -0.3365 -0.0646
  10023SM  C14S13576  -1.319   1.999  14.416 -0.5587  0.3648  0.3327
  10023SM  H14S13577  -1.294   2.070  14.498 -0.4822 -1.2372  1.7540
  10023SM  H14T13578  -1.303   1.899  14.461  0.9788  0.5710  0.2862
  10023SM  C15S13579  -1.463   1.998  14.368  1.1752  0.3910 -0.6566
  10023SM  H15S13580  -1.490   1.920  14.294 -0.7683 -0.3320  0.7310
  10023SM  H15T13581  -1.486   2.097  14.321  0.2002  0.3812 -0.2049
  10023SM  C16S13582  -1.573   1.981  14.480 -0.5157 -0.3526 -0.4484
  10023SM  H16S13583  -1.668   2.015  14.432 -0.3042  1.7773  0.5293
  10023SM  H16T13584  -1.561   2.058  14.559  0.5290  2.0626 -2.8109
  10023SM  C17S13585  -1.592   1.845  14.546 -0.1061 -0.1031 -0.1160
  10023SM  H17S13586  -1.608   1.784  14.455  1.6737  1.6276 -1.6773
  10023SM  H17T13587  -1.685   1.848  14.607  1.0208 -1.0192  1.7392
  10023SM  C18S13588  -1.482   1.796  14.637  0.4441 -0.9552 -0.3267
  10023SM  H18S13589  -1.407   1.737  14.579  0.6528 -0.5442 -0.4744
  10023SM  H18T13590  -1.522   1.736  14.722 -2.3928 -2.1306 -2.3319
  10023SM  H18U13591  -1.438   1.884  14.687  0.3978 -2.6312  2.9582
  10023SM   C1F13592  -0.210   2.137  13.613 -0.1024 -0.5665 -0.3592
  10023SM    OF13593  -0.176   2.251  13.579 -0.3284 -0.4279 -0.2961
  10023SM   C2F13594  -0.137   2.070  13.731  0.7268 -0.2795  0.6710
  10023SM   H2F13595  -0.030   2.054  13.704  1.2362  1.4423  1.5394
  10023SM   H2G13596  -0.193   1.975  13.746  1.9187 -0.9773  0.8507
  10023SM   C3F13597  -0.141   2.163  13.856  0.1525 -0.3240 -0.3888
  10023SM   H3F13598  -0.083   2.253  13.825  0.8370 -0.2341  1.0649
  10023SM   H3G13599  -0.094   2.118  13.947  0.9049 -1.0397 -1.1118
  10023SM   C4F13600  -0.282   2.210  13.895  0.1591  0.0734  0.2762
  10023SM   H4F13601  -0.326   2.275  13.817  1.9440 -1.2415 -1.9745
  10023SM   H4G13602  -0.265   2.268  13.988 -1.6315 -2.1017  2.0857
  10023SM   C5F13603  -0.379   2.097  13.917 -0.4215 -0.2026 -0.0547
  10023SM   H5F13604  -0.365   2.015  13.843  0.7020 -1.1088  1.1152
  10023SM   H5G13605  -0.484   2.133  13.913 -0.6708 -1.0178 -1.6582
  10023SM   C6F13606  -0.355   2.044  14.062 -0.4505 -0.1309 -0.1031
  10023SM   H6F13607  -0.356   2.127  14.135  0.3128 -0.0486 -0.1750
  10023SM   H6G13608  -0.253   1.999  14.070 -0.4657 -0.3901 -1.1923
  10023SM   C7F13609  -0.456   1.938  14.088 -0.0166 -0.2426  0.0845
  10023SM   H7F13610  -0.465   1.858  14.011 -1.5144  1.6648 -1.8126
  10023SM   H7G13611  -0.553   1.990  14.092  0.1586  0.2087 -1.1076
  10023SM   C8F13612  -0.441   1.876  14.235  0.0532  0.0362  0.5183
  10023SM   H8F13613  -0.471   1.956  14.305 -0.5727  1.8507 -1.6889
  10023SM   H8G13614  -0.332   1.857  14.250 -0.1414 -1.1190  0.5690
  10023SM   C9F13615  -0.525   1.754  14.271 -0.6782  0.3706  0.2879
  10023SM   H9F13616  -0.533   1.737  14.380 -1.3854  0.2175  0.2180
  10023SM   H9G13617  -0.478   1.659  14.236 -1.1417  0.0009  0.6631
  10023SM  C10F13618  -0.670   1.758  14.221 -0.3598 -0.0787  0.2645
  10023SM  H10F13619  -0.680   1.805  14.120  0.2711  0.5871  0.5043
  10023SM  H10G13620  -0.728   1.826  14.287 -1.9944 -0.8537 -0.3290
  10023SM  C11F13621  -0.728   1.621  14.216  0.5002  1.4301 -0.0420
  10023SM  H11F13622  -0.742   1.575  14.316  2.9941 -0.9604 -0.6488
  10023SM  H11G13623  -0.660   1.555  14.158 -0.9546  1.4313 -1.8206
  10023SM  C12F13624  -0.859   1.609  14.140  0.2277 -0.9656 -0.9495
  10023SM  H12F13625  -0.851   1.664  14.044 -1.4543 -1.4667 -1.4196
  10023SM  H12G13626  -0.943   1.658  14.194  1.0639  0.2236 -0.6998
  10023SM  C13F13627  -0.894   1.463  14.108  0.3487 -0.3150  0.0483
  10023SM  H13F13628  -0.911   1.404  14.201  1.5966 -1.7665 -0.6061
  10023SM  H13G13629  -0.803   1.419  14.063  0.4781  0.9126 -0.9455
  10023SM  C14F13630  -1.024   1.456  14.031  0.1168  0.8199 -0.2628
  10023SM  H14F13631  -1.024   1.530  13.948  0.6758  0.6239 -0.4413
  10023SM  H14G13632  -1.111   1.487  14.094  0.1003 -0.6608  0.4703
  10023SM  C15F13633  -1.053   1.315  13.986  0.3487  0.7103 -0.5910
  10023SM  H15F13634  -1.052   1.244  14.072 -0.7457  0.9310 -0.3763
  10023SM  H15G13635  -0.973   1.282  13.917 -0.5818 -1.9314 -0.5153
  10023SM  C16F13636  -1.185   1.301  13.906  0.0957 -0.2787 -0.1312
  10023SM  H16F13637  -1.214   1.208  13.852 -1.7981  0.4186 -0.4062
  10023SM  H16G13638  -1.177   1.374  13.822  0.7897  1.0155  1.0181
  10023SM  C17F13639  -1.313   1.338  13.981  0.2756 -0.0856 -0.6304
  10023SM  H17F13640  -1.392   1.379  13.913  0.1393  0.0547 -0.3889
  10023SM  H17G13641  -1.281   1.424  14.044  2.3173 -0.6686 -0.8357
  10023SM  C18F13642  -1.369   1.228  14.070  0.3391 -0.2382 -0.5315
  10023SM  H18F13643  -1.285   1.192  14.134  0.8265 -1.9684 -2.0626
  10023SM  H18G13644  -1.394   1.141  14.007 -2.4127 -0.2586  0.4666
  10023SM  C19F13645  -1.490   1.264  14.155  0.0420  0.4938  0.2937
  10023SM  H19F13646  -1.571   1.327  14.111 -0.7063 -0.8922 -0.4021
  10023SM  H19G13647  -1.452   1.302  14.252  0.8578 -2.6802  1.3527
  10023SM  C20F13648  -1.581   1.137  14.174  0.2641  0.1024 -0.5566
  10023SM  H20F13649  -1.641   1.159  14.265  0.3835  0.4371 -0.5605
  10023SM  H20G13650  -1.524   1.043  14.192 -1.5598 -1.1326 -0.9146
  10023SM  C21F13651  -1.690   1.111  14.067 -0.3704 -0.1446 -0.6835
  10023SM  H21F13652  -1.662   1.022  14.006  2.6304 -1.1339  1.8972
  10023SM  H21G13653  -1.704   1.191  13.991  1.3502  1.3156  0.4776
  10023SM  C22F13654  -1.822   1.077  14.142  0.5848 -0.3636  0.8224
  10023SM  H22F13655  -1.880   1.170  14.159  0.6541  0.2095 -1.6846
  10023SM  H22G13656  -1.820   1.030  14.243 -1.6729  0.6847  1.4223
  10023SM  C23F13657  -1.920   0.998  14.051  0.5616 -0.1511 -0.4400
  10023SM  H23F13658  -2.014   0.984  14.108  0.8299 -1.2598 -0.2619
  10023SM  H23G13659  -1.873   0.899  14.035 -0.0403 -0.5093 -0.0469
  10023SM  H23H13660  -1.929   1.050  13.953  1.2794  1.2615  0.2189
  101CHL1    C313661   2.603   5.163  15.530 -0.0263 -0.5450 -0.2302
  101CHL1    H313662   2.496   5.136  15.517 -0.4938  1.2671 -0.4472
  101CHL1    O313663   2.625   5.197  15.666 -0.5283  0.3700  0.1493
  101CHL1   H3'13664   2.618   5.112  15.710  0.7387  0.3029  0.2393
  101CHL1    C413665   2.698   5.043  15.491 -0.2357 -0.6550 -0.6954
  101CHL1   H4A13666   2.804   5.065  15.515 -0.2716 -0.2031 -0.9444
  101CHL1   H4B13667   2.666   4.960  15.557 -1.2508  1.3545  1.4671
  101CHL1    C513668   2.685   4.996  15.349 -0.1576  0.5135 -0.3974
  101CHL1    C613669   2.650   4.867  15.321  0.2952  1.2807  0.3163
  101CHL1    H613670   2.626   4.784  15.389 -1.6895  0.2601 -1.5240
  101CHL1    C713671   2.650   4.809  15.178 -0.1580  0.2484 -0.5907
  101CHL1   H7A13672   2.714   4.718  15.190  0.1886  0.6585  0.9354
  101CHL1   H7B13673   2.547   4.773  15.160  0.0077 -0.8333  0.4607
  101CHL1    C813674   2.698   4.908  15.072  0.0431 -0.3017 -0.0331
  101CHL1    H813675   2.807   4.921  15.082 -0.2771  4.4591 -0.4262
  101CHL1   C1413676   2.655   4.853  14.933 -0.6661  0.3787  0.0008
  101CHL1   H1413677   2.544   4.849  14.943 -0.7943  1.0824 -1.0343
  101CHL1   C1513678   2.699   4.713  14.903 -0.2325  0.1347  0.3987
  101CHL1  H15A13679   2.805   4.691  14.927 -0.1842 -0.1702 -0.0861
  101CHL1  H15B13680   2.640   4.641  14.964  0.4804 -0.6919  0.1275
  101CHL1   C1613681   2.672   4.708  14.751 -0.4190 -0.2723  0.1746
  101CHL1  H16A13682   2.770   4.678  14.707  0.4843 -0.4677  2.2104
  101CHL1  H16B13683   2.593   4.636  14.723  0.0715 -1.0858  0.8556
  101CHL1   C1713684   2.628   4.853  14.705  0.3683  0.3839  0.2050
  101CHL1   H1713685   2.518   4.848  14.718  0.3273 -2.9650 -0.3460
  101CHL1   C1313686   2.687   4.947  14.811 -0.6537 -0.3167  0.6991
  101CHL1   C1813687   2.837   4.959  14.801  0.1052 -0.0631  0.5271
  101CHL1  H18A13688   2.886   5.007  14.888  1.0843 -1.0782  0.5690
  101CHL1  H18B13689   2.889   4.860  14.802  1.6337  0.7058  1.4890
  101CHL1  H18C13690   2.865   5.019  14.712 -0.8605  1.4211  1.1891
  101CHL1   C1213691   2.624   5.087  14.841  0.0508  0.6324 -1.1943
  101CHL1  H12A13692   2.648   5.160  14.762 -0.6421  1.3130 -0.7845
  101CHL1  H12B13693   2.514   5.076  14.834 -0.0558  0.8866 -0.1140
  101CHL1   C1113694   2.665   5.146  14.983  0.7823 -0.0305  1.3015
  101CHL1  H11A13695   2.768   5.186  14.976  0.2006  1.6079  1.6709
  101CHL1  H11B13696   2.611   5.242  14.998 -0.3857 -0.0774 -1.8817
  101CHL1    C913697   2.644   5.046  15.099 -0.0267  0.0001 -0.6841
  101CHL1    H913698   2.535   5.027  15.103 -0.3252  1.5636 -0.9045
  101CHL1   C1013699   2.688   5.100  15.236 -0.1386 -0.1243 -0.4992
  101CHL1   C1913700   2.836   5.150  15.223  0.2111 -0.5225 -0.3051
  101CHL1  H19A13701   2.860   5.195  15.322 -2.4179  1.4315 -0.4484
  101CHL1  H19B13702   2.909   5.066  15.214  1.5176  0.5803 -0.3521
  101CHL1  H19C13703   2.858   5.226  15.145 -2.1426  0.3513 -0.1874
  101CHL1    C113704   2.600   5.221  15.282  0.5847  0.1777  0.7326
  101CHL1   H1A13705   2.615   5.290  15.196 -1.8028 -1.7745 -1.4580
  101CHL1   H1B13706   2.493   5.191  15.288  1.0174 -1.1613  2.5537
  101CHL1    C213707   2.627   5.275  15.420  0.3796 -0.5374  0.2104
  101CHL1   H2A13708   2.559   5.355  15.457  1.6216 -0.6752  3.0402
  101CHL1   H2B13709   2.732   5.308  15.431 -0.2618  1.7335 -0.1035
  101CHL1   C2013710   2.650   4.887  14.558  0.1330  0.1469  0.6628
  101CHL1   H2013711   2.760   4.889  14.546  0.0385  0.5418 -0.2074
  101CHL1   C2113712   2.592   5.021  14.506  0.0335  0.2523  0.3633
  101CHL1  H21A13713   2.639   5.032  14.406  0.5537  0.0101  0.5724
  101CHL1  H21B13714   2.626   5.112  14.560 -0.6516  1.5524 -1.2997
  101CHL1  H21C13715   2.482   5.022  14.498  0.0401 -0.7448 -0.0512
  101CHL1   C2213716   2.621   4.769  14.465  0.1416 -0.0138 -0.2768
  101CHL1  H22A13717   2.691   4.688  14.496 -2.0329 -1.6436  0.6434
  101CHL1  H22B13718   2.515   4.739  14.477  0.7445 -2.1227  0.3145
  101CHL1   C2313719   2.644   4.799  14.315  0.1926 -0.8928 -0.3984
  101CHL1  H23A13720   2.565   4.867  14.277 -0.8136 -1.3545  0.7810
  101CHL1  H23B13721   2.746   4.843  14.313  0.9684 -2.5042  0.7179
  101CHL1   C2413722   2.635   4.668  14.239 -0.0357 -0.8474  0.2911
  101CHL1  H24A13723   2.687   4.589  14.297  0.6269 -0.4474  0.2478
  101CHL1  H24B13724   2.528   4.645  14.221  0.2904 -0.3719 -2.7582
  101CHL1   C2513725   2.688   4.673  14.100  0.1387  0.0862 -0.1983
  101CHL1   H2513726   2.796   4.698  14.110 -0.0410  0.3187  1.5322
  101CHL1   C2613727   2.682   4.539  14.036  0.7984 -0.5309 -0.1709
  101CHL1  H26A13728   2.723   4.547  13.933 -0.8210 -1.6261 -0.9536
  101CHL1  H26B13729   2.741   4.466  14.095  2.3863  1.3072  0.6142
  101CHL1  H26C13730   2.575   4.516  14.016  0.7446  0.1873 -0.7568
  101CHL1   C2713731   2.629   4.783  14.022 -0.4251  0.5982 -0.0565
  101CHL1  H27A13732   2.637   4.883  14.071 -0.2558 -0.1913  1.6046
  101CHL1  H27B13733   2.669   4.774  13.919  0.0442  0.0657  0.1678
  101CHL1  H27C13734   2.519   4.767  14.022 -0.3962  0.3245 -1.2435
  102CHL1    C313735   4.214   7.298  15.647 -0.4382 -0.1921 -0.2044
  102CHL1    H313736   4.306   7.236  15.641 -0.2970  0.0984 -1.1912
  102CHL1    O313737   4.144   7.275  15.768  0.0958 -0.4099 -0.1913
  102CHL1   H3'13738   4.198   7.310  15.840 -0.6113 -2.9456  1.7179
  102CHL1    C413739   4.251   7.449  15.627 -0.0590 -0.2256 -0.0797
  102CHL1   H4A13740   4.161   7.513  15.637  0.3050  0.0634  1.6062
  102CHL1   H4B13741   4.314   7.470  15.716  1.0695  0.7854 -1.0805
  102CHL1    C513742   4.314   7.471  15.493  0.0377  0.4775  0.4255
  102CHL1    C613743   4.439   7.523  15.496 -0.5005 -0.1194  0.0973
  102CHL1    H613744   4.484   7.539  15.595  0.8495  1.3203 -0.7001
  102CHL1    C713745   4.514   7.566  15.371  0.5239 -0.1028  0.2652
  102CHL1   H7A13746   4.522   7.675  15.391  0.3860  0.2501 -1.4612
  102CHL1   H7B13747   4.616   7.522  15.363  0.0597 -1.1442 -0.1789
  102CHL1    C813748   4.417   7.558  15.248  0.4015 -0.6672 -0.2575
  102CHL1    H813749   4.340   7.637  15.260 -0.2903 -0.8649 -2.8424
  102CHL1   C1413750   4.489   7.585  15.118  0.3268  0.5553  0.3541
  102CHL1   H1413751   4.568   7.509  15.102  0.4098  1.0543 -2.1584
  102CHL1   C1513752   4.565   7.719  15.092 -0.1292  0.0473  0.5280
  102CHL1  H15A13753   4.509   7.803  15.139  1.2139  1.3822 -0.1648
  102CHL1  H15B13754   4.650   7.708  15.162 -1.0041  1.2452  1.8270
  102CHL1   C1613755   4.592   7.720  14.941  0.7955 -0.0361  0.6865
  102CHL1  H16A13756   4.567   7.813  14.886 -0.4218 -0.9758 -0.4396
  102CHL1  H16B13757   4.700   7.701  14.923  0.2462 -1.6592 -1.4236
  102CHL1   C1713758   4.509   7.602  14.880  0.1645 -0.2830  0.7748
  102CHL1   H1713759   4.571   7.512  14.899  0.4414  0.0170  1.2981
  102CHL1   C1313760   4.402   7.575  14.990 -0.1394  0.1187  0.2003
  102CHL1   C1813761   4.295   7.684  14.986 -0.1274 -0.5435  0.5816
  102CHL1  H18A13762   4.237   7.689  15.080  1.6857 -2.2434  1.8772
  102CHL1  H18B13763   4.339   7.785  14.967  0.3097 -0.9145 -0.4669
  102CHL1  H18C13764   4.220   7.671  14.906 -0.0294  1.7196  0.0350
  102CHL1   C1213765   4.344   7.432  14.982 -0.3227 -0.6019  0.1918
  102CHL1  H12A13766   4.287   7.408  14.889  0.4718  1.0734 -0.7767
  102CHL1  H12B13767   4.427   7.359  14.975 -2.6885 -3.3531 -1.9265
  102CHL1   C1113768   4.268   7.400  15.106  0.1002 -0.0912 -0.1727
  102CHL1  H11A13769   4.176   7.462  15.102  0.4282  0.3420 -1.7427
  102CHL1  H11B13770   4.236   7.294  15.102  1.6764 -0.5612 -1.7955
  102CHL1    C913771   4.340   7.425  15.244 -0.0192 -0.4267 -0.1794
  102CHL1    H913772   4.411   7.341  15.257 -2.1339 -2.1221  1.0558
  102CHL1   C1013773   4.248   7.420  15.374  0.3250  0.0259 -0.1765
  102CHL1   C1913774   4.119   7.504  15.342 -0.1390 -0.1716  0.5457
  102CHL1  H19A13775   4.055   7.525  15.430 -0.5062 -0.6908  0.4059
  102CHL1  H19B13776   4.145   7.601  15.293  0.0328 -1.2069 -1.5200
  102CHL1  H19C13777   4.052   7.459  15.266 -1.9193 -0.4559  2.2121
  102CHL1    C113778   4.199   7.278  15.391 -0.0041  0.5437 -0.0993
  102CHL1   H1A13779   4.136   7.244  15.306  0.1840 -0.3561  0.1025
  102CHL1   H1B13780   4.285   7.209  15.377 -0.9939 -0.2423 -2.8261
  102CHL1    C213781   4.132   7.251  15.528  0.0218 -0.9378  0.2638
  102CHL1   H2A13782   4.090   7.150  15.547 -4.2479  0.4954 -0.2429
  102CHL1   H2B13783   4.041   7.315  15.521  0.9663  0.4396  0.1927
  102CHL1   C2013784   4.477   7.602  14.727  0.0183 -0.2569  0.2745
  102CHL1   H2013785   4.393   7.530  14.712 -0.5836  0.6507 -0.9113
  102CHL1   C2113786   4.596   7.543  14.649  0.1863  0.0665 -0.0323
  102CHL1  H21A13787   4.620   7.450  14.704 -0.8888  0.2054  0.7085
  102CHL1  H21B13788   4.684   7.610  14.653 -0.1017  0.4270  0.5118
  102CHL1  H21C13789   4.575   7.538  14.540 -1.6543  0.4200  0.2738
  102CHL1   C2213790   4.422   7.738  14.675 -0.0335 -0.3887  0.7085
  102CHL1  H22A13791   4.360   7.788  14.752 -0.2423  1.1844 -0.4242
  102CHL1  H22B13792   4.502   7.807  14.642 -0.6560 -0.0491 -0.1589
  102CHL1   C2313793   4.332   7.725  14.543  0.1372  0.3558  0.3418
  102CHL1  H23A13794   4.327   7.826  14.495 -1.5674  0.8590  1.4931
  102CHL1  H23B13795   4.383   7.652  14.477 -2.2899 -1.0558 -0.0991
  102CHL1   C2413796   4.197   7.668  14.578 -0.5330 -0.0244 -0.1830
  102CHL1  H24A13797   4.202   7.618  14.677 -1.7769  1.1057  0.4853
  102CHL1  H24B13798   4.126   7.752  14.594  1.0619  1.2406  0.6549
  102CHL1   C2513799   4.130   7.587  14.466 -0.0006  0.4819  0.3644
  102CHL1   H2513800   4.032   7.552  14.504 -0.1763 -1.0765 -1.3970
  102CHL1   C2613801   4.114   7.667  14.335  0.4932  0.5537  0.1389
  102CHL1  H26A13802   4.036   7.745  14.342  0.1131  0.4880 -2.2850
  102CHL1  H26B13803   4.214   7.711  14.312  0.8132  0.0587  0.5557
  102CHL1  H26C13804   4.079   7.599  14.255 -2.1054  0.5643  1.1756
  102CHL1   C2713805   4.206   7.453  14.444 -0.1804 -0.4932 -0.3440
  102CHL1  H27A13806   4.278   7.430  14.525 -0.5471  1.9375  0.7510
  102CHL1  H27B13807   4.133   7.369  14.438 -0.2143 -0.3553 -3.1504
  102CHL1  H27C13808   4.276   7.460  14.359 -0.2965 -0.0909 -0.4064
  103CHL1    C313809   6.256   4.825  15.732 -0.1601 -0.1075  0.0970
  103CHL1    H313810   6.159   4.808  15.679  1.5704 -2.1148 -2.6983
  103CHL1    O313811   6.229   4.908  15.843 -0.1738  0.5793  0.2879
  103CHL1   H3'13812   6.236   4.993  15.798 -1.7407 -0.1391 -1.4506
  103CHL1    C413813   6.325   4.693  15.772  0.6045  0.0162 -0.5607
  103CHL1   H4A13814   6.420   4.714  15.825  0.5779 -2.1488  0.4096
  103CHL1   H4B13815   6.266   4.648  15.854 -0.2505  1.2035 -0.4919
  103CHL1    C513816   6.348   4.610  15.649 -0.1572  0.1444  0.7327
  103CHL1    C613817   6.285   4.489  15.638  0.1222  0.4703 -0.2970
  103CHL1    H613818   6.222   4.453  15.721  0.2393 -0.7341 -0.7161
  103CHL1    C713819   6.309   4.407  15.515 -0.2916 -0.3563 -0.2554
  103CHL1   H7A13820   6.346   4.306  15.543 -1.6098 -1.0359 -0.8731
  103CHL1   H7B13821   6.219   4.382  15.456 -0.2944  0.2043 -0.5003
  103CHL1    C813822   6.421   4.459  15.418 -0.2059 -0.0821 -0.2595
  103CHL1    H813823   6.520   4.445  15.466 -0.2436 -0.3695 -0.2642
  103CHL1   C1413824   6.418   4.387  15.286  0.1490 -0.0540  0.0663
  103CHL1   H1413825   6.318   4.410  15.243  0.7618  0.9900 -0.8506
  103CHL1   C1513826   6.431   4.234  15.286  0.6981  0.3546 -0.2078
  103CHL1  H15A13827   6.521   4.213  15.348 -0.3608  0.9132  1.5939
  103CHL1  H15B13828   6.346   4.175  15.326  1.5990 -0.8613 -0.0101
  103CHL1   C1613829   6.470   4.200  15.140  0.0375  0.5019 -0.0683
  103CHL1  H16A13830   6.562   4.138  15.139 -0.9835 -1.0730 -1.5762
  103CHL1  H16B13831   6.390   4.140  15.091  0.6490 -0.8933  0.5915
  103CHL1   C1713832   6.489   4.337  15.064  0.8100  0.1499 -0.5899
  103CHL1   H1713833   6.384   4.356  15.031  0.1487 -2.0314  0.0561
  103CHL1   C1313834   6.514   4.438  15.177  0.5473 -0.1575  0.3525
  103CHL1   C1813835   6.668   4.420  15.210 -0.0682  0.0698 -0.6302
  103CHL1  H18A13836   6.693   4.449  15.314  0.6424  2.2007 -1.3407
  103CHL1  H18B13837   6.695   4.313  15.200  0.1652  0.0264  0.4098
  103CHL1  H18C13838   6.726   4.482  15.139 -0.9258  1.8476  0.1703
  103CHL1   C1213839   6.478   4.582  15.151  0.4425 -0.5833  0.2994
  103CHL1  H12A13840   6.552   4.625  15.081 -1.6409 -1.4041 -2.5742
  103CHL1  H12B13841   6.374   4.585  15.114  0.0226 -1.0173  1.4066
  103CHL1   C1113842   6.493   4.668  15.281 -0.2155 -0.0383  0.2878
  103CHL1  H11A13843   6.599   4.681  15.312 -0.9833  3.3633  1.9283
  103CHL1  H11B13844   6.459   4.769  15.251  1.6387  0.6909  0.5110
  103CHL1    C913845   6.411   4.607  15.401 -0.4426 -0.0605 -0.2343
  103CHL1    H913846   6.304   4.612  15.370 -0.6031  2.1297  0.5259
  103CHL1   C1013847   6.428   4.681  15.535 -0.0038  0.7323  0.6819
  103CHL1   C1913848   6.576   4.694  15.584  0.5369  0.3860  0.1767
  103CHL1  H19A13849   6.590   4.706  15.694 -1.1538  1.0048  0.3466
  103CHL1  H19B13850   6.639   4.604  15.563  2.4323  1.2832  1.7434
  103CHL1  H19C13851   6.624   4.774  15.524 -1.2258  0.4242 -1.2464
  103CHL1    C113852   6.375   4.821  15.511  0.2214  0.5091  0.2860
  103CHL1   H1A13853   6.449   4.875  15.449  0.5144 -1.9136 -1.5992
  103CHL1   H1B13854   6.282   4.804  15.452  1.1832  1.3757 -1.5377
  103CHL1    C213855   6.353   4.903  15.639 -0.1481 -0.3070 -0.4892
  103CHL1   H2A13856   6.320   5.009  15.630 -1.7276 -0.8255 -1.2750
  103CHL1   H2B13857   6.447   4.907  15.696 -0.6815 -0.6192  0.4275
  103CHL1   C2013858   6.577   4.350  14.939  0.4405  0.6663 -1.0927
  103CHL1   H2013859   6.683   4.380  14.953  0.5333  0.0351 -0.3344
  103CHL1   C2113860   6.524   4.465  14.851 -0.6129 -0.2085  0.0369
  103CHL1  H21A13861   6.414   4.455  14.838 -0.3252 -0.5865 -2.5993
  103CHL1  H21B13862   6.576   4.459  14.754 -0.2933 -0.1456  0.2037
  103CHL1  H21C13863   6.548   4.565  14.892 -1.1592 -0.6036  1.3934
  103CHL1   C2213864   6.574   4.228  14.847  0.6305  0.9330 -0.5687
  103CHL1  H22A13865   6.479   4.172  14.855  1.2599 -0.0550  0.4154
  103CHL1  H22B13866   6.589   4.257  14.741 -0.1841 -0.6045 -1.1368
  103CHL1   C2313867   6.687   4.112  14.861 -0.1780 -0.0446  0.3846
  103CHL1  H23A13868   6.690   4.071  14.964  1.1201  1.9945  1.2317
  103CHL1  H23B13869   6.655   4.040  14.782 -2.6389 -0.6656  1.8465
  103CHL1   C2413870   6.834   4.173  14.834 -0.2308  0.2403 -0.1729
  103CHL1  H24A13871   6.820   4.234  14.743 -1.3398 -1.8417 -1.4813
  103CHL1  H24B13872   6.856   4.236  14.922 -0.3278 -1.4658  1.1394
  103CHL1   C2513873   6.942   4.060  14.802  1.2092 -0.2699 -0.2950
  103CHL1   H2513874   6.904   4.003  14.714 -2.3492  1.1957  0.1575
  103CHL1   C2613875   7.072   4.133  14.770 -0.0113 -0.0271  0.0442
  103CHL1  H26A13876   7.058   4.199  14.682  1.3256  0.3834  0.1051
  103CHL1  H26B13877   7.103   4.200  14.854 -0.6781  0.6271 -0.2246
  103CHL1  H26C13878   7.157   4.062  14.760 -0.1096  0.0742 -1.8538
  103CHL1   C2713879   6.950   3.958  14.917  0.9692  0.1625  0.0681
  103CHL1  H27A13880   7.022   3.880  14.884  0.5954  0.3265 -1.1816
  103CHL1  H27B13881   6.987   4.022  15.001  0.7859  0.8942 -0.3961
  103CHL1  H27C13882   6.854   3.909  14.942  0.6988  1.0457  0.8351
  104CHL1    C313883   8.118   4.491  16.038 -0.2696  0.0311 -0.4048
  104CHL1    H313884   8.217   4.451  16.009  0.3088  0.3052  1.0708
  104CHL1    O313885   8.091   4.443  16.172 -0.2221 -1.0004  0.5272
  104CHL1   H3'13886   7.998   4.465  16.184  0.2813  1.3940  0.5527
  104CHL1    C413887   8.117   4.646  16.046 -0.4241 -0.2238 -0.0882
  104CHL1   H4A13888   8.032   4.678  16.111  0.4167 -0.5238  1.1773
  104CHL1   H4B13889   8.216   4.664  16.093 -0.5737 -0.3643  0.2843
  104CHL1    C513890   8.119   4.710  15.909  0.5453  0.4691  0.8169
  104CHL1    C613891   8.206   4.802  15.869  0.0729 -0.1477 -0.1708
  104CHL1    H613892   8.289   4.842  15.929  0.8694  0.3131 -1.5327
  104CHL1    C713893   8.204   4.873  15.735 -0.5268 -0.6209 -0.2861
  104CHL1   H7A13894   8.220   4.982  15.749 -2.5798 -0.3832  0.6160
  104CHL1   H7B13895   8.298   4.841  15.685 -1.5875 -1.3786 -1.8740
  104CHL1    C813896   8.075   4.849  15.656 -0.2736 -0.0642 -0.6878
  104CHL1    H813897   7.984   4.894  15.701 -0.1915 -0.9143  0.3813
  104CHL1   C1413898   8.089   4.898  15.511 -0.4516 -0.6744  0.1195
  104CHL1   H1413899   8.177   4.835  15.485  0.2313  1.0674 -2.1197
  104CHL1   C1513900   8.147   5.036  15.477  0.2559  0.7219 -0.0448
  104CHL1  H15A13901   8.082   5.112  15.528  1.0947 -0.6956  3.4265
  104CHL1  H15B13902   8.251   5.048  15.513  1.2180 -1.6844 -1.8218
  104CHL1   C1613903   8.137   5.044  15.322 -0.3679 -0.1072 -0.6556
  104CHL1  H16A13904   8.097   5.142  15.288  0.7239 -0.2539 -2.5276
  104CHL1  H16B13905   8.239   5.036  15.279 -0.3923 -0.0054 -0.7339
  104CHL1   C1713906   8.063   4.911  15.279 -0.1835  0.2703 -0.1192
  104CHL1   H1713907   8.127   4.822  15.260 -0.7491 -0.1924  0.1406
  104CHL1   C1313908   7.988   4.864  15.407 -1.4084  0.2391 -0.0039
  104CHL1   C1813909   7.859   4.938  15.429 -0.4299 -0.5079 -0.3502
  104CHL1  H18A13910   7.776   4.904  15.364 -1.0661 -0.6750  0.5355
  104CHL1  H18B13911   7.827   4.925  15.535  1.6677 -0.6166  0.3265
  104CHL1  H18C13912   7.872   5.047  15.414  2.5825 -0.3795  2.1075
  104CHL1   C1213913   7.965   4.715  15.414 -0.3148  0.7802  0.4388
  104CHL1  H12A13914   7.887   4.675  15.345 -0.6581 -0.7882  1.6695
  104CHL1  H12B13915   8.050   4.655  15.377 -0.7959  0.7770 -0.6951
  104CHL1   C1113916   7.939   4.655  15.555 -0.1079 -0.1419 -0.4096
  104CHL1  H11A13917   7.837   4.684  15.587  0.6546  0.0165  2.0430
  104CHL1  H11B13918   7.936   4.545  15.541 -1.2268 -0.1606 -0.1131
  104CHL1    C913919   8.052   4.696  15.664  0.0119 -0.0855  0.0015
  104CHL1    H913920   8.147   4.648  15.631  0.9069  0.8753  1.0882
  104CHL1   C1013921   8.022   4.646  15.811 -0.0764  0.9029 -0.0102
  104CHL1   C1913922   7.873   4.675  15.845 -0.6773  0.2290 -0.2202
  104CHL1  H19A13923   7.847   4.656  15.951 -0.6527  0.1232 -0.2322
  104CHL1  H19B13924   7.847   4.782  15.828  1.7216  0.9662  0.3885
  104CHL1  H19C13925   7.801   4.625  15.776  1.0081 -0.6286 -1.4530
  104CHL1    C113926   8.034   4.488  15.803  0.3841 -0.9483  0.0879
  104CHL1   H1A13927   7.946   4.455  15.744 -0.3406  0.7649  0.1467
  104CHL1   H1B13928   8.132   4.473  15.753 -1.0794 -3.7657 -2.2440
  104CHL1    C213929   8.019   4.429  15.943 -0.1619 -0.1355 -0.3922
  104CHL1   H2A13930   8.041   4.321  15.935  0.3361  0.0166 -1.1537
  104CHL1   H2B13931   7.914   4.444  15.976  0.3046  1.2894  0.5538
  104CHL1   C2013932   7.981   4.936  15.147 -0.1919  0.1734  0.4549
  104CHL1   H2013933   7.905   5.016  15.161 -0.2797  0.6168 -2.0794
  104CHL1   C2113934   7.916   4.805  15.093 -0.5854  0.0642 -0.8963
  104CHL1  H21A13935   7.986   4.721  15.112 -1.3380 -0.4480 -0.3299
  104CHL1  H21B13936   7.884   4.815  14.987  0.3096 -1.6540 -1.3594
  104CHL1  H21C13937   7.830   4.777  15.157  0.1975  0.3671  0.3275
  104CHL1   C2213938   8.073   4.995  15.036  0.4725 -0.1605 -0.1970
  104CHL1  H22A13939   8.011   5.004  14.945 -0.7622  0.4884  0.6791
  104CHL1  H22B13940   8.094   5.096  15.077  0.7173 -0.4797  0.4697
  104CHL1   C2313941   8.211   4.940  14.997  0.4711 -0.2700  0.1992
  104CHL1  H23A13942   8.267   4.905  15.087 -2.2246 -2.1737  1.2684
  104CHL1  H23B13943   8.203   4.846  14.938  0.6871 -0.8262  1.0417
  104CHL1   C2413944   8.298   5.032  14.905 -0.1786 -0.2957 -0.4868
  104CHL1  H24A13945   8.305   5.132  14.954 -2.9166 -0.1738 -0.1923
  104CHL1  H24B13946   8.407   5.011  14.896  0.2051  1.7427 -1.3170
  104CHL1   C2513947   8.256   5.049  14.757  0.6549 -0.4457 -0.2000
  104CHL1   H2513948   8.152   5.088  14.761  0.4285 -1.0123 -0.4339
  104CHL1   C2613949   8.343   5.158  14.699  0.2234 -0.5833  0.1170
  104CHL1  H26A13950   8.326   5.181  14.592 -0.2320  0.5748  0.4294
  104CHL1  H26B13951   8.343   5.256  14.750 -4.4405 -0.3471  0.1248
  104CHL1  H26C13952   8.448   5.123  14.698  1.0384  1.6343  1.5710
  104CHL1   C2713953   8.243   4.919  14.676  0.3095  0.3230  0.0575
  104CHL1  H27A13954   8.338   4.881  14.632  0.1723 -1.0331  0.8948
  104CHL1  H27B13955   8.211   4.831  14.736 -2.9836  0.9177 -0.6404
  104CHL1  H27C13956   8.172   4.931  14.592 -1.1502 -4.0518  0.4279
  105CHL1    C313957   5.956   6.567  15.723  0.2657  0.0491 -1.3302
  105CHL1    H313958   5.952   6.649  15.648  2.4824  0.2683 -1.2634
  105CHL1    O313959   5.947   6.620  15.854 -0.0331  0.1612 -0.1312
  105CHL1   H3'13960   5.856   6.614  15.883 -0.1254 -2.2526 -0.7353
  105CHL1    C413961   5.838   6.468  15.704  0.2185 -0.6895  0.2478
  105CHL1   H4A13962   5.842   6.397  15.790 -0.3672  0.9224  1.6480
  105CHL1   H4B13963   5.739   6.517  15.715 -0.0206 -1.2559  0.7083
  105CHL1    C513964   5.858   6.400  15.563 -0.3006  0.3500 -0.0019
  105CHL1    C613965   5.752   6.395  15.474  0.1949 -0.3471  0.4154
  105CHL1    H613966   5.657   6.449  15.490 -0.4050 -1.5452  1.0040
  105CHL1    C713967   5.750   6.334  15.339 -0.1631  0.4419  0.4366
  105CHL1   H7A13968   5.653   6.284  15.317 -0.0320  0.5992 -0.5532
  105CHL1   H7B13969   5.768   6.407  15.258 -0.7641 -1.4605 -1.4997
  105CHL1    C813970   5.869   6.228  15.329 -0.6206  0.2450 -0.2136
  105CHL1    H813971   5.840   6.135  15.382 -0.3437  0.1414 -0.2442
  105CHL1   C1413972   5.892   6.191  15.187 -0.1707  0.3406  0.3792
  105CHL1   H1413973   5.936   6.278  15.133 -0.5246 -0.5847 -1.4706
  105CHL1   C1513974   5.772   6.131  15.111  0.3872  0.3709 -1.0267
  105CHL1  H15A13975   5.735   6.042  15.167 -0.1598  1.4390  0.3581
  105CHL1  H15B13976   5.694   6.210  15.103  0.1439  0.1951 -0.4768
  105CHL1   C1613977   5.838   6.081  14.983  0.0035  0.1234  0.4591
  105CHL1  H16A13978   5.789   5.987  14.953 -0.4666  0.7398 -0.7970
  105CHL1  H16B13979   5.820   6.156  14.903  2.5554 -0.8545 -1.1560
  105CHL1   C1713980   5.992   6.077  15.016  0.2610  0.0057  0.0814
  105CHL1   H1713981   6.033   6.171  14.973 -2.4319  1.0996 -0.2601
  105CHL1   C1313982   6.006   6.090  15.167 -0.0057 -0.0113 -0.8763
  105CHL1   C1813983   5.968   5.948  15.230 -0.1458 -0.0562  0.1475
  105CHL1  H18A13984   6.056   5.883  15.249 -0.5764 -0.2925  1.4995
  105CHL1  H18B13985   5.930   5.961  15.334  0.4683 -2.0638  0.6811
  105CHL1  H18C13986   5.889   5.891  15.176 -0.6039 -0.7708  1.5001
  105CHL1   C1213987   6.131   6.160  15.223  0.9941  0.3541  0.2297
  105CHL1  H12A13988   6.212   6.085  15.224  0.3190 -0.6350 -3.6043
  105CHL1  H12B13989   6.151   6.250  15.161 -1.6014  0.4286 -0.6518
  105CHL1   C1113990   6.114   6.189  15.378 -0.6767 -0.0296  0.3119
  105CHL1  H11A13991   6.094   6.086  15.415  0.2038 -0.7950 -1.2286
  105CHL1  H11B13992   6.209   6.231  15.416  0.2709 -0.0936 -1.8347
  105CHL1    C913993   5.995   6.288  15.395  0.3549 -0.0350  0.4142
  105CHL1    H913994   6.025   6.374  15.332  1.6739  0.0677  1.1273
  105CHL1   C1013995   5.988   6.335  15.541 -0.1121 -0.5063 -0.6232
  105CHL1   C1913996   5.999   6.218  15.634  0.1758  0.2308  0.3609
  105CHL1  H19A13997   5.916   6.146  15.625  1.1240 -0.7528 -0.8489
  105CHL1  H19B13998   6.093   6.161  15.615  0.0377  0.1602 -0.1227
  105CHL1  H19C13999   5.996   6.242  15.742  1.0584 -2.5327  1.0690
  105CHL1    C114000   6.104   6.437  15.575  0.4053 -0.4938  0.0782
  105CHL1   H1A14001   6.201   6.383  15.566  1.1456  0.9496 -1.2190
  105CHL1   H1B14002   6.098   6.508  15.490 -0.0272 -1.1556 -0.4506
  105CHL1    C214003   6.092   6.503  15.711 -0.3400 -1.2391  0.0710
  105CHL1   H2A14004   6.165   6.585  15.720  0.5293 -1.7926 -1.4900
  105CHL1   H2B14005   6.106   6.428  15.792  2.0557 -0.8105  0.1108
  105CHL1   C2014006   6.068   5.974  14.937  0.1991  0.0482  0.6361
  105CHL1   H2014007   6.037   5.872  14.966  2.3682 -1.2465 -1.2044
  105CHL1   C2114008   6.222   6.003  14.956  0.6900 -0.0170 -0.2979
  105CHL1  H21A14009   6.249   6.110  14.943  1.6628  0.0271  1.7024
  105CHL1  H21B14010   6.276   5.947  14.876 -0.6722  2.0609 -2.8258
  105CHL1  H21C14011   6.249   5.969  15.058 -0.8004 -0.7606 -0.1266
  105CHL1   C2214012   6.024   5.974  14.793  0.1342 -0.3457  0.2589
  105CHL1  H22A14013   5.918   5.943  14.780 -0.3772  0.6022  1.8046
  105CHL1  H22B14014   6.029   6.067  14.732 -0.1314 -1.1354 -0.9948
  105CHL1   C2314015   6.103   5.861  14.705  0.1176 -0.0774 -0.1086
  105CHL1  H23A14016   6.203   5.907  14.692  1.1878 -2.6121 -1.6699
  105CHL1  H23B14017   6.102   5.763  14.757 -1.6835 -0.7936 -1.3903
  105CHL1   C2414018   6.054   5.830  14.561  0.4189 -0.8548  0.1756
  105CHL1  H24A14019   5.956   5.778  14.569 -0.8939  1.7753  3.1885
  105CHL1  H24B14020   6.054   5.928  14.508  1.9717 -0.1515  1.3947
  105CHL1   C2514021   6.137   5.726  14.492 -0.0229  0.1300 -0.3753
  105CHL1   H2514022   6.153   5.645  14.566 -3.1851  0.5315  0.9147
  105CHL1   C2614023   6.056   5.675  14.367  0.4315  0.5877 -0.3870
  105CHL1  H26A14024   5.948   5.658  14.387  0.0946 -0.0439 -2.5398
  105CHL1  H26B14025   6.070   5.757  14.293 -0.2166 -1.4348 -2.8959
  105CHL1  H26C14026   6.102   5.585  14.322  0.8219 -0.0425  1.1896
  105CHL1   C2714027   6.272   5.769  14.433 -0.4774 -0.0471 -0.2449
  105CHL1  H27A14028   6.269   5.858  14.367 -3.0232  1.7350  2.0023
  105CHL1  H27B14029   6.343   5.791  14.516 -0.5167 -2.0015  0.3483
  105CHL1  H27C14030   6.299   5.673  14.386 -0.9841  0.2634 -1.1951
  106CHL1    C314031   8.655   3.201  15.817  0.0057 -0.8210  0.0786
  106CHL1    H314032   8.697   3.130  15.891  1.9232 -0.3172 -0.4866
  106CHL1    O314033   8.574   3.283  15.910 -0.5523  0.1514  0.2126
  106CHL1   H3'14034   8.489   3.237  15.914  0.5420 -1.9391  0.6670
  106CHL1    C414035   8.773   3.288  15.768 -0.4959  0.2601  0.0206
  106CHL1   H4A14036   8.743   3.380  15.712  0.5158 -0.7950 -2.4147
  106CHL1   H4B14037   8.820   3.324  15.862  0.7638  1.1986 -0.9305
  106CHL1    C514038   8.863   3.210  15.678  0.1142  0.0001  0.1214
  106CHL1    C614039   8.993   3.204  15.698 -0.0891  0.0224  0.3250
  106CHL1    H614040   9.036   3.267  15.777  1.7856  0.9007 -1.2947
  106CHL1    C714041   9.091   3.128  15.608 -0.1536  0.0790  1.0078
  106CHL1   H7A14042   9.183   3.186  15.588 -1.1082  1.5062  0.6481
  106CHL1   H7B14043   9.124   3.042  15.670 -0.2023  0.0872  1.0455
  106CHL1    C814044   9.030   3.071  15.476 -0.1054 -0.0227  0.6427
  106CHL1    H814045   9.036   3.160  15.410  2.6863 -0.1343  0.6329
  106CHL1   C1414046   9.116   2.957  15.415 -0.0541  0.3259  0.2815
  106CHL1   H1414047   9.107   2.875  15.490 -2.1507  0.9141  0.7482
  106CHL1   C1514048   9.269   2.977  15.401 -0.7756  0.0645  0.1171
  106CHL1  H15A14049   9.280   3.074  15.348 -1.4308 -0.8939 -1.8749
  106CHL1  H15B14050   9.327   2.977  15.496  1.2591  0.3399 -1.0577
  106CHL1   C1614051   9.309   2.856  15.314 -0.4828 -0.9054 -0.1489
  106CHL1  H16A14052   9.373   2.896  15.233 -1.3825 -0.4021 -0.6250
  106CHL1  H16B14053   9.358   2.772  15.368  0.5375 -0.1927  0.0646
  106CHL1   C1714054   9.179   2.789  15.259  0.0285 -0.3762  0.3645
  106CHL1   H1714055   9.149   2.713  15.333  1.1839  1.2118  2.6000
  106CHL1   C1314056   9.069   2.897  15.282  0.0531  0.3518  0.1702
  106CHL1   C1814057   9.089   2.996  15.165 -0.8481  0.2066 -0.3521
  106CHL1  H18A14058   9.025   3.086  15.173  0.9359  1.6010 -0.9695
  106CHL1  H18B14059   9.197   3.023  15.170 -0.9198  0.3691  0.5231
  106CHL1  H18C14060   9.066   2.967  15.061 -0.9230 -0.1383 -0.2420
  106CHL1   C1214061   8.923   2.857  15.297  0.7388  0.1406  0.3157
  106CHL1  H12A14062   8.879   2.850  15.195 -1.5017  2.2012  1.0463
  106CHL1  H12B14063   8.910   2.769  15.364 -1.4135 -0.2687 -0.5340
  106CHL1   C1114064   8.841   2.977  15.349 -0.1198  1.0508  0.8851
  106CHL1  H11A14065   8.851   3.057  15.272 -0.2021  0.5179  0.3119
  106CHL1  H11B14066   8.740   2.933  15.341  0.6496 -0.6239 -0.1972
  106CHL1    C914067   8.885   3.023  15.484  0.0011  0.2425  0.9221
  106CHL1    H914068   8.888   2.927  15.539 -0.3403 -2.6260 -3.5166
  106CHL1   C1014069   8.796   3.126  15.561  0.2985  0.5353 -0.2910
  106CHL1   C1914070   8.748   3.231  15.462  0.0724 -0.7950  0.3542
  106CHL1  H19A14071   8.677   3.299  15.514  1.4501  0.9487  0.0357
  106CHL1  H19B14072   8.841   3.276  15.422  0.5284 -1.9335  0.0826
  106CHL1  H19C14073   8.703   3.192  15.368 -0.9581 -1.4816  1.1061
  106CHL1    C114074   8.661   3.061  15.616 -0.6692  0.1905  0.0853
  106CHL1   H1A14075   8.611   3.021  15.525  0.1537 -1.0885  0.1675
  106CHL1   H1B14076   8.694   2.967  15.665 -0.1793  1.1343  1.6188
  106CHL1    C214077   8.568   3.142  15.708 -0.3308 -0.4899  0.0930
  106CHL1   H2A14078   8.495   3.073  15.757  1.3039 -1.5789  1.1232
  106CHL1   H2B14079   8.529   3.225  15.646 -3.3411 -1.1006  0.9925
  106CHL1   C2014080   9.198   2.726  15.127  0.2862 -0.1695  0.2604
  106CHL1   H2014081   9.211   2.803  15.047  1.0773  1.3861  1.8147
  106CHL1   C2114082   9.065   2.651  15.089  0.2899  0.3403 -0.2386
  106CHL1  H21A14083   9.081   2.586  15.001  1.2146  0.9110 -0.5146
  106CHL1  H21B14084   8.995   2.731  15.058  1.1606  0.5368 -1.8174
  106CHL1  H21C14085   9.018   2.595  15.172  0.6100  0.4521  0.0220
  106CHL1   C2214086   9.311   2.614  15.120 -0.0632 -0.4879 -0.3983
  106CHL1  H22A14087   9.291   2.554  15.029 -2.2801 -0.7017  0.1767
  106CHL1  H22B14088   9.403   2.676  15.124 -0.1250 -0.2850 -1.6975
  106CHL1   C2314089   9.319   2.508  15.241  0.1811  0.9641 -0.2393
  106CHL1  H23A14090   9.330   2.547  15.345  1.8789  0.1384 -0.0801
  106CHL1  H23B14091   9.234   2.437  15.234  1.1446 -0.2729  0.2970
  106CHL1   C2414092   9.451   2.423  15.227 -0.8482  0.1796  0.5475
  106CHL1  H24A14093   9.457   2.383  15.124 -0.9784  2.3519 -0.3461
  106CHL1  H24B14094   9.535   2.488  15.258 -0.2976  0.1800 -0.9105
  106CHL1   C2514095   9.451   2.298  15.322 -0.1112 -0.5139  0.3892
  106CHL1   H2514096   9.403   2.318  15.420 -1.2995  0.9505 -0.4465
  106CHL1   C2614097   9.380   2.170  15.271 -0.1013  0.0638 -0.0561
  106CHL1  H26A14098   9.427   2.126  15.181 -0.9020 -0.6117 -0.1526
  106CHL1  H26B14099   9.383   2.087  15.344 -0.6775 -0.7901 -0.9720
  106CHL1  H26C14100   9.270   2.166  15.253  0.0215 -2.2878 -0.4827
  106CHL1   C2714101   9.595   2.271  15.347 -0.2481  0.3637  0.1261
  106CHL1  H27A14102   9.639   2.364  15.389  0.4712 -0.4800  1.3188
  106CHL1  H27B14103   9.602   2.193  15.426 -2.4537 -1.8843 -1.7383
  106CHL1  H27C14104   9.658   2.235  15.263 -1.2516 -1.1841  0.0086
  107CHL1    C314105   5.720   8.164  15.597  0.5672 -0.1477 -0.2577
  107CHL1    H314106   5.621   8.204  15.565  0.9231  0.4427 -0.6430
  107CHL1    O314107   5.707   8.080  15.711  0.0295 -0.7033  0.4715
  107CHL1   H3'14108   5.631   8.022  15.703 -0.9462  0.1716  2.6188
  107CHL1    C414109   5.767   8.073  15.485 -0.3909  0.3392  0.0986
  107CHL1   H4A14110   5.869   8.039  15.513 -0.0568  0.6368 -0.7352
  107CHL1   H4B14111   5.704   7.984  15.465  1.0718 -1.8333  4.0651
  107CHL1    C514112   5.780   8.160  15.360  0.4955 -0.5016  0.0948
  107CHL1    C614113   5.721   8.124  15.242  0.3552  0.0546 -0.5856
  107CHL1    H614114   5.646   8.044  15.255  0.4246  0.3343  1.9334
  107CHL1    C714115   5.747   8.192  15.115  0.5382  0.9367  0.1741
  107CHL1   H7A14116   5.749   8.117  15.033 -1.2279 -0.7303  1.5775
  107CHL1   H7B14117   5.657   8.256  15.105  0.4714  0.6671 -1.0558
  107CHL1    C814118   5.872   8.282  15.117  0.0231 -0.1376  0.0027
  107CHL1    H814119   5.963   8.219  15.122  0.0293 -0.4755 -2.9249
  107CHL1   C1414120   5.868   8.372  14.993 -0.1711  0.2241  0.2590
  107CHL1   H1414121   5.769   8.424  15.000 -1.9621 -2.8058 -0.8449
  107CHL1   C1514122   5.858   8.306  14.849  0.1841  0.0480 -0.1281
  107CHL1  H15A14123   5.942   8.233  14.858  0.2310  0.1532  0.2964
  107CHL1  H15B14124   5.760   8.259  14.828  0.1567  0.3634 -0.7139
  107CHL1   C1614125   5.883   8.416  14.751 -0.1955 -0.6964  0.2125
  107CHL1  H16A14126   5.952   8.375  14.674  1.1196  0.1083  0.9369
  107CHL1  H16B14127   5.785   8.443  14.707  0.1263 -2.0995 -1.4954
  107CHL1   C1714128   5.938   8.534  14.836  0.1155  0.9273  0.0345
  107CHL1   H1714129   5.854   8.603  14.858  1.2272  1.2629  4.2110
  107CHL1   C1314130   5.974   8.479  14.985 -0.2632 -0.0323 -0.2880
  107CHL1   C1814131   6.113   8.413  14.988  0.6043 -0.3236 -0.6956
  107CHL1  H18A14132   6.128   8.357  15.083 -1.2876  2.7961  1.6007
  107CHL1  H18B14133   6.113   8.343  14.901  0.7211 -0.0204 -0.9400
  107CHL1  H18C14134   6.193   8.489  14.978  0.2604  0.6483  2.8566
  107CHL1   C1214135   5.950   8.574  15.100  0.0124  0.1734 -0.3333
  107CHL1  H12A14136   6.022   8.659  15.095 -0.1298  0.2303 -1.9642
  107CHL1  H12B14137   5.854   8.629  15.086  1.3238  1.8303 -3.8975
  107CHL1   C1114138   5.955   8.504  15.238  0.6601 -0.5461 -0.5129
  107CHL1  H11A14139   6.059   8.470  15.260  1.1246  1.6899  1.1090
  107CHL1  H11B14140   5.941   8.572  15.324  1.1802 -0.4296 -0.5140
  107CHL1    C914141   5.861   8.374  15.245 -0.3151  0.2520  0.3370
  107CHL1    H914142   5.758   8.414  15.236 -2.2322 -4.3538 -1.2616
  107CHL1   C1014143   5.870   8.286  15.370 -0.3577 -0.4382 -0.5540
  107CHL1   C1914144   6.016   8.234  15.384  0.5037 -0.1538 -0.6917
  107CHL1  H19A14145   6.083   8.315  15.419 -1.2414  0.8378  0.5279
  107CHL1  H19B14146   6.025   8.175  15.478 -0.8922 -0.5908 -0.8015
  107CHL1  H19C14147   6.050   8.166  15.303  0.2041 -0.0956 -0.8679
  107CHL1    C114148   5.834   8.362  15.494  0.2112 -0.1952  0.2701
  107CHL1   H1A14149   5.923   8.424  15.519 -0.1039 -0.4816  2.2129
  107CHL1   H1B14150   5.742   8.422  15.476  0.5928  0.3658  0.1365
  107CHL1    C214151   5.817   8.276  15.626 -0.4262  0.1099  0.3998
  107CHL1   H2A14152   5.777   8.339  15.709  0.4206  1.1525  0.0357
  107CHL1   H2B14153   5.916   8.237  15.658  0.2475 -0.0650 -1.7673
  107CHL1   C2014154   6.050   8.605  14.759 -0.3867 -0.1561 -0.4767
  107CHL1   H2014155   6.134   8.537  14.734  0.3488  0.9116 -0.9824
  107CHL1   C2114156   6.095   8.720  14.845  0.2313 -0.5522 -0.0737
  107CHL1  H21A14157   6.003   8.764  14.888  0.2099 -0.9619  0.3041
  107CHL1  H21B14158   6.156   8.797  14.793 -0.9589  1.4285  1.3417
  107CHL1  H21C14159   6.154   8.692  14.935  2.1727  1.0410 -0.7640
  107CHL1   C2214160   6.008   8.661  14.623 -0.5720  0.6606 -0.1516
  107CHL1  H22A14161   6.097   8.696  14.566 -1.6143  0.5761 -1.9176
  107CHL1  H22B14162   5.970   8.577  14.561  0.1026 -0.6900  1.1948
  107CHL1   C2314163   5.900   8.767  14.622 -0.0131 -0.3873 -0.2882
  107CHL1  H23A14164   5.812   8.712  14.662 -1.7218  1.8011 -0.8626
  107CHL1  H23B14165   5.945   8.847  14.684 -0.4752 -1.8982  2.1005
  107CHL1   C2414166   5.874   8.819  14.481 -0.2942 -0.5950  0.1687
  107CHL1  H24A14167   5.964   8.879  14.458  0.7454 -1.4382  1.8433
  107CHL1  H24B14168   5.868   8.735  14.408 -0.9659 -1.1038  0.7896
  107CHL1   C2514169   5.756   8.920  14.460  0.7011  0.3030 -0.2592
  107CHL1   H2514170   5.665   8.886  14.515  0.6359 -0.2535 -0.7017
  107CHL1   C2614171   5.790   9.051  14.528 -0.2347  0.3655  0.0982
  107CHL1  H26A14172   5.707   9.125  14.532 -0.1935  0.4259 -0.1125
  107CHL1  H26B14173   5.817   9.033  14.634  2.6418 -0.9602 -0.7496
  107CHL1  H26C14174   5.880   9.093  14.476  0.3805 -0.4981  0.4371
  107CHL1   C2714175   5.734   8.933  14.306 -0.7954 -0.5160  0.1052
  107CHL1  H27A14176   5.822   8.961  14.244 -2.5008 -0.2890 -2.3957
  107CHL1  H27B14177   5.685   8.841  14.267 -0.1047 -1.0460  0.4607
  107CHL1  H27C14178   5.670   9.022  14.292 -1.2556 -0.5946  1.5527
  108CHL1    C314179   7.169   3.526  15.848  0.1061 -0.0665 -0.5647
  108CHL1    H314180   7.106   3.465  15.779  0.7858  0.8134 -1.9861
  108CHL1    O314181   7.144   3.493  15.984 -0.4240  0.0624 -0.5274
  108CHL1   H3'14182   7.206   3.536  16.044  0.0127 -3.0477  1.4947
  108CHL1    C414183   7.324   3.509  15.835  0.6144 -0.0602 -0.4667
  108CHL1   H4A14184   7.373   3.575  15.909 -1.5735 -2.0323  2.9863
  108CHL1   H4B14185   7.358   3.408  15.867  0.5134  0.2078  0.4996
  108CHL1    C514186   7.370   3.548  15.696 -0.8932  0.4755 -0.2174
  108CHL1    C614187   7.423   3.453  15.614  0.0996  0.4710 -0.4107
  108CHL1    H614188   7.445   3.349  15.645  1.3347  0.6628 -0.5681
  108CHL1    C714189   7.467   3.472  15.467  1.1800  1.0425 -0.2589
  108CHL1   H7A14190   7.566   3.427  15.443  0.7322  0.1165 -0.4032
  108CHL1   H7B14191   7.394   3.422  15.400  0.7954 -1.3738  1.8081
  108CHL1    C814192   7.459   3.624  15.440 -0.2515 -0.2129 -0.0496
  108CHL1    H814193   7.548   3.670  15.487 -1.3697 -0.0289  1.9954
  108CHL1   C1414194   7.466   3.641  15.286 -0.0542 -0.3096 -0.7584
  108CHL1   H1414195   7.372   3.589  15.261 -1.9731  1.0564  2.7665
  108CHL1   C1514196   7.586   3.578  15.207 -0.3515  0.2724  0.9322
  108CHL1  H15A14197   7.684   3.611  15.249 -0.4637  0.7847  0.7933
  108CHL1  H15B14198   7.579   3.468  15.195 -0.8009  0.5346 -1.8909
  108CHL1   C1614199   7.568   3.646  15.073 -1.3098  0.3779  0.1050
  108CHL1  H16A14200   7.672   3.682  15.054 -0.2873 -2.0320  0.7876
  108CHL1  H16B14201   7.538   3.583  14.987 -0.6337  0.8942 -0.5232
  108CHL1   C1714202   7.470   3.761  15.079 -0.0313 -0.2842  0.6200
  108CHL1   H1714203   7.375   3.719  15.040  0.5614 -0.0691 -1.1708
  108CHL1   C1314204   7.453   3.779  15.226 -0.0023 -0.3744 -0.0182
  108CHL1   C1814205   7.558   3.876  15.277  0.0923 -0.0322  0.0940
  108CHL1  H18A14206   7.661   3.876  15.236 -0.4991 -3.5173 -1.7803
  108CHL1  H18B14207   7.527   3.981  15.257 -1.7458 -0.8914 -2.0882
  108CHL1  H18C14208   7.578   3.852  15.383 -0.2854  1.4538  0.5126
  108CHL1   C1214209   7.314   3.823  15.278  0.1100 -0.1678  0.2043
  108CHL1  H12A14210   7.290   3.919  15.228 -1.5653 -0.6709 -0.0513
  108CHL1  H12B14211   7.235   3.754  15.239  1.2315 -0.1180 -2.3513
  108CHL1   C1114212   7.300   3.833  15.431  0.0556 -0.0386  0.0244
  108CHL1  H11A14213   7.374   3.908  15.466  1.0500 -1.9695  2.3029
  108CHL1  H11B14214   7.200   3.871  15.461 -0.2835  0.4045 -1.5506
  108CHL1    C914215   7.327   3.683  15.495 -1.3525  0.4763  0.0308
  108CHL1    H914216   7.240   3.618  15.471 -1.7672  0.2093  2.0854
  108CHL1   C1014217   7.320   3.679  15.644  0.5213  0.2582  0.3450
  108CHL1   C1914218   7.422   3.781  15.700  0.3193  0.3324 -0.3619
  108CHL1  H19A14219   7.526   3.747  15.680  0.2719  1.0593 -2.1020
  108CHL1  H19B14220   7.420   3.881  15.651  1.2486  0.9201  0.7352
  108CHL1  H19C14221   7.417   3.800  15.809 -0.1576 -3.3605  0.3807
  108CHL1    C114222   7.172   3.717  15.685  0.4557  0.3346  0.0244
  108CHL1   H1A14223   7.149   3.825  15.687 -2.2500 -0.1554 -0.9045
  108CHL1   H1B14224   7.109   3.674  15.604  1.2730  1.5630 -1.3008
  108CHL1    C214225   7.132   3.669  15.827  0.2747 -0.8627  0.9356
  108CHL1   H2A14226   7.025   3.697  15.845 -0.3219 -3.0308  1.0197
  108CHL1   H2B14227   7.193   3.736  15.891 -2.1559  2.2569  0.2852
  108CHL1   C2014228   7.499   3.875  14.986  0.0430  0.2403  0.6066
  108CHL1   H2014229   7.598   3.910  15.023  0.0145  0.3785  0.5510
  108CHL1   C2114230   7.399   3.993  14.988 -0.0451  0.2573 -0.0898
  108CHL1  H21A14231   7.426   4.074  14.917 -1.3810  1.1835  0.4220
  108CHL1  H21B14232   7.389   4.041  15.088  2.7407  2.4940 -0.7724
  108CHL1  H21C14233   7.293   3.970  14.962 -0.3582 -1.6247  2.4548
  108CHL1   C2214234   7.511   3.829  14.834 -0.4856  0.3952 -0.2610
  108CHL1  H22A14235   7.571   3.909  14.785 -0.9518 -0.1612 -1.7851
  108CHL1  H22B14236   7.568   3.736  14.813  1.6828  1.3447  1.0704
  108CHL1   C2314237   7.375   3.811  14.755  0.1792 -0.9612  0.4605
  108CHL1  H23A14238   7.303   3.738  14.798  0.7448 -2.0720 -0.4246
  108CHL1  H23B14239   7.326   3.910  14.762  1.6522 -0.2334  0.7722
  108CHL1   C2414240   7.399   3.788  14.609 -0.2777  0.1478  0.9527
  108CHL1  H24A14241   7.422   3.884  14.558  0.8177  0.0961  1.3147
  108CHL1  H24B14242   7.483   3.717  14.592 -1.3024 -0.3703 -2.6890
  108CHL1   C2514243   7.282   3.734  14.529  0.2249  0.4686 -0.0025
  108CHL1   H2514244   7.242   3.646  14.584 -2.8010  0.3788 -2.0876
  108CHL1   C2614245   7.151   3.823  14.510 -1.0084  0.4292 -0.5623
  108CHL1  H26A14246   7.181   3.922  14.468  1.5506  0.5262  1.1964
  108CHL1  H26B14247   7.071   3.773  14.452 -1.1061 -0.1383  0.0541
  108CHL1  H26C14248   7.108   3.838  14.611 -1.4379  2.3936 -0.9917
  108CHL1   C2714249   7.312   3.695  14.384 -0.0343 -0.5656 -0.0103
  108CHL1  H27A14250   7.404   3.632  14.383  0.9439  0.7511  1.9291
  108CHL1  H27B14251   7.235   3.633  14.334  0.0667 -2.4754  2.0346
  108CHL1  H27C14252   7.326   3.785  14.321 -1.1677 -0.8498 -0.6884
  109CHL1    C314253   2.341   8.653  15.807 -0.5805 -0.7996 -0.0058
  109CHL1    H314254   2.435   8.594  15.808  0.8498  1.3558 -0.5333
  109CHL1    O314255   2.317   8.709  15.934  0.9848  0.5719 -0.0612
  109CHL1   H3'14256   2.229   8.741  15.912  0.8614  0.7098  0.6142
  109CHL1    C414257   2.354   8.761  15.703  0.1020 -0.7224  0.7603
  109CHL1   H4A14258   2.265   8.828  15.701  0.9107  0.3870  1.1012
  109CHL1   H4B14259   2.436   8.830  15.734  0.7956 -1.3515  0.3399
  109CHL1    C514260   2.376   8.708  15.567 -0.3535 -0.3770  0.1852
  109CHL1    C614261   2.485   8.754  15.502 -0.8636 -0.3670  1.2500
  109CHL1    H614262   2.546   8.833  15.548  0.7326  0.9461 -2.7207
  109CHL1    C714263   2.518   8.719  15.362 -0.1398 -0.2014 -0.3506
  109CHL1   H7A14264   2.547   8.813  15.311 -2.4849 -0.7068 -2.8769
  109CHL1   H7B14265   2.612   8.660  15.367 -0.7816 -1.1692  2.4954
  109CHL1    C814266   2.409   8.632  15.292 -0.2451 -0.0654  0.0530
  109CHL1    H814267   2.331   8.709  15.271  0.6251  1.4536  2.0421
  109CHL1   C1414268   2.457   8.569  15.166  0.2559  0.2712  0.6805
  109CHL1   H1414269   2.536   8.499  15.200 -1.0462 -0.6770  1.8662
  109CHL1   C1514270   2.526   8.660  15.063 -0.0302  0.4293  0.3233
  109CHL1  H15A14271   2.489   8.764  15.052 -2.6737 -0.2542  2.0493
  109CHL1  H15B14272   2.634   8.669  15.090 -0.3407 -1.1932  2.3695
  109CHL1   C1614273   2.510   8.588  14.924 -0.0797 -0.2269 -0.0330
  109CHL1  H16A14274   2.453   8.651  14.853 -0.3419  0.5688  0.8633
  109CHL1  H16B14275   2.606   8.568  14.873 -0.1239  1.5001 -0.8789
  109CHL1   C1714276   2.436   8.451  14.963  0.2355 -0.2910  0.1553
  109CHL1   H1714277   2.512   8.377  14.996 -2.0418 -2.9933 -0.2841
  109CHL1   C1314278   2.351   8.494  15.089 -0.1757  0.0181 -0.0180
  109CHL1   C1814279   2.227   8.584  15.047  0.2229  0.4275  0.0367
  109CHL1  H18A14280   2.255   8.632  14.951  3.3833  1.8500  1.5136
  109CHL1  H18B14281   2.133   8.526  15.042 -0.1646  0.8592  1.7351
  109CHL1  H18C14282   2.206   8.668  15.115 -1.8419  1.4820 -1.7900
  109CHL1   C1214283   2.300   8.380  15.188 -0.1996  0.1298  0.7017
  109CHL1  H12A14284   2.216   8.323  15.144 -0.6807  2.5337 -1.7819
  109CHL1  H12B14285   2.380   8.303  15.193 -0.6667 -0.3093  1.4487
  109CHL1   C1114286   2.247   8.434  15.322 -0.2575 -0.5137  0.2889
  109CHL1  H11A14287   2.148   8.483  15.308  0.7669  1.2646 -1.0741
  109CHL1  H11B14288   2.226   8.348  15.389 -0.4910 -0.3038  0.4834
  109CHL1    C914289   2.346   8.536  15.386 -0.1332  0.4629 -0.1743
  109CHL1    H914290   2.429   8.461  15.395  0.3229  0.9729 -0.0634
  109CHL1   C1014291   2.288   8.596  15.513  0.1411 -0.0287 -0.1642
  109CHL1   C1914292   2.151   8.668  15.486 -0.4113  0.1412 -0.0657
  109CHL1  H19A14293   2.105   8.703  15.581  0.8446 -1.1444  1.0566
  109CHL1  H19B14294   2.169   8.745  15.407  1.0765 -1.5707 -1.4513
  109CHL1  H19C14295   2.066   8.603  15.456 -0.1529  0.6295 -1.9691
  109CHL1    C114296   2.252   8.488  15.627 -0.0248 -0.5846  0.0121
  109CHL1   H1A14297   2.172   8.415  15.601 -1.3132  1.1411 -1.0579
  109CHL1   H1B14298   2.345   8.430  15.644  0.2605  0.1860  1.2227
  109CHL1    C214299   2.227   8.555  15.763  0.3442  0.3054  0.2894
  109CHL1   H2A14300   2.207   8.480  15.842 -0.4198 -1.0372 -1.1123
  109CHL1   H2B14301   2.133   8.614  15.755 -0.7371 -1.3504  0.1569
  109CHL1   C2014302   2.356   8.397  14.838  0.2461  0.0648 -0.6033
  109CHL1   H2014303   2.293   8.480  14.800  2.3643  0.6006 -3.2199
  109CHL1   C2114304   2.265   8.277  14.871 -0.3942 -0.2441  0.2714
  109CHL1  H21A14305   2.171   8.323  14.909 -0.6605 -0.9411  0.4714
  109CHL1  H21B14306   2.312   8.207  14.942 -0.1885 -1.9202 -1.4282
  109CHL1  H21C14307   2.234   8.215  14.783 -2.3258 -0.7261  1.2266
  109CHL1   C2214308   2.455   8.366  14.721 -0.1547  0.2567  0.1973
  109CHL1  H22A14309   2.510   8.457  14.689  2.1635 -0.7381  1.1618
  109CHL1  H22B14310   2.542   8.308  14.758  0.5131  0.0705 -1.5751
  109CHL1   C2314311   2.393   8.299  14.594 -0.2714  0.8155 -0.8326
  109CHL1  H23A14312   2.476   8.278  14.523  2.7983 -2.1577  3.1315
  109CHL1  H23B14313   2.354   8.200  14.627 -0.1288  0.1775 -2.4989
  109CHL1   C2414314   2.299   8.380  14.512  0.4766 -0.4506 -0.3607
  109CHL1  H24A14315   2.212   8.397  14.578  1.5322  0.9595  0.7271
  109CHL1  H24B14316   2.348   8.472  14.473 -3.6411  2.5407  0.8562
  109CHL1   C2514317   2.253   8.298  14.383 -0.0087 -0.4195 -0.6326
  109CHL1   H2514318   2.340   8.235  14.353 -0.6675 -2.0562  0.7262
  109CHL1   C2614319   2.131   8.212  14.423  0.6833 -0.3967 -0.0409
  109CHL1  H26A14320   2.169   8.117  14.466  1.3155  0.3440  1.1141
  109CHL1  H26B14321   2.074   8.253  14.510  0.5066 -0.7877  0.0305
  109CHL1  H26C14322   2.068   8.187  14.336  0.3778  1.5051 -0.4103
  109CHL1   C2714323   2.216   8.389  14.267  0.3257  0.2067  0.9410
  109CHL1  H27A14324   2.221   8.318  14.182  5.4410  0.7579  0.4800
  109CHL1  H27B14325   2.114   8.428  14.288 -0.1232 -1.3975  1.8321
  109CHL1  H27C14326   2.283   8.476  14.248 -2.2012  1.5378 -3.2681
  110CHL1    C314327   1.961   7.367  15.382  0.0402 -0.3126  0.0719
  110CHL1    H314328   1.949   7.415  15.283  0.8662  0.2740  0.2525
  110CHL1    O314329   2.046   7.455  15.458 -0.1964  0.2052 -0.0263
  110CHL1   H3'14330   1.992   7.481  15.533 -2.6436 -0.9480 -1.2761
  110CHL1    C414331   1.822   7.357  15.452 -0.4640 -0.0968  0.4216
  110CHL1   H4A14332   1.823   7.340  15.562  1.3274  1.5654  0.7208
  110CHL1   H4B14333   1.788   7.463  15.455  1.8190  0.6799  2.1894
  110CHL1    C514334   1.732   7.263  15.373 -0.0113  0.2212  0.4369
  110CHL1    C614335   1.609   7.300  15.341 -0.1019  0.5910 -0.5724
  110CHL1    H614336   1.572   7.398  15.374  1.3283  1.1972 -0.6903
  110CHL1    C714337   1.517   7.212  15.260  0.4034 -0.3262 -0.4559
  110CHL1   H7A14338   1.418   7.213  15.310  0.5793 -0.5467 -0.1036
  110CHL1   H7B14339   1.497   7.254  15.159 -2.8872 -1.4313 -0.3727
  110CHL1    C814340   1.554   7.065  15.267 -0.4068  0.4520  0.9127
  110CHL1    H814341   1.544   7.034  15.373  0.4962  1.2617  1.2492
  110CHL1   C1414342   1.465   6.987  15.179  0.0667  0.2958 -0.1011
  110CHL1   H1414343   1.470   7.019  15.072  0.3250  1.5801  0.2741
  110CHL1   C1514344   1.314   6.992  15.207  0.5603  0.3573  0.6286
  110CHL1  H15A14345   1.293   6.978  15.315 -1.1958  1.7692  0.5067
  110CHL1  H15B14346   1.269   7.085  15.166  1.0503  0.8680  1.2412
  110CHL1   C1614347   1.254   6.868  15.125  0.6346 -0.6755  0.0932
  110CHL1  H16A14348   1.182   6.820  15.194  1.7651 -4.0006 -0.8928
  110CHL1  H16B14349   1.203   6.910  15.036  3.5277  1.3174 -0.8060
  110CHL1   C1714350   1.379   6.780  15.086  0.0025 -0.7234 -0.9482
  110CHL1   H1714351   1.407   6.807  14.982  1.2429  1.3040 -0.1503
  110CHL1   C1314352   1.493   6.837  15.173 -0.3307  0.1221 -0.7278
  110CHL1   C1814353   1.481   6.774  15.313 -0.5044  0.2472  0.2294
  110CHL1  H18A14354   1.546   6.818  15.391  0.5060  1.2777 -1.1301
  110CHL1  H18B14355   1.378   6.771  15.353 -0.4150 -2.3535  0.4849
  110CHL1  H18C14356   1.522   6.670  15.310  0.8674  0.7858 -1.2674
  110CHL1   C1214357   1.640   6.818  15.116  0.3847  0.3911 -0.1000
  110CHL1  H12A14358   1.673   6.712  15.114 -0.9955 -0.0789  0.1700
  110CHL1  H12B14359   1.645   6.843  15.008 -1.4601 -1.0481 -0.5839
  110CHL1   C1114360   1.742   6.898  15.204  0.0505  0.4552 -0.2063
  110CHL1  H11A14361   1.756   6.832  15.292  0.1958  1.2759  0.4024
  110CHL1  H11B14362   1.846   6.895  15.163  0.2440 -0.7144  0.3437
  110CHL1    C914363   1.706   7.047  15.241  0.1879  0.5002  0.9834
  110CHL1    H914364   1.719   7.097  15.142 -3.0917  0.7420  0.5808
  110CHL1   C1014365   1.790   7.118  15.344 -0.1893  0.3433  0.0623
  110CHL1   C1914366   1.793   7.035  15.474  0.2817  0.8209  0.4000
  110CHL1  H19A14367   1.859   6.946  15.461 -1.0291 -0.0513 -0.5119
  110CHL1  H19B14368   1.846   7.087  15.557 -0.7462 -1.2987  2.5243
  110CHL1  H19C14369   1.691   7.013  15.513  1.1970 -1.6026  1.6606
  110CHL1    C114370   1.936   7.134  15.286  0.4201 -0.4398 -0.5292
  110CHL1   H1A14371   1.973   7.030  15.284  0.6648 -0.4183  1.2037
  110CHL1   H1B14372   1.924   7.180  15.185  0.8783  1.9944  0.4334
  110CHL1    C214373   2.027   7.225  15.365 -1.0646 -0.5385  0.0981
  110CHL1   H2A14374   2.120   7.251  15.310 -0.6577  0.0661  1.0547
  110CHL1   H2B14375   2.051   7.186  15.466 -0.7501 -0.1688  0.1675
  110CHL1   C2014376   1.337   6.627  15.103 -0.9682 -0.1878  0.2152
  110CHL1   H2014377   1.317   6.609  15.211  0.2132 -1.2700  0.2677
  110CHL1   C2114378   1.454   6.538  15.075 -0.3357  0.5483  0.0795
  110CHL1  H21A14379   1.502   6.553  14.977 -1.5941 -0.8727 -0.7967
  110CHL1  H21B14380   1.426   6.431  15.076 -3.7132  1.2682 -1.7263
  110CHL1  H21C14381   1.525   6.544  15.160 -1.3034 -1.6539  1.1271
  110CHL1   C2214382   1.214   6.587  15.015  0.2581  0.3976  0.3103
  110CHL1  H22A14383   1.125   6.653  15.029  0.4824  1.2258 -1.8383
  110CHL1  H22B14384   1.244   6.597  14.909  3.8514 -1.1385  1.0563
  110CHL1   C2314385   1.150   6.448  15.059 -0.5769  0.5641  0.0148
  110CHL1  H23A14386   1.229   6.375  15.030 -0.7573  0.6198 -0.6476
  110CHL1  H23B14387   1.144   6.459  15.169 -0.4399 -1.1335  0.2276
  110CHL1   C2414388   1.015   6.422  15.008  0.1559  0.7788  0.9907
  110CHL1  H24A14389   0.939   6.491  15.050 -2.6776 -0.6486 -1.4320
  110CHL1  H24B14390   1.020   6.425  14.897 -0.5585 -1.7815  0.8279
  110CHL1   C2514391   0.966   6.276  15.052  0.3849 -0.1810 -0.0499
  110CHL1   H2514392   1.022   6.205  14.987  1.2688  2.1988 -2.0047
  110CHL1   C2614393   0.981   6.230  15.193 -0.2460 -0.0236  0.1929
  110CHL1  H26A14394   0.972   6.119  15.194  0.5118 -0.0877  0.4593
  110CHL1  H26B14395   1.078   6.257  15.239  0.0520 -1.9273  0.8030
  110CHL1  H26C14396   0.893   6.272  15.245 -1.9900 -0.5443 -2.1559
  110CHL1   C2714397   0.819   6.260  15.005 -0.5632 -0.8030  0.1778
  110CHL1  H27A14398   0.804   6.287  14.898  2.7377 -2.3082 -0.8224
  110CHL1  H27B14399   0.777   6.159  15.024  1.2737 -1.2685  2.2643
  110CHL1  H27C14400   0.748   6.323  15.062 -0.6962  2.4097 -3.1401
  111CHL1    C314401   2.902   8.858  15.889 -0.4190 -0.2043  0.4515
  111CHL1    H314402   2.825   8.778  15.884  1.7619 -2.5507  1.9917
  111CHL1    O314403   2.953   8.846  16.019 -0.0839  0.1317  0.8018
  111CHL1   H3'14404   3.012   8.919  16.039  0.9415 -0.7664  1.1525
  111CHL1    C414405   3.009   8.832  15.778 -0.2756 -0.9517 -0.3890
  111CHL1   H4A14406   3.093   8.904  15.790  1.7014 -3.2117  0.1689
  111CHL1   H4B14407   3.071   8.743  15.801 -0.6738 -0.7770  1.5411
  111CHL1    C514408   2.957   8.841  15.639 -0.1617  0.0139 -0.5410
  111CHL1    C614409   2.982   8.746  15.551 -0.6096 -0.4458  0.1696
  111CHL1    H614410   3.035   8.655  15.582  0.1638 -0.8650 -2.1745
  111CHL1    C714411   2.937   8.758  15.410 -0.5982 -0.6337 -0.2349
  111CHL1   H7A14412   3.015   8.719  15.341 -0.4839  0.2290 -0.6122
  111CHL1   H7B14413   2.846   8.695  15.402  0.3864 -2.1821  0.3044
  111CHL1    C814414   2.917   8.902  15.359  0.4980 -0.0298  0.9004
  111CHL1    H814415   3.015   8.955  15.356  1.2381 -1.2164  2.5351
  111CHL1   C1414416   2.854   8.900  15.215  0.3677 -0.3221 -0.7210
  111CHL1   H1414417   2.763   8.837  15.226 -0.2272  0.5357 -0.6222
  111CHL1   C1514418   2.929   8.833  15.091  0.1404  0.3196  0.0225
  111CHL1  H15A14419   3.033   8.872  15.099 -0.7974  2.7047  1.8160
  111CHL1  H15B14420   2.925   8.723  15.106  0.5856  0.1558 -1.0128
  111CHL1   C1614421   2.847   8.881  14.971 -0.3219  0.7196  0.3115
  111CHL1  H16A14422   2.919   8.924  14.898 -2.0009 -0.3233 -2.0922
  111CHL1  H16B14423   2.786   8.801  14.924 -4.2517  2.6333  1.7090
  111CHL1   C1714424   2.756   8.991  15.021 -0.3925  0.4722  0.2404
  111CHL1   H1714425   2.657   8.948  15.043  0.1014 -0.3033  0.9861
  111CHL1   C1314426   2.810   9.034  15.159  0.4913  0.8045  0.1330
  111CHL1   C1814427   2.933   9.122  15.142 -0.5064  0.2939  0.1722
  111CHL1  H18A14428   3.004   9.125  15.227 -0.5464  0.5611  0.1960
  111CHL1  H18B14429   3.000   9.086  15.061  1.4355  1.4460  1.2144
  111CHL1  H18C14430   2.903   9.227  15.122 -1.2394  0.2277  0.8862
  111CHL1   C1214431   2.706   9.084  15.258 -0.0073 -0.1783  0.2044
  111CHL1  H12A14432   2.663   9.181  15.224  2.2636  1.0955  0.7914
  111CHL1  H12B14433   2.615   9.020  15.253  0.8068 -1.3862  0.5417
  111CHL1   C1114434   2.759   9.105  15.402  0.2998 -0.4805  0.2924
  111CHL1  H11A14435   2.827   9.193  15.407  3.8571 -3.0038 -0.3153
  111CHL1  H11B14436   2.666   9.124  15.460  1.0229 -0.1549  1.3713
  111CHL1    C914437   2.815   8.968  15.457 -1.0833  0.4617 -0.7114
  111CHL1    H914438   2.736   8.890  15.453  0.6776 -1.5330  0.4354
  111CHL1   C1014439   2.880   8.974  15.599  0.2356  0.1122 -0.5782
  111CHL1   C1914440   2.980   9.098  15.601 -0.0466  0.0194 -0.6100
  111CHL1  H19A14441   3.034   9.121  15.696 -1.8398  0.6325  0.3121
  111CHL1  H19B14442   3.055   9.089  15.520  1.8752 -0.0242  1.0991
  111CHL1  H19C14443   2.928   9.195  15.592  1.7082  1.3152  1.9756
  111CHL1    C114444   2.780   9.000  15.719  0.0458 -0.5060  0.8103
  111CHL1   H1A14445   2.753   9.106  15.699 -0.3573 -0.8127 -0.3652
  111CHL1   H1B14446   2.685   8.942  15.716 -0.1903 -0.2687  2.5852
  111CHL1    C214447   2.851   9.002  15.859  0.6132  0.6580  0.3580
  111CHL1   H2A14448   2.772   9.027  15.934  1.6998 -0.6591  2.0069
  111CHL1   H2B14449   2.932   9.078  15.866 -0.4283  1.8969 -0.6446
  111CHL1   C2014450   2.743   9.100  14.913 -0.3746 -0.0279  0.2078
  111CHL1   H2014451   2.838   9.155  14.902 -0.3679 -0.1880 -0.6303
  111CHL1   C2114452   2.647   9.199  14.971  0.2846  0.2849  0.0333
  111CHL1  H21A14453   2.622   9.275  14.895  1.3323  1.1769  0.5440
  111CHL1  H21B14454   2.696   9.251  15.056 -2.2259  1.9775  0.5566
  111CHL1  H21C14455   2.554   9.149  15.006 -0.2462  0.4363 -1.1183
  111CHL1   C2214456   2.704   9.049  14.769 -0.8736  0.8502 -1.1799
  111CHL1  H22A14457   2.789   8.984  14.737  1.2292  2.0199  1.6045
  111CHL1  H22B14458   2.610   8.990  14.777 -1.5327  2.0965  1.3214
  111CHL1   C2314459   2.698   9.161  14.671  0.4424 -0.5151 -0.8347
  111CHL1  H23A14460   2.621   9.227  14.717  0.7657 -2.2143  2.4477
  111CHL1  H23B14461   2.794   9.215  14.657  0.7177 -0.9123 -0.4851
  111CHL1   C2414462   2.658   9.110  14.538  0.1379 -0.5504  0.6662
  111CHL1  H24A14463   2.734   9.048  14.485  0.8261 -0.3977  1.4606
  111CHL1  H24B14464   2.562   9.055  14.549 -0.4867  0.5894  1.0788
  111CHL1   C2514465   2.614   9.223  14.441  0.6169 -1.1643 -0.7029
  111CHL1   H2514466   2.568   9.181  14.349  0.9095 -0.5530 -1.1365
  111CHL1   C2614467   2.504   9.313  14.500  0.4107 -0.5515 -0.3399
  111CHL1  H26A14468   2.461   9.375  14.417  1.7716 -2.2837 -2.4477
  111CHL1  H26B14469   2.416   9.254  14.534 -1.2719  2.2258  0.5389
  111CHL1  H26C14470   2.541   9.379  14.581 -0.9447  0.6897 -0.6788
  111CHL1   C2714471   2.719   9.318  14.398 -0.8153 -0.1503 -0.4619
  111CHL1  H27A14472   2.752   9.384  14.482 -0.7706 -1.2342  0.3927
  111CHL1  H27B14473   2.805   9.254  14.368  1.2908  2.2259  0.1247
  111CHL1  H27C14474   2.691   9.387  14.316 -0.1786  0.7916  0.0929
  112CHL1    C314475   5.196   1.302  15.745  0.6989  0.1488 -0.2471
  112CHL1    H314476   5.294   1.351  15.765  2.8399 -1.8703 -4.4365
  112CHL1    O314477   5.132   1.265  15.860 -0.1576  0.7858 -0.4345
  112CHL1   H3'14478   5.103   1.347  15.900 -2.0971 -1.1129  2.3173
  112CHL1    C414479   5.102   1.398  15.659 -0.2136 -0.4639 -0.4173
  112CHL1   H4A14480   5.000   1.362  15.686  0.2958  0.2229  2.7352
  112CHL1   H4B14481   5.107   1.494  15.715 -0.1636 -1.5294  1.4959
  112CHL1    C514482   5.123   1.415  15.507 -0.2642 -0.8265  0.2676
  112CHL1    C614483   5.123   1.540  15.455  0.2211  1.0152 -0.0994
  112CHL1    H614484   5.107   1.630  15.517 -1.6513  0.1170  0.7962
  112CHL1    C714485   5.149   1.557  15.300  0.4197  0.2695  0.0987
  112CHL1   H7A14486   5.094   1.639  15.250  1.8848  0.0215 -2.0257
  112CHL1   H7B14487   5.249   1.604  15.286  0.6446  0.2376  1.4529
  112CHL1    C814488   5.149   1.429  15.219 -0.1953 -0.3727  0.2118
  112CHL1    H814489   5.041   1.415  15.195 -1.0099  2.9103  1.4004
  112CHL1   C1414490   5.222   1.456  15.083 -0.1824  0.0516  0.0857
  112CHL1   H1414491   5.329   1.475  15.107 -0.1479 -1.4353  1.2046
  112CHL1   C1514492   5.182   1.576  14.994  0.1369  0.5208  0.1344
  112CHL1  H15A14493   5.073   1.593  14.987 -0.2909 -1.7061  0.6762
  112CHL1  H15B14494   5.221   1.665  15.048  0.5646 -0.3882  1.3861
  112CHL1   C1614495   5.253   1.545  14.861 -0.3507  0.0267  0.5805
  112CHL1  H16A14496   5.179   1.574  14.783  1.1531  2.2756 -0.0968
  112CHL1  H16B14497   5.336   1.613  14.835 -1.7160  0.6495 -2.7244
  112CHL1   C1714498   5.297   1.397  14.866 -0.2767  0.0024  0.6099
  112CHL1   H1714499   5.407   1.404  14.880 -0.2036  1.0160 -0.3777
  112CHL1   C1314500   5.223   1.333  14.984  0.2973 -0.1589 -0.3394
  112CHL1   C1814501   5.072   1.296  14.955 -0.3129 -0.0789  0.4936
  112CHL1  H18A14502   5.021   1.379  14.902  0.1939 -0.1142 -0.0613
  112CHL1  H18B14503   5.066   1.206  14.889  1.3910 -0.2101  0.4743
  112CHL1  H18C14504   5.023   1.283  15.054  0.2196  0.9011  0.8977
  112CHL1   C1214505   5.304   1.224  15.061 -0.0541  0.2434  0.2208
  112CHL1  H12A14506   5.310   1.136  14.993 -0.6929  1.6218 -1.7139
  112CHL1  H12B14507   5.403   1.273  15.074  0.1737  0.2373 -1.2888
  112CHL1   C1114508   5.237   1.191  15.200 -1.1121 -0.6139 -0.0465
  112CHL1  H11A14509   5.137   1.151  15.173 -1.9648  0.2290  1.7332
  112CHL1  H11B14510   5.290   1.105  15.247  1.6642  0.8464 -0.3366
  112CHL1    C914511   5.210   1.313  15.293 -0.0140  0.1223  0.0293
  112CHL1    H914512   5.310   1.359  15.308  0.6423 -0.3278 -2.4239
  112CHL1   C1014513   5.157   1.284  15.435  0.0539  0.0239 -1.1174
  112CHL1   C1914514   5.025   1.206  15.416 -0.8077 -0.0990  0.7399
  112CHL1  H19A14515   5.049   1.103  15.381  0.6704  0.6543 -0.6700
  112CHL1  H19B14516   4.977   1.194  15.515  1.7285  1.5229  2.3051
  112CHL1  H19C14517   4.957   1.266  15.352  2.2858  2.7105 -0.2066
  112CHL1    C114518   5.256   1.202  15.515  0.6018 -0.0105  0.9315
  112CHL1   H1A14519   5.278   1.101  15.476 -2.8065 -0.9525  1.1836
  112CHL1   H1B14520   5.356   1.249  15.532  1.0626 -0.0964 -1.2618
  112CHL1    C214521   5.214   1.175  15.660 -1.2866  0.4596  0.7387
  112CHL1   H2A14522   5.300   1.118  15.703  0.1725  0.4209 -1.9962
  112CHL1   H2B14523   5.123   1.112  15.658 -0.5102 -0.7091  1.1623
  112CHL1   C2014524   5.283   1.319  14.727 -0.5391 -0.9347  0.4151
  112CHL1   H2014525   5.175   1.319  14.704 -0.3943  0.7593 -0.4090
  112CHL1   C2114526   5.342   1.176  14.736 -0.2760  0.4366 -0.6272
  112CHL1  H21A14527   5.264   1.120  14.791  0.0792  0.7124  0.1805
  112CHL1  H21B14528   5.438   1.178  14.792  0.9075  1.2906 -2.5604
  112CHL1  H21C14529   5.363   1.120  14.643  0.9757  1.0794 -0.7565
  112CHL1   C2214530   5.361   1.397  14.616 -0.3335  0.4078  0.0180
  112CHL1  H22A14531   5.317   1.499  14.611 -1.6024 -0.1246  0.0282
  112CHL1  H22B14532   5.467   1.407  14.648  0.0009  0.5150 -1.0748
  112CHL1   C2314533   5.334   1.333  14.476 -0.4069 -0.2753  0.0063
  112CHL1  H23A14534   5.388   1.237  14.462 -0.6840 -0.5986  1.0488
  112CHL1  H23B14535   5.225   1.312  14.471 -0.3742 -0.3019 -0.6518
  112CHL1   C2414536   5.388   1.435  14.370  0.3448  0.0765  0.1144
  112CHL1  H24A14537   5.334   1.530  14.388  0.3157 -0.2904  2.2120
  112CHL1  H24B14538   5.496   1.448  14.391  0.3965 -0.1454 -0.0066
  112CHL1   C2514539   5.371   1.377  14.232 -0.1288  0.5409 -0.4815
  112CHL1   H2514540   5.267   1.339  14.218 -0.3165  1.1785 -0.8719
  112CHL1   C2614541   5.373   1.501  14.141  0.9263  0.1456 -0.5864
  112CHL1  H26A14542   5.362   1.471  14.034  1.6125 -3.0712  0.1412
  112CHL1  H26B14543   5.290   1.570  14.165  0.9731 -0.8604  2.9412
  112CHL1  H26C14544   5.471   1.555  14.146  1.3262 -0.6894  2.3023
  112CHL1   C2714545   5.483   1.276  14.195  0.4713 -0.1355  0.0728
  112CHL1  H27A14546   5.468   1.182  14.252  0.4062 -0.4336 -0.4256
  112CHL1  H27B14547   5.481   1.255  14.086  1.2691 -0.5165  0.1188
  112CHL1  H27C14548   5.584   1.315  14.223  0.9839  0.9973 -2.9219
  113CHL1    C314549   0.553   3.527  15.928 -0.0403 -0.1398 -0.1882
  113CHL1    H314550   0.620   3.583  15.859 -0.4049 -2.4013 -2.5219
  113CHL1    O314551   0.613   3.544  16.055 -0.0604 -0.6647 -0.5965
  113CHL1   H3'14552   0.587   3.464  16.101 -4.1033 -0.3087 -1.8873
  113CHL1    C414553   0.413   3.598  15.925  0.1146 -0.2915 -0.1988
  113CHL1   H4A14554   0.349   3.552  16.002  0.0402  1.1044  0.6094
  113CHL1   H4B14555   0.442   3.704  15.941 -1.6603 -0.1525  2.7775
  113CHL1    C514556   0.357   3.583  15.786 -0.1078 -0.4182  0.6528
  113CHL1    C614557   0.329   3.693  15.716  0.5897  0.5230  0.4205
  113CHL1    H614558   0.347   3.791  15.762  0.0826  1.1592 -0.7030
  113CHL1    C714559   0.275   3.687  15.574 -0.4423 -0.1797 -0.2921
  113CHL1   H7A14560   0.190   3.755  15.552  0.0119  0.0867 -1.3059
  113CHL1   H7B14561   0.356   3.732  15.512 -1.9817  1.5774 -1.1270
  113CHL1    C814562   0.239   3.545  15.515 -0.3968 -0.2292 -0.3932
  113CHL1    H814563   0.138   3.532  15.560 -0.4343  0.7572 -0.1795
  113CHL1   C1414564   0.243   3.552  15.371  0.3688 -0.2514  0.0688
  113CHL1   H1414565   0.347   3.579  15.342  1.6049 -2.9479  1.6574
  113CHL1   C1514566   0.161   3.665  15.305  0.7981 -0.1333 -0.3721
  113CHL1  H15A14567   0.065   3.694  15.354 -0.5362 -0.5186 -2.6242
  113CHL1  H15B14568   0.222   3.758  15.298  0.4485  0.1208 -0.1250
  113CHL1   C1614569   0.138   3.609  15.167 -0.1218  0.2044  0.0546
  113CHL1  H16A14570   0.028   3.599  15.152  0.0971  0.3441 -1.7686
  113CHL1  H16B14571   0.174   3.684  15.095  5.5257  0.7862  2.9583
  113CHL1   C1714572   0.195   3.465  15.151 -0.3814 -0.2608  0.2070
  113CHL1   H1714573   0.301   3.481  15.119  0.0146 -0.5726  1.3055
  113CHL1   C1314574   0.200   3.418  15.302 -0.5999  0.0308 -0.0044
  113CHL1   C1814575   0.060   3.385  15.359  0.1373  0.2050 -0.4127
  113CHL1  H18A14576  -0.009   3.465  15.324 -0.0462  0.8307  1.2932
  113CHL1  H18B14577   0.034   3.282  15.328 -0.8365  0.6457 -1.1077
  113CHL1  H18C14578   0.050   3.398  15.469  0.9251  1.1960 -0.4461
  113CHL1   C1214579   0.306   3.322  15.352 -0.5776  0.4335  0.5079
  113CHL1  H12A14580   0.288   3.214  15.329  2.0423  0.3115 -1.5120
  113CHL1  H12B14581   0.399   3.363  15.308 -0.2987 -1.5241 -0.8811
  113CHL1   C1114582   0.313   3.303  15.506  0.2881 -0.6290 -0.9358
  113CHL1  H11A14583   0.219   3.258  15.544 -1.6981  1.7360 -2.7632
  113CHL1  H11B14584   0.387   3.222  15.528  0.7091 -0.0270 -0.0732
  113CHL1    C914585   0.339   3.437  15.571  0.3279 -0.6071 -0.5241
  113CHL1    H914586   0.436   3.468  15.526 -0.0488  1.0231 -0.2869
  113CHL1   C1014587   0.362   3.439  15.727  0.1487  0.1054 -0.1004
  113CHL1   C1914588   0.241   3.363  15.793 -0.2088 -0.4070 -0.0805
  113CHL1  H19A14589   0.243   3.369  15.904 -1.4195  0.1347 -0.0746
  113CHL1  H19B14590   0.149   3.413  15.759  1.7953  2.7660 -1.2546
  113CHL1  H19C14591   0.240   3.254  15.768 -2.1819 -0.5270  0.3991
  113CHL1    C114592   0.497   3.365  15.755  0.3527  0.1415  0.0228
  113CHL1   H1A14593   0.476   3.258  15.734 -0.1327  0.1917  0.2339
  113CHL1   H1B14594   0.575   3.398  15.683 -1.0372 -0.3049 -1.7785
  113CHL1    C214595   0.545   3.379  15.894  0.1760 -0.4322  0.7934
  113CHL1   H2A14596   0.644   3.332  15.909  0.1753 -0.5547  0.4216
  113CHL1   H2B14597   0.462   3.337  15.955 -0.9518 -1.3752 -1.2695
  113CHL1   C2014598   0.134   3.381  15.044  0.4362 -0.1651 -0.2887
  113CHL1   H2014599   0.035   3.345  15.079  0.5002 -0.3616 -0.3103
  113CHL1   C2114600   0.211   3.250  15.029 -0.0601 -0.4092 -0.0504
  113CHL1  H21A14601   0.317   3.282  15.041 -0.0103 -0.4973 -0.2624
  113CHL1  H21B14602   0.198   3.198  14.932  0.4759 -2.8518  1.1005
  113CHL1  H21C14603   0.170   3.183  15.108  0.0476  0.1953  0.5248
  113CHL1   C2214604   0.121   3.457  14.905  0.5220 -0.2530 -1.1018
  113CHL1  H22A14605   0.055   3.393  14.841 -0.4101 -0.0237 -0.3907
  113CHL1  H22B14606   0.058   3.547  14.921 -0.8134 -0.8953 -2.4618
  113CHL1   C2314607   0.238   3.495  14.826 -0.0135 -0.3292  0.3987
  113CHL1  H23A14608   0.309   3.547  14.894 -2.2753  0.5885  2.1927
  113CHL1  H23B14609   0.283   3.399  14.793 -1.0003 -0.3077 -1.0604
  113CHL1   C2414610   0.202   3.587  14.706 -0.5142 -0.0526 -0.4734
  113CHL1  H24A14611   0.304   3.593  14.661 -0.3724 -0.6305 -0.2425
  113CHL1  H24B14612   0.141   3.515  14.649 -0.6535  0.9254 -1.5894
  113CHL1   C2514613   0.138   3.727  14.737  0.6100  0.5212 -0.7113
  113CHL1   H2514614   0.052   3.705  14.803  3.0704 -0.1170  2.5637
  113CHL1   C2614615   0.229   3.831  14.815 -0.1288  0.3354 -0.4853
  113CHL1  H26A14616   0.331   3.848  14.775  0.5234 -1.2179  0.4474
  113CHL1  H26B14617   0.171   3.926  14.813  0.5370  0.9014  2.7125
  113CHL1  H26C14618   0.235   3.806  14.923  0.3694  0.3383 -0.5110
  113CHL1   C2714619   0.083   3.796  14.623 -0.2761 -0.0018  0.2993
  113CHL1  H27A14620   0.169   3.824  14.558  0.4304  2.0961  2.0209
  113CHL1  H27B14621   0.006   3.736  14.570 -1.0532  0.6236  0.6977
  113CHL1  H27C14622   0.032   3.894  14.641 -1.3808 -0.2742 -1.1137
  114CHL1    C314623   5.624   1.160  16.025 -0.7277  0.6964 -0.0373
  114CHL1    H314624   5.689   1.247  16.049  1.0172 -0.1924 -1.3574
  114CHL1    O314625   5.539   1.135  16.139  0.3694 -0.0682  0.4731
  114CHL1   H3'14626   5.481   1.211  16.140 -0.7808 -0.9110  0.0177
  114CHL1    C414627   5.522   1.189  15.911 -0.1568 -0.2856 -0.0941
  114CHL1   H4A14628   5.436   1.119  15.909 -1.0719  0.8287 -1.1262
  114CHL1   H4B14629   5.478   1.289  15.934 -1.1124 -0.2100 -2.0142
  114CHL1    C514630   5.589   1.186  15.781  0.1895  0.8099 -0.4262
  114CHL1    C614631   5.579   1.286  15.691  0.1943  0.2164 -0.2272
  114CHL1    H614632   5.515   1.372  15.715  0.4788  0.1362  0.8648
  114CHL1    C714633   5.629   1.279  15.552 -0.8546 -0.1257  0.3135
  114CHL1   H7A14634   5.546   1.316  15.489 -0.3151  2.2788  0.9237
  114CHL1   H7B14635   5.716   1.348  15.544 -1.2849  0.3286 -0.4859
  114CHL1    C814636   5.657   1.130  15.508 -0.2422  0.6982  0.5007
  114CHL1    H814637   5.558   1.089  15.481  0.4200 -1.6238  1.3414
  114CHL1   C1414638   5.739   1.122  15.381  0.0017  0.2349 -0.0196
  114CHL1   H1414639   5.841   1.163  15.391 -0.7167  2.8757 -2.1887
  114CHL1   C1514640   5.681   1.205  15.268 -0.2815 -0.4025  0.4148
  114CHL1  H15A14641   5.571   1.190  15.274 -0.4751  0.4705 -0.5905
  114CHL1  H15B14642   5.683   1.315  15.276 -3.7523 -0.3136  1.6420
  114CHL1   C1614643   5.751   1.150  15.142  0.4597 -0.0155 -0.1533
  114CHL1  H16A14644   5.667   1.129  15.072 -0.4596 -0.4117  1.0252
  114CHL1  H16B14645   5.812   1.231  15.097 -1.5819  1.8041  0.1363
  114CHL1   C1714646   5.827   1.021  15.187  0.0848  0.3383 -0.4451
  114CHL1   H1714647   5.933   1.050  15.200  0.9062 -1.2787 -2.8611
  114CHL1   C1314648   5.762   0.981  15.323  0.5489  0.3238  0.3943
  114CHL1   C1814649   5.627   0.921  15.291 -0.7196  0.0101  1.0705
  114CHL1  H18A14650   5.634   0.813  15.264 -1.5406 -0.3839  2.3446
  114CHL1  H18B14651   5.571   0.930  15.386  1.5382  0.3947  2.4445
  114CHL1  H18C14652   5.579   0.979  15.209 -0.4194  0.0261  0.9070
  114CHL1   C1214653   5.850   0.913  15.433  0.0242 -0.1658 -0.5578
  114CHL1  H12A14654   5.886   0.811  15.406  2.4834  0.6750 -0.7769
  114CHL1  H12B14655   5.948   0.965  15.449  1.0822 -1.8951 -1.1674
  114CHL1   C1114656   5.781   0.901  15.565  0.3542 -0.5340 -0.5909
  114CHL1  H11A14657   5.696   0.830  15.559  0.9637 -1.1948 -1.6563
  114CHL1  H11B14658   5.855   0.855  15.633  0.3478  1.2515  0.7178
  114CHL1    C914659   5.733   1.049  15.615  0.0119 -0.2290 -0.0666
  114CHL1    H914660   5.832   1.099  15.626 -0.1268  0.1187 -0.3830
  114CHL1   C1014661   5.661   1.054  15.754 -0.1567 -0.0221 -0.2756
  114CHL1   C1914662   5.551   0.947  15.742  0.1416  0.4326  0.1841
  114CHL1  H19A14663   5.490   0.938  15.833  0.8316  2.5951  0.9359
  114CHL1  H19B14664   5.481   0.975  15.660  0.0437 -2.3693 -0.7739
  114CHL1  H19C14665   5.586   0.842  15.734 -0.0455  0.4475 -1.0322
  114CHL1    C114666   5.768   1.027  15.867  0.6881 -0.2627 -0.4584
  114CHL1   H1A14667   5.816   0.929  15.849  0.4918 -0.5677  0.6128
  114CHL1   H1B14668   5.859   1.091  15.873  1.5309 -1.2033 -2.4163
  114CHL1    C214669   5.701   1.028  16.009 -0.7911  0.4741  0.8426
  114CHL1   H2A14670   5.781   1.009  16.085 -0.1392 -0.5875 -0.0797
  114CHL1   H2B14671   5.634   0.940  16.012 -0.7659  0.4043 -0.2385
  114CHL1   C2014672   5.825   0.913  15.079 -0.2966  0.2299  0.3917
  114CHL1   H2014673   5.721   0.875  15.068  0.0681 -1.1455  1.4316
  114CHL1   C2114674   5.904   0.779  15.114  0.1320  0.4607  0.1602
  114CHL1  H21A14675   5.894   0.712  15.025 -0.3054  0.4679  0.2019
  114CHL1  H21B14676   5.861   0.735  15.207 -2.8709  0.5180 -1.0860
  114CHL1  H21C14677   6.010   0.801  15.136  0.1150 -0.6558  1.5068
  114CHL1   C2214678   5.867   0.967  14.943  0.2391 -0.3354  0.2381
  114CHL1  H22A14679   5.931   1.057  14.956 -1.9433  1.1103  1.6132
  114CHL1  H22B14680   5.939   0.902  14.888  1.7609  1.4040  0.0943
  114CHL1   C2314681   5.763   0.993  14.842  0.2733  0.0952  0.3411
  114CHL1  H23A14682   5.695   0.905  14.849 -0.4246  0.7746  3.3562
  114CHL1  H23B14683   5.705   1.084  14.869  0.0701 -0.3405  1.4258
  114CHL1   C2414684   5.826   1.016  14.705 -0.1369  0.2145  0.8753
  114CHL1  H24A14685   5.920   1.075  14.716  0.9220 -1.0289 -1.0108
  114CHL1  H24B14686   5.853   0.918  14.662 -0.1418  0.1016  1.1279
  114CHL1   C2514687   5.735   1.092  14.606 -0.1424 -0.4469 -0.7422
  114CHL1   H2514688   5.709   1.189  14.653 -3.4048 -1.1409 -0.9272
  114CHL1   C2614689   5.794   1.124  14.467  0.0220 -0.4371 -0.0459
  114CHL1  H26A14690   5.889   1.178  14.488 -1.2618  2.4874 -1.2649
  114CHL1  H26B14691   5.810   1.030  14.409  3.0448 -0.6585  0.9599
  114CHL1  H26C14692   5.726   1.192  14.412 -1.2644 -0.8625  0.9549
  114CHL1   C2714693   5.601   1.016  14.595 -0.2207 -0.1654  0.5689
  114CHL1  H27A14694   5.626   0.923  14.539 -0.7740 -1.0919  1.8042
  114CHL1  H27B14695   5.549   0.997  14.691  1.6247  2.0038  2.1043
  114CHL1  H27C14696   5.538   1.067  14.519 -2.1788 -2.2817  0.6785
  115CHL1    C314697   3.123   0.779  15.607  0.6846 -0.2105 -0.4190
  115CHL1    H314698   3.084   0.675  15.600  1.1787 -0.6525  2.2944
  115CHL1    O314699   3.092   0.839  15.731 -0.3335 -0.0275 -0.0388
  115CHL1   H3'14700   3.095   0.767  15.795 -1.4230 -1.1676 -1.2165
  115CHL1    C414701   3.275   0.763  15.599 -0.2356  0.4158  0.2444
  115CHL1   H4A14702   3.325   0.861  15.615  1.8163 -0.5509  0.1272
  115CHL1   H4B14703   3.316   0.691  15.673  0.1381  0.5297  0.1489
  115CHL1    C514704   3.321   0.723  15.464 -0.5560  0.1921  0.5378
  115CHL1    C614705   3.385   0.606  15.444  0.8562  0.9423 -0.7989
  115CHL1    H614706   3.409   0.550  15.536 -3.2419  2.1692  1.2713
  115CHL1    C714707   3.426   0.553  15.316 -0.3931  0.4131 -0.1005
  115CHL1   H7A14708   3.522   0.497  15.319 -1.1917 -1.0242  3.0147
  115CHL1   H7B14709   3.343   0.487  15.284  0.3887 -0.9359  0.5710
  115CHL1    C814710   3.431   0.664  15.207 -0.2579 -0.5294 -0.2754
  115CHL1    H814711   3.513   0.736  15.230 -0.8565  0.7535 -1.9155
  115CHL1   C1414712   3.446   0.608  15.075 -0.2237 -0.1209  0.9799
  115CHL1   H1414713   3.352   0.550  15.061  0.9601 -1.6084 -1.2358
  115CHL1   C1514714   3.548   0.499  15.044  0.4959 -0.7082 -0.3583
  115CHL1  H15A14715   3.642   0.536  15.091 -0.6039  3.1716 -0.8589
  115CHL1  H15B14716   3.518   0.405  15.096 -1.8437  0.5858  0.7874
  115CHL1   C1614717   3.562   0.502  14.892 -0.4857  0.2830 -0.3851
  115CHL1  H16A14718   3.665   0.539  14.872  0.4251 -0.7068  2.0942
  115CHL1  H16B14719   3.536   0.407  14.841  0.2099  0.0439 -0.2996
  115CHL1   C1714720   3.477   0.623  14.831  0.6177  0.8791  0.2786
  115CHL1   H1714721   3.379   0.579  14.805  0.9024  0.7097 -0.5486
  115CHL1   C1314722   3.450   0.709  14.953  0.0871 -0.0751 -0.3119
  115CHL1   C1814723   3.574   0.797  14.963 -0.8558  0.6156  0.6936
  115CHL1  H18A14724   3.660   0.728  14.949 -2.1626 -0.9258 -0.1066
  115CHL1  H18B14725   3.583   0.876  14.885 -2.7389  0.2689  0.0623
  115CHL1  H18C14726   3.581   0.847  15.062 -1.0801  0.4252  0.8067
  115CHL1   C1214727   3.315   0.799  14.955 -0.7181  0.1081 -0.2769
  115CHL1  H12A14728   3.321   0.874  14.873 -2.8247 -0.1225 -0.7001
  115CHL1  H12B14729   3.232   0.727  14.937  0.9655 -1.9470 -0.3078
  115CHL1   C1114730   3.300   0.862  15.093 -0.4308 -0.3865 -0.5406
  115CHL1  H11A14731   3.385   0.929  15.117 -1.2915  0.0473  1.4871
  115CHL1  H11B14732   3.209   0.925  15.105  1.2157  1.9676  0.4295
  115CHL1    C914733   3.308   0.755  15.208 -0.2573  0.9763 -0.0594
  115CHL1    H914734   3.226   0.683  15.187 -0.9045  1.6581  0.0879
  115CHL1   C1014735   3.275   0.811  15.351  0.3972  0.5687  0.8409
  115CHL1   C1914736   3.337   0.956  15.362 -0.3411 -0.4424  0.1342
  115CHL1  H19A14737   3.440   0.975  15.325 -0.1181 -1.1313  0.3891
  115CHL1  H19B14738   3.271   1.027  15.307 -0.8928 -0.6431  0.5251
  115CHL1  H19C14739   3.335   0.996  15.466  1.7678  0.3372 -0.0731
  115CHL1    C114740   3.116   0.813  15.365  0.0198  0.5442 -0.3231
  115CHL1   H1A14741   3.083   0.877  15.280 -2.6173  0.2971  0.4163
  115CHL1   H1B14742   3.079   0.709  15.351 -0.0673  0.6955 -1.2493
  115CHL1    C214743   3.068   0.870  15.496 -1.0415  0.5588  0.8233
  115CHL1   H2A14744   2.960   0.894  15.492 -1.4150 -1.1505 -0.6824
  115CHL1   H2B14745   3.124   0.966  15.499 -0.3356  0.5932 -4.4973
  115CHL1   C2014746   3.529   0.678  14.692 -0.1039 -0.9630  0.2077
  115CHL1   H2014747   3.612   0.748  14.715 -0.7766 -0.3540  0.8674
  115CHL1   C2114748   3.419   0.767  14.633 -0.1992  0.4254 -0.3774
  115CHL1  H21A14749   3.455   0.787  14.529  1.8889 -1.3179 -0.0607
  115CHL1  H21B14750   3.423   0.865  14.685  0.0015  1.3272 -2.0201
  115CHL1  H21C14751   3.317   0.725  14.643  0.6067 -1.0830  3.2872
  115CHL1   C2214752   3.572   0.569  14.591  0.4064  0.6511  0.0323
  115CHL1  H22A14753   3.619   0.626  14.509 -3.3812  2.6851 -0.9308
  115CHL1  H22B14754   3.648   0.508  14.645  0.7532  1.1840  0.1463
  115CHL1   C2314755   3.456   0.477  14.545 -0.2178 -0.1948  0.0047
  115CHL1  H23A14756   3.383   0.455  14.626 -0.6674 -0.8581 -0.5661
  115CHL1  H23B14757   3.396   0.535  14.472  0.4633  1.5012  0.7226
  115CHL1   C2414758   3.507   0.344  14.476 -0.1558 -0.8088  0.9951
  115CHL1  H24A14759   3.416   0.301  14.429 -0.2977  0.9037 -0.3980
  115CHL1  H24B14760   3.579   0.380  14.400  0.2595 -0.0223  1.7396
  115CHL1   C2514761   3.581   0.249  14.569  0.2201 -0.2987  0.0762
  115CHL1   H2514762   3.632   0.310  14.647 -0.7185 -0.2559  0.6833
  115CHL1   C2614763   3.488   0.148  14.632  0.4943 -0.1934 -0.0065
  115CHL1  H26A14764   3.441   0.193  14.722 -0.0564 -0.1156 -0.3278
  115CHL1  H26B14765   3.407   0.116  14.563 -0.1220  1.7420 -0.2322
  115CHL1  H26C14766   3.547   0.062  14.671  0.0452  0.0058  1.1757
  115CHL1   C2714767   3.679   0.181  14.476 -0.3191 -0.2514  0.2182
  115CHL1  H27A14768   3.734   0.103  14.533  1.3362 -0.0480 -1.0344
  115CHL1  H27B14769   3.626   0.140  14.388 -0.6285 -0.8116  0.6568
  115CHL1  H27C14770   3.749   0.256  14.433 -2.2469  1.5878  0.0935
  116CHL1    C314771   3.702   1.323  15.421 -0.0512  0.9170  0.1570
  116CHL1    H314772   3.785   1.248  15.414 -0.0498  0.7343  1.7795
  116CHL1    O314773   3.725   1.375  15.555 -0.6050  0.3819 -0.4222
  116CHL1   H3'14774   3.652   1.437  15.566 -0.0370  1.1619 -0.9069
  116CHL1    C414775   3.728   1.436  15.318 -0.4486  0.6572 -0.0645
  116CHL1   H4A14776   3.668   1.525  15.346 -0.2214  0.1269  2.2978
  116CHL1   H4B14777   3.835   1.462  15.326 -0.1012 -0.9474  0.8953
  116CHL1    C514778   3.687   1.401  15.175  1.2486  0.6971 -0.1866
  116CHL1    C614779   3.782   1.414  15.083  0.1987  0.0364 -0.4258
  116CHL1    H614780   3.877   1.465  15.105  0.8534 -1.3540  0.0546
  116CHL1    C714781   3.754   1.375  14.939  0.1438  0.0485  0.0981
  116CHL1   H7A14782   3.799   1.440  14.861  3.5853 -3.1090 -0.7923
  116CHL1   H7B14783   3.788   1.273  14.911  0.3691  0.8243 -2.7750
  116CHL1    C814784   3.601   1.375  14.900  0.0821 -0.2028 -0.0843
  116CHL1    H814785   3.558   1.477  14.912 -1.4606 -0.8753  0.2868
  116CHL1   C1414786   3.571   1.310  14.771  0.3813 -0.5733  0.4194
  116CHL1   H1414787   3.608   1.206  14.777 -1.3767 -1.2770 -0.2493
  116CHL1   C1514788   3.643   1.370  14.649  0.2758  0.3743 -1.0289
  116CHL1  H15A14789   3.618   1.478  14.658 -1.2480 -0.0426  0.3577
  116CHL1  H15B14790   3.753   1.358  14.648  0.2732  0.2249 -0.3641
  116CHL1   C1614791   3.563   1.322  14.533 -0.3433 -0.1665 -0.4749
  116CHL1  H16A14792   3.517   1.407  14.480 -0.5122 -1.1837 -2.0357
  116CHL1  H16B14793   3.621   1.259  14.462  0.4820  0.0287  0.0028
  116CHL1   C1714794   3.453   1.233  14.583  0.3709 -0.2717 -0.0835
  116CHL1   H1714795   3.502   1.133  14.586 -0.5898 -0.7786 -0.7627
  116CHL1   C1314796   3.424   1.286  14.726  0.6449 -0.1871 -0.2131
  116CHL1   C1814797   3.343   1.415  14.720  0.2263 -0.3657  0.3413
  116CHL1  H18A14798   3.364   1.463  14.622  2.1463 -0.8474  0.4678
  116CHL1  H18B14799   3.234   1.397  14.721 -0.2543  2.1708  1.7085
  116CHL1  H18C14800   3.376   1.503  14.780  2.0321 -1.5852  1.2002
  116CHL1   C1214801   3.364   1.191  14.831  0.0824  0.2900  0.3685
  116CHL1  H12A14802   3.261   1.165  14.799 -0.2048 -0.2846  1.6912
  116CHL1  H12B14803   3.420   1.095  14.823  1.4057  1.0070  0.7187
  116CHL1   C1114804   3.380   1.252  14.974 -0.1503  0.4030  0.7833
  116CHL1  H11A14805   3.312   1.339  14.983  0.7154  1.2911 -0.8763
  116CHL1  H11B14806   3.346   1.175  15.047 -0.1222 -1.9279 -1.4995
  116CHL1    C914807   3.529   1.288  15.005  0.5902  0.0324 -0.1512
  116CHL1    H914808   3.584   1.191  15.005  0.9793  0.1794 -2.8339
  116CHL1   C1014809   3.552   1.336  15.150  0.1725 -0.6002  0.5105
  116CHL1   C1914810   3.444   1.446  15.183  0.0642 -0.1839  0.0302
  116CHL1  H19A14811   3.464   1.509  15.271 -1.2983 -0.7803  0.8102
  116CHL1  H19B14812   3.436   1.514  15.096  3.5375 -0.0448 -0.3200
  116CHL1  H19C14813   3.349   1.388  15.187  1.1870 -2.0326  2.9015
  116CHL1    C114814   3.534   1.222  15.257 -0.0197 -0.1755 -0.2143
  116CHL1   H1A14815   3.424   1.204  15.259 -0.4307  2.0518 -0.4560
  116CHL1   H1B14816   3.598   1.134  15.235  0.2628  0.4573 -2.1561
  116CHL1    C214817   3.562   1.258  15.406 -0.2728 -0.1593 -0.0927
  116CHL1   H2A14818   3.567   1.162  15.461  0.8196  0.2115  0.4747
  116CHL1   H2B14819   3.487   1.333  15.440  1.2935  1.2113  0.4598
  116CHL1   C2014820   3.338   1.223  14.480 -0.5625 -0.5129  0.2800
  116CHL1   H2014821   3.285   1.321  14.476  1.7200  0.7875  0.2167
  116CHL1   C2114822   3.227   1.125  14.527 -0.8328 -0.0422  0.2467
  116CHL1  H21A14823   3.166   1.154  14.615  0.7241  0.2791  1.2546
  116CHL1  H21B14824   3.287   1.035  14.552 -1.9484 -0.8992 -0.0758
  116CHL1  H21C14825   3.148   1.106  14.452 -0.5373 -2.3226  0.4447
  116CHL1   C2214826   3.389   1.190  14.332 -1.0696 -0.4539 -0.4291
  116CHL1  H22A14827   3.292   1.198  14.277 -0.8911 -1.2088 -0.8579
  116CHL1  H22B14828   3.468   1.259  14.297 -0.1547 -1.4916 -0.4455
  116CHL1   C2314829   3.433   1.042  14.317 -0.5042 -0.4551 -0.3342
  116CHL1  H23A14830   3.511   1.015  14.391 -1.3857  0.0046  0.7989
  116CHL1  H23B14831   3.348   0.973  14.337 -0.5652 -0.8740 -1.8848
  116CHL1   C2414832   3.486   1.003  14.176 -0.0150  0.6776 -0.6359
  116CHL1  H24A14833   3.400   1.009  14.106  0.5660  1.7060 -1.2936
  116CHL1  H24B14834   3.567   1.067  14.135  1.0569 -1.1930 -1.5799
  116CHL1   C2514835   3.534   0.857  14.179 -0.3625 -0.3244  0.0808
  116CHL1   H2514836   3.609   0.855  14.262 -1.2394 -0.9751  0.8719
  116CHL1   C2614837   3.427   0.753  14.214 -0.4754  0.2234 -0.0395
  116CHL1  H26A14838   3.463   0.650  14.236 -1.9362 -0.6719 -1.6491
  116CHL1  H26B14839   3.389   0.775  14.317 -1.6366  0.8339 -0.5794
  116CHL1  H26C14840   3.337   0.760  14.149 -0.2489  1.9934 -0.2232
  116CHL1   C2714841   3.613   0.827  14.043  0.7689 -0.1501 -0.3733
  116CHL1  H27A14842   3.543   0.833  13.957  3.7014  0.5442 -2.8853
  116CHL1  H27B14843   3.687   0.906  14.017 -2.0121  2.0156 -2.2407
  116CHL1  H27C14844   3.657   0.725  14.038  0.7808 -0.3071  1.8579
  117CHL1    C314845   5.136   0.683  15.962  0.1137  0.1415 -0.6006
  117CHL1    H314846   5.128   0.789  15.991 -1.6149 -0.1583  0.0999
  117CHL1    O314847   5.127   0.612  16.082  0.4831 -0.1538  0.1250
  117CHL1   H3'14848   5.034   0.606  16.104  0.4581 -0.6872 -0.1185
  117CHL1    C414849   5.019   0.643  15.866  0.6536  0.7176 -0.4662
  117CHL1   H4A14850   5.017   0.532  15.867  1.4077  0.6923  1.2873
  117CHL1   H4B14851   4.927   0.680  15.915  1.7538  1.6683  0.9606
  117CHL1    C514852   5.035   0.685  15.719  0.3970  0.0462 -0.6461
  117CHL1    C614853   4.945   0.749  15.649 -0.3092 -0.4424 -0.6515
  117CHL1    H614854   4.854   0.786  15.699  0.3601  1.5806 -0.8828
  117CHL1    C714855   4.960   0.775  15.500  0.4709 -0.2555  0.4911
  117CHL1   H7A14856   4.863   0.744  15.455  0.0459  0.8789  0.5896
  117CHL1   H7B14857   4.977   0.884  15.489  0.9781 -0.4974 -1.6674
  117CHL1    C814858   5.076   0.695  15.436  0.1793 -0.6056  0.0284
  117CHL1    H814859   5.047   0.587  15.432  2.2167 -1.1841 -0.4165
  117CHL1   C1414860   5.102   0.750  15.290  0.8206 -0.4580  0.0516
  117CHL1   H1414861   5.122   0.858  15.304  3.6812 -0.8663 -0.2531
  117CHL1   C1514862   4.982   0.750  15.187  0.7126  0.3635  0.0235
  117CHL1  H15A14863   4.925   0.655  15.190 -0.3576  0.8265 -2.7506
  117CHL1  H15B14864   4.918   0.837  15.214  2.2845  1.5353  0.1551
  117CHL1   C1614865   5.063   0.769  15.052 -0.1823  0.1477 -0.5181
  117CHL1  H16A14866   5.035   0.688  14.982 -3.2882 -1.2721  2.1159
  117CHL1  H16B14867   5.037   0.869  15.011 -1.9099  0.2334  0.6731
  117CHL1   C1714868   5.216   0.762  15.083  0.3803 -0.0703 -0.3463
  117CHL1   H1714869   5.241   0.869  15.095 -1.0534  0.1811  0.7979
  117CHL1   C1314870   5.224   0.690  15.221  0.2569  0.1083  0.6124
  117CHL1   C1814871   5.204   0.540  15.196 -0.7197  0.7045  0.0049
  117CHL1  H18A14872   5.120   0.529  15.124  0.3262 -1.1936 -0.9976
  117CHL1  H18B14873   5.294   0.498  15.146 -0.7494 -1.4341  1.5893
  117CHL1  H18C14874   5.206   0.472  15.284 -0.8954  1.8908  0.9483
  117CHL1   C1214875   5.348   0.723  15.311 -0.4619  0.4199  0.2177
  117CHL1  H12A14876   5.435   0.668  15.269 -1.2206 -1.2956  0.7893
  117CHL1  H12B14877   5.372   0.831  15.308  3.4473 -0.2868 -0.6618
  117CHL1   C1114878   5.327   0.668  15.449  0.6015  0.6639  0.0840
  117CHL1  H11A14879   5.327   0.559  15.425  1.9732  0.5443  0.4906
  117CHL1  H11B14880   5.420   0.687  15.508  0.5379  0.0128  0.4069
  117CHL1    C914881   5.200   0.711  15.524  0.4566  0.5679  0.5424
  117CHL1    H914882   5.199   0.821  15.538 -0.2012  0.3736  2.1635
  117CHL1   C1014883   5.172   0.647  15.662  0.2957  0.9413  0.0270
  117CHL1   C1914884   5.192   0.495  15.653 -0.0784  0.4785 -0.0874
  117CHL1  H19A14885   5.131   0.441  15.577  4.4456 -1.3464 -2.8745
  117CHL1  H19B14886   5.294   0.470  15.617 -1.2077 -1.4221 -2.2436
  117CHL1  H19C14887   5.176   0.442  15.750  2.4032 -0.1638  0.0489
  117CHL1    C114888   5.283   0.703  15.757  0.0102 -0.6591  0.1694
  117CHL1   H1A14889   5.374   0.668  15.704 -1.3651 -0.9094 -2.2049
  117CHL1   H1B14890   5.271   0.814  15.755 -1.9791 -0.8212  0.4558
  117CHL1    C214891   5.270   0.654  15.900  0.3056 -0.0430  0.4238
  117CHL1   H2A14892   5.349   0.698  15.963  1.6593 -1.1499 -0.4329
  117CHL1   H2B14893   5.277   0.543  15.913 -1.9879 -0.3218 -0.2818
  117CHL1   C2014894   5.301   0.710  14.965  0.0216 -0.0657  0.2634
  117CHL1   H2014895   5.318   0.601  14.969 -1.6331 -0.3123  1.4490
  117CHL1   C2114896   5.446   0.767  14.975  0.0631  0.6853  0.1878
  117CHL1  H21A14897   5.494   0.744  15.073  2.5853 -0.0713 -1.1488
  117CHL1  H21B14898   5.431   0.877  14.975  0.1172  0.6949  0.5149
  117CHL1  H21C14899   5.506   0.741  14.885 -1.1375 -0.9783 -0.1625
  117CHL1   C2214900   5.245   0.737  14.822  0.6757 -0.4419 -0.5853
  117CHL1  H22A14901   5.149   0.681  14.814 -0.8818  2.0297 -0.1279
  117CHL1  H22B14902   5.216   0.843  14.832  0.3555 -0.6475  0.9724
  117CHL1   C2314903   5.330   0.719  14.705  0.2819 -0.5315  0.2685
  117CHL1  H23A14904   5.266   0.750  14.619 -1.9151  1.4016  2.4748
  117CHL1  H23B14905   5.420   0.784  14.705  0.6685 -1.0202  2.2082
  117CHL1   C2414906   5.373   0.573  14.685  0.0541 -0.1593  0.2073
  117CHL1  H24A14907   5.455   0.550  14.756 -2.2949  0.2237  3.2523
  117CHL1  H24B14908   5.289   0.505  14.709  1.1063 -1.4972  0.2185
  117CHL1   C2514909   5.415   0.541  14.541 -0.1783 -0.3002  0.0405
  117CHL1   H2514910   5.446   0.434  14.543  0.0781 -0.2250  1.3196
  117CHL1   C2614911   5.307   0.543  14.444 -0.1232  0.2223  0.2093
  117CHL1  H26A14912   5.329   0.513  14.339 -0.8716  0.2546  0.0408
  117CHL1  H26B14913   5.246   0.458  14.481 -1.7755  0.2583 -2.2518
  117CHL1  H26C14914   5.249   0.637  14.436  0.9612  1.2053  2.7604
  117CHL1   C2714915   5.527   0.633  14.493 -0.1645 -0.7288 -0.3079
  117CHL1  H27A14916   5.494   0.739  14.484  0.8794 -0.4053 -0.5122
  117CHL1  H27B14917   5.614   0.632  14.562 -0.4699 -2.8257  0.0998
  117CHL1  H27C14918   5.566   0.604  14.393 -0.3861  1.0879 -0.9641
  118CHL1    C314919   7.953   1.857  15.921  0.0066  0.1676  0.4253
  118CHL1    H314920   8.032   1.911  15.865  0.6647  1.2538  2.3220
  118CHL1    O314921   7.979   1.878  16.063 -0.0650  0.3871 -0.3083
  118CHL1   H3'14922   7.917   1.818  16.106  2.4019  0.1128  3.2470
  118CHL1    C414923   7.818   1.918  15.892 -0.0010  0.2013 -0.0552
  118CHL1   H4A14924   7.741   1.881  15.963 -1.2224  2.2244 -0.2461
  118CHL1   H4B14925   7.819   2.028  15.909  0.9516  0.2293 -0.2529
  118CHL1    C514926   7.771   1.886  15.753 -0.2660 -0.1112  0.4747
  118CHL1    C614927   7.731   1.990  15.678 -0.2234  0.6637  0.9331
  118CHL1    H614928   7.720   2.094  15.713 -0.8845  0.3084  1.8263
  118CHL1    C714929   7.679   1.962  15.542 -0.0851 -0.1526  0.2933
  118CHL1   H7A14930   7.587   2.024  15.529  1.0672  2.3713  2.9193
  118CHL1   H7B14931   7.755   1.993  15.468 -0.5336  0.9495  0.2704
  118CHL1    C814932   7.646   1.815  15.519  0.4333  0.0378  0.3408
  118CHL1    H814933   7.563   1.778  15.582 -0.9442 -0.5176 -1.6962
  118CHL1   C1414934   7.625   1.791  15.373  0.7354 -0.2114 -0.6684
  118CHL1   H1414935   7.720   1.819  15.323  0.4104 -0.3855 -1.4032
  118CHL1   C1514936   7.520   1.884  15.306  0.3280  0.3155 -0.2733
  118CHL1  H15A14937   7.426   1.906  15.361 -0.7075  0.1150 -1.9039
  118CHL1  H15B14938   7.566   1.982  15.282  0.0514  0.6240  0.4183
  118CHL1   C1614939   7.490   1.803  15.185  0.0814 -0.6803 -0.6369
  118CHL1  H16A14940   7.382   1.774  15.186 -0.2585  0.5194 -0.8865
  118CHL1  H16B14941   7.507   1.857  15.089 -3.1811  2.3045  0.2416
  118CHL1   C1714942   7.569   1.665  15.190 -0.0096 -0.0178 -0.0731
  118CHL1   H1714943   7.661   1.693  15.134  0.1824 -2.0607 -0.8616
  118CHL1   C1314944   7.592   1.645  15.336  0.2837 -0.3736  0.0081
  118CHL1   C1814945   7.464   1.596  15.403 -0.6519  0.0618  0.0730
  118CHL1  H18A14946   7.373   1.658  15.389  0.6049  1.9861  0.0964
  118CHL1  H18B14947   7.436   1.491  15.377  3.0437 -0.6560 -1.6578
  118CHL1  H18C14948   7.483   1.596  15.512  0.3583 -1.2971 -0.0796
  118CHL1   C1214949   7.717   1.559  15.370  0.9953  0.2550  0.2453
  118CHL1  H12A14950   7.692   1.455  15.340 -1.5952  0.8277  0.2095
  118CHL1  H12B14951   7.800   1.605  15.313  0.9449 -0.4498 -0.4167
  118CHL1   C1114952   7.751   1.574  15.518 -0.0803 -0.9584 -0.0799
  118CHL1  H11A14953   7.670   1.525  15.577  0.2469 -2.0243 -0.4988
  118CHL1  H11B14954   7.844   1.518  15.539  0.7405  0.6970  0.9103
  118CHL1    C914955   7.762   1.722  15.555  0.0851  0.1163 -1.2902
  118CHL1    H914956   7.849   1.773  15.508 -1.2931  0.8323 -3.2264
  118CHL1   C1014957   7.785   1.740  15.710 -0.1971  0.2896 -0.0955
  118CHL1   C1914958   7.683   1.659  15.797  1.3157  0.2004  0.2526
  118CHL1  H19A14959   7.709   1.551  15.791  0.6882  0.0916 -0.7988
  118CHL1  H19B14960   7.696   1.680  15.905 -0.1337 -0.9774  0.6862
  118CHL1  H19C14961   7.578   1.684  15.771  1.8144  1.6236 -0.4878
  118CHL1    C114962   7.928   1.673  15.745  0.2140  0.4285 -0.3105
  118CHL1   H1A14963   7.933   1.563  15.739 -0.4325  0.1725  2.3996
  118CHL1   H1B14964   7.994   1.716  15.667  1.2340 -1.9471 -0.8227
  118CHL1    C214965   7.969   1.707  15.894 -0.2552  0.4730 -0.0489
  118CHL1   H2A14966   8.071   1.670  15.917 -0.4953  0.3521  0.8819
  118CHL1   H2B14967   7.915   1.654  15.975 -0.9903  1.1366 -0.0897
  118CHL1   C2014968   7.495   1.557  15.116  0.7373 -0.2365 -0.1284
  118CHL1   H2014969   7.404   1.527  15.172 -1.1909  0.7984 -2.5516
  118CHL1   C2114970   7.593   1.432  15.106  0.3087  0.0863 -0.1666
  118CHL1  H21A14971   7.608   1.369  15.195  2.5989 -1.4100 -1.5141
  118CHL1  H21B14972   7.690   1.459  15.059  0.3005 -0.7526 -0.6976
  118CHL1  H21C14973   7.544   1.367  15.030 -0.9751 -0.1828  0.8627
  118CHL1   C2214974   7.450   1.593  14.973  1.0171 -0.1027  0.1362
  118CHL1  H22A14975   7.443   1.704  14.961  0.2721 -0.0457  0.9731
  118CHL1  H22B14976   7.527   1.570  14.897  0.3593  1.7119 -1.1681
  118CHL1   C2314977   7.322   1.521  14.925 -0.2453 -0.2817  0.4482
  118CHL1  H23A14978   7.313   1.531  14.815  0.3359  0.9984  0.5035
  118CHL1  H23B14979   7.339   1.412  14.935  0.7013 -0.2312 -0.5367
  118CHL1   C2414980   7.195   1.556  14.997 -0.5727  0.2915 -0.1242
  118CHL1  H24A14981   7.194   1.530  15.105 -0.1576 -1.4904 -0.5261
  118CHL1  H24B14982   7.170   1.661  14.973 -0.1494  0.1251 -1.3655
  118CHL1   C2514983   7.071   1.485  14.929 -0.4331  0.0120 -0.8002
  118CHL1   H2514984   7.089   1.506  14.822 -0.7524  0.0427 -0.8485
  118CHL1   C2614985   7.074   1.331  14.952 -0.2483  0.6298  0.4627
  118CHL1  H26A14986   7.081   1.300  15.058  3.1694 -2.1388 -0.3938
  118CHL1  H26B14987   6.980   1.281  14.919 -3.0707  4.3781  1.9746
  118CHL1  H26C14988   7.161   1.290  14.896 -1.2671  2.3354 -2.6655
  118CHL1   C2714989   6.946   1.553  14.974  0.4478  0.2353 -0.4113
  118CHL1  H27A14990   6.915   1.534  15.079 -2.1205  2.3475 -0.6901
  118CHL1  H27B14991   6.941   1.662  14.952 -1.4386  0.1559 -0.5613
  118CHL1  H27C14992   6.858   1.515  14.918 -0.7265  1.1887  0.7228
  119CHL1    C314993   1.667   1.483  15.621 -0.2555 -0.5478 -0.3814
  119CHL1    H314994   1.737   1.399  15.601  2.6604  1.8013 -0.6357
  119CHL1    O314995   1.750   1.577  15.692 -0.5016 -1.0951 -0.5083
  119CHL1   H3'14996   1.802   1.525  15.754 -2.7466 -1.7503  0.9857
  119CHL1    C414997   1.615   1.549  15.490 -0.7757 -0.0171 -0.5249
  119CHL1   H4A14998   1.567   1.646  15.518 -0.2229 -0.0322  0.5308
  119CHL1   H4B14999   1.701   1.563  15.422 -1.8824  0.2333 -1.9265
  119CHL1    C515000   1.513   1.468  15.413  0.0645  0.1886 -0.4787
  119CHL1    C615001   1.530   1.425  15.287 -0.0978 -0.4867 -0.3371
  119CHL1    H615002   1.619   1.458  15.231  0.9314  0.6394  1.8244
  119CHL1    C715003   1.437   1.354  15.205  0.0423  0.2563  0.4738
  119CHL1   H7A15004   1.436   1.393  15.101 -1.2556 -0.4428  0.2077
  119CHL1   H7B15005   1.474   1.249  15.202  0.6158  0.3447  2.6234
  119CHL1    C815006   1.294   1.333  15.269 -0.1915  0.0030 -0.1217
  119CHL1    H815007   1.244   1.428  15.243 -0.4992 -0.0889  0.1228
  119CHL1   C1415008   1.213   1.219  15.208  0.0075  0.1068  0.5051
  119CHL1   H1415009   1.269   1.127  15.237  3.2823  2.1130  1.0394
  119CHL1   C1515010   1.206   1.213  15.056 -0.0450 -0.0058  0.1816
  119CHL1  H15A15011   1.179   1.315  15.021  0.8734  0.9090  1.9851
  119CHL1  H15B15012   1.308   1.190  15.018 -0.8669 -0.6364 -1.7408
  119CHL1   C1615013   1.091   1.119  15.033  0.1172 -0.2618 -0.2398
  119CHL1  H16A15014   1.015   1.170  14.970 -1.1734 -0.7493  0.8821
  119CHL1  H16B15015   1.121   1.023  14.985  0.1999 -1.6265  2.3101
  119CHL1   C1715016   1.020   1.092  15.174  0.6458  0.7553  1.3672
  119CHL1   H1715017   1.065   0.995  15.204 -1.0897 -0.3697  0.4824
  119CHL1   C1315018   1.075   1.200  15.262 -0.4386 -0.4503  0.0794
  119CHL1   C1815019   0.997   1.328  15.233 -0.1302 -0.9066  1.0030
  119CHL1  H18A15020   1.037   1.423  15.275 -2.8774  0.6903  0.2310
  119CHL1  H18B15021   0.983   1.356  15.126 -2.4193 -2.5674  0.7904
  119CHL1  H18C15022   0.890   1.323  15.262 -0.2199 -1.2568  0.6179
  119CHL1   C1215023   1.092   1.174  15.413  0.3054  0.6928 -0.2695
  119CHL1  H12A15024   0.987   1.162  15.447  0.5951  0.3958  0.5482
  119CHL1  H12B15025   1.147   1.080  15.434  1.4101  1.4622  0.3732
  119CHL1   C1115026   1.164   1.284  15.494 -0.2939  0.4419  0.4670
  119CHL1  H11A15027   1.093   1.370  15.497  0.0722  0.7297  1.1901
  119CHL1  H11B15028   1.186   1.250  15.597 -0.0319  0.7389  0.5100
  119CHL1    C915029   1.304   1.324  15.422 -0.2028  0.0841  1.2839
  119CHL1    H915030   1.370   1.236  15.438  0.4140  1.0347  4.8996
  119CHL1   C1015031   1.389   1.427  15.496  0.5063  0.6183 -0.5797
  119CHL1   C1915032   1.296   1.541  15.538  0.5262 -0.0924  0.4348
  119CHL1  H19A15033   1.235   1.583  15.455 -0.6864 -1.3968  0.6105
  119CHL1  H19B15034   1.224   1.514  15.618  0.0204  1.1867  0.4258
  119CHL1  H19C15035   1.363   1.622  15.573 -0.7022  0.7928  0.8227
  119CHL1    C115036   1.438   1.363  15.628  0.2068 -0.3174 -0.3092
  119CHL1   H1A15037   1.342   1.351  15.683 -1.0922  1.7662 -1.9300
  119CHL1   H1B15038   1.488   1.268  15.600  2.9031  1.1118 -0.7139
  119CHL1    C215039   1.545   1.438  15.702  0.1272  0.0505 -0.0374
  119CHL1   H2A15040   1.592   1.379  15.784 -0.3863 -0.5392 -0.1577
  119CHL1   H2B15041   1.499   1.519  15.762 -1.5320 -1.3640  0.7163
  119CHL1   C2015042   0.864   1.073  15.158 -0.6014 -0.1880 -0.1571
  119CHL1   H2015043   0.831   1.176  15.131 -0.6983  0.4734  2.2578
  119CHL1   C2115044   0.790   1.040  15.294  0.7315 -0.5672 -0.2894
  119CHL1  H21A15045   0.683   1.054  15.271  0.5790 -0.2599  0.5335
  119CHL1  H21B15046   0.817   1.115  15.372 -0.3202 -1.1282  0.6535
  119CHL1  H21C15047   0.819   0.939  15.328  3.3054  0.1613 -0.0964
  119CHL1   C2215048   0.823   0.983  15.042 -1.0241 -0.0543 -0.8752
  119CHL1  H22A15049   0.864   1.024  14.948  2.2265 -1.4164 -0.1793
  119CHL1  H22B15050   0.865   0.883  15.064 -0.3320 -0.3078 -3.1334
  119CHL1   C2315051   0.670   0.968  15.015 -0.0444 -0.2192  0.2503
  119CHL1  H23A15052   0.646   0.899  14.931 -0.2993 -1.3939  1.2567
  119CHL1  H23B15053   0.636   0.902  15.098  0.8790  0.7901  1.4537
  119CHL1   C2415054   0.584   1.094  15.004 -0.1878 -0.3708  0.2703
  119CHL1  H24A15055   0.614   1.171  15.078 -1.9804  0.3152  0.3408
  119CHL1  H24B15056   0.601   1.131  14.901 -3.7703 -1.5181 -0.8921
  119CHL1   C2515057   0.429   1.071  15.001 -0.0367 -0.4897 -0.3610
  119CHL1   H2515058   0.390   1.022  15.093  0.5975 -0.0744  0.1337
  119CHL1   C2615059   0.353   1.199  14.965  0.3723 -0.4579 -0.1111
  119CHL1  H26A15060   0.346   1.253  15.062  1.5781 -0.0358 -0.2383
  119CHL1  H26B15061   0.405   1.257  14.885  1.1513 -1.5063 -0.3836
  119CHL1  H26C15062   0.253   1.172  14.926  0.3557 -1.2111  0.4398
  119CHL1   C2715063   0.393   0.967  14.897  0.4359  0.2669  0.2552
  119CHL1  H27A15064   0.444   0.870  14.919  1.2742  0.7358  0.4500
  119CHL1  H27B15065   0.284   0.955  14.878  0.9555  0.2646 -3.3545
  119CHL1  H27C15066   0.433   1.009  14.803  0.4763  1.1048  0.6402
  120CHL1    C315067   7.195   7.327  15.770  0.1629  0.1678  0.0550
  120CHL1    H315068   7.229   7.259  15.689  2.0328  1.1645 -0.0518
  120CHL1    O315069   7.271   7.294  15.889 -0.0823 -0.3599  0.1053
  120CHL1   H3'15070   7.347   7.352  15.883 -0.5521  0.2996  0.4231
  120CHL1    C415071   7.215   7.477  15.738 -0.0837  0.7307 -0.1735
  120CHL1   H4A15072   7.190   7.533  15.830  0.0257  0.2429  0.1540
  120CHL1   H4B15073   7.321   7.492  15.707  0.2218 -0.8678 -0.0131
  120CHL1    C515074   7.131   7.510  15.618 -0.5833 -0.0166  0.5410
  120CHL1    C615075   7.190   7.550  15.505 -0.1887 -0.3594  0.6185
  120CHL1    H615076   7.299   7.565  15.499 -0.1548 -0.1961  1.5196
  120CHL1    C715077   7.107   7.580  15.379 -0.5191 -0.3098  0.0300
  120CHL1   H7A15078   7.152   7.661  15.318  1.4611 -0.9692  0.5369
  120CHL1   H7B15079   7.099   7.493  15.311 -2.3356  0.1476 -0.4095
  120CHL1    C815080   6.962   7.609  15.409 -0.6722 -0.7553 -0.3234
  120CHL1    H815081   6.957   7.708  15.458  0.0937 -0.3037 -1.1216
  120CHL1   C1415082   6.887   7.621  15.275 -0.7854 -0.4230  0.6139
  120CHL1   H1415083   6.891   7.522  15.225 -1.2953 -0.7156  1.1368
  120CHL1   C1515084   6.938   7.724  15.168  0.1780 -0.0008  0.1607
  120CHL1  H15A15085   6.963   7.815  15.228 -0.7626 -0.1283  0.7679
  120CHL1  H15B15086   7.030   7.691  15.116  0.0697  1.7842 -1.2482
  120CHL1   C1615087   6.819   7.737  15.071 -0.1257 -0.2777  0.2136
  120CHL1  H16A15088   6.803   7.845  15.050  0.0436 -0.1797  0.5762
  120CHL1  H16B15089   6.851   7.684  14.978 -0.2679 -0.4489  0.2623
  120CHL1   C1715090   6.701   7.661  15.137  0.1269  0.1820 -0.8963
  120CHL1   H1715091   6.709   7.554  15.106 -1.1974 -0.4613  0.8690
  120CHL1   C1315092   6.744   7.647  15.289  0.3400  0.2167 -0.5146
  120CHL1   C1815093   6.709   7.785  15.361  0.0984 -0.1411 -0.6902
  120CHL1  H18A15094   6.739   7.861  15.286 -1.0224  0.2717 -0.7280
  120CHL1  H18B15095   6.600   7.788  15.381  0.5079 -1.1797  2.3451
  120CHL1  H18C15096   6.744   7.794  15.467 -1.6879 -0.9489 -0.0011
  120CHL1   C1215097   6.679   7.526  15.372 -0.2885 -0.5212 -0.0727
  120CHL1  H12A15098   6.570   7.546  15.385 -0.0960  0.9333 -0.5865
  120CHL1  H12B15099   6.699   7.439  15.306  0.8672 -0.0198 -0.4100
  120CHL1   C1115100   6.747   7.509  15.511 -0.2861  0.5233  0.1989
  120CHL1  H11A15101   6.714   7.595  15.572  0.3865  1.0975 -0.2225
  120CHL1  H11B15102   6.704   7.417  15.556 -2.2244  0.8958 -0.8138
  120CHL1    C915103   6.905   7.500  15.497 -0.1209 -0.7369  0.3361
  120CHL1    H915104   6.922   7.406  15.439  0.6405 -0.6434  0.4014
  120CHL1   C1015105   6.980   7.488  15.634  0.1337  0.7299  0.3136
  120CHL1   C1915106   6.922   7.591  15.731 -0.1341 -0.1706  0.2873
  120CHL1  H19A15107   6.918   7.693  15.685  1.6021 -0.0778  0.2878
  120CHL1  H19B15108   6.821   7.554  15.758  0.3914 -1.2855  0.7749
  120CHL1  H19C15109   6.977   7.605  15.827  0.6480 -0.8384 -0.0574
  120CHL1    C115110   6.954   7.344  15.679 -0.2504 -0.4496  0.0516
  120CHL1   H1A15111   6.852   7.333  15.723 -0.4185  1.3447  0.1935
  120CHL1   H1B15112   6.974   7.268  15.600  0.8225 -0.9740  0.8158
  120CHL1    C215113   7.045   7.294  15.797 -0.5252 -0.0608 -0.1076
  120CHL1   H2A15114   7.044   7.185  15.819  2.6000 -0.3460 -0.9216
  120CHL1   H2B15115   7.026   7.353  15.889  0.0687  1.7937 -1.1333
  120CHL1   C2015116   6.556   7.707  15.117  0.1191 -0.4750 -0.0518
  120CHL1   H2015117   6.512   7.755  15.208  1.1867 -1.5180  1.0462
  120CHL1   C2115118   6.467   7.582  15.093 -0.3407 -0.1052  0.0905
  120CHL1  H21A15119   6.521   7.489  15.124 -0.7423 -0.4080 -0.1172
  120CHL1  H21B15120   6.444   7.566  14.986 -1.2598 -0.5237  0.3462
  120CHL1  H21C15121   6.370   7.600  15.143 -0.5550  0.4028 -0.4981
  120CHL1   C2215122   6.547   7.821  15.011  0.1877  0.4419  0.1804
  120CHL1  H22A15123   6.577   7.915  15.062  0.1533  1.1341 -1.0301
  120CHL1  H22B15124   6.610   7.791  14.925  0.8533 -1.1653  1.1893
  120CHL1   C2315125   6.410   7.837  14.957  0.1230 -0.3239 -0.5632
  120CHL1  H23A15126   6.399   7.756  14.881 -1.4381  0.2210 -0.9537
  120CHL1  H23B15127   6.340   7.816  15.042  1.7310  0.3979  1.0021
  120CHL1   C2415128   6.393   7.971  14.890 -0.2617  0.7053 -0.1452
  120CHL1  H24A15129   6.434   8.048  14.958 -1.8831  0.4247  1.2267
  120CHL1  H24B15130   6.458   7.964  14.800  2.1403 -2.2524  1.6207
  120CHL1   C2515131   6.254   8.008  14.838 -0.7002  0.3716 -0.2278
  120CHL1   H2515132   6.216   7.914  14.791 -3.7133 -0.6724  3.7620
  120CHL1   C2615133   6.168   8.052  14.952  0.2615 -0.0629  0.3083
  120CHL1  H26A15134   6.066   8.090  14.931  0.3454 -0.3545 -0.6663
  120CHL1  H26B15135   6.148   7.967  15.020 -1.2711 -0.1583 -0.2348
  120CHL1  H26C15136   6.220   8.130  15.011  3.1730  0.0910 -2.1894
  120CHL1   C2715137   6.256   8.107  14.721 -0.2608 -0.1159  0.0204
  120CHL1  H27A15138   6.339   8.091  14.649  0.5567  3.6275 -0.0776
  120CHL1  H27B15139   6.158   8.113  14.668  1.0742 -1.2938 -2.7509
  120CHL1  H27C15140   6.273   8.210  14.760  3.1550 -0.9235  0.9571
  121CHL1    C315141   3.841   3.822  13.806  1.3543  0.4162 -0.2576
  121CHL1    H315142   3.915   3.740  13.815  1.5970  0.6612 -0.0165
  121CHL1    O315143   3.862   3.892  13.685 -0.2478  0.6911 -0.0171
  121CHL1   H3'15144   3.859   3.823  13.617  1.0699 -0.6327  1.1891
  121CHL1    C415145   3.690   3.778  13.823 -0.3113  0.7022  0.3331
  121CHL1   H4A15146   3.632   3.872  13.816  0.0018  1.1487  2.8161
  121CHL1   H4B15147   3.668   3.714  13.735  1.4240  0.9136 -0.3028
  121CHL1    C515148   3.678   3.706  13.958  0.1020 -0.4044  0.5464
  121CHL1    C615149   3.629   3.579  13.969 -0.1298  0.3869  0.3639
  121CHL1    H615150   3.595   3.528  13.877  2.5703  0.6226 -0.8719
  121CHL1    C715151   3.616   3.499  14.098 -0.8736  0.2731  0.0940
  121CHL1   H7A15152   3.525   3.437  14.107 -1.2317  0.5940 -1.1341
  121CHL1   H7B15153   3.714   3.446  14.101 -0.1065  1.6752  1.2353
  121CHL1    C815154   3.606   3.606  14.213  0.9906  0.4562  0.3168
  121CHL1    H815155   3.511   3.662  14.219  0.1204 -0.5153 -2.6219
  121CHL1   C1415156   3.614   3.534  14.346 -0.3602  0.2476  0.0356
  121CHL1   H1415157   3.706   3.472  14.352 -0.5336  0.0162  0.3747
  121CHL1   C1515158   3.508   3.431  14.389  0.1671 -0.5045 -0.2488
  121CHL1  H15A15159   3.408   3.468  14.357  0.4107 -0.3499 -0.8370
  121CHL1  H15B15160   3.535   3.336  14.338  1.9263  0.8813 -2.0348
  121CHL1   C1615161   3.510   3.417  14.544  0.1397  0.2063  0.6055
  121CHL1  H16A15162   3.407   3.438  14.581 -0.2525 -0.4059 -0.1141
  121CHL1  H16B15163   3.530   3.314  14.581 -0.2360 -0.7630 -1.7320
  121CHL1   C1715164   3.615   3.530  14.582 -0.0726  0.6283 -0.4799
  121CHL1   H1715165   3.709   3.472  14.573 -1.2188 -1.3056 -0.6222
  121CHL1   C1315166   3.622   3.628  14.469 -0.4647  0.0642  0.6840
  121CHL1   C1815167   3.502   3.731  14.473  0.2053  0.5910 -0.3470
  121CHL1  H18A15168   3.507   3.804  14.389 -0.4391 -0.2511 -1.1392
  121CHL1  H18B15169   3.403   3.683  14.481  0.8132 -0.6223  0.0860
  121CHL1  H18C15170   3.515   3.789  14.567 -1.3743  0.0875  0.2118
  121CHL1   C1215171   3.759   3.706  14.466 -0.5875  0.6910  0.4402
  121CHL1  H12A15172   3.781   3.769  14.555 -0.3500  1.9097 -0.4579
  121CHL1  H12B15173   3.841   3.632  14.461 -0.9058  0.1678  2.0774
  121CHL1   C1115174   3.765   3.787  14.337  0.2858  0.4347  0.7590
  121CHL1  H11A15175   3.695   3.873  14.341 -0.7896 -0.4242  0.6265
  121CHL1  H11B15176   3.863   3.838  14.319 -0.4622  1.1582 -1.5699
  121CHL1    C915177   3.730   3.701  14.204 -0.6760 -0.4355 -0.5004
  121CHL1    H915178   3.816   3.634  14.182  0.4880 -1.0707  4.6394
  121CHL1   C1015179   3.725   3.786  14.076  0.2973 -0.4293  0.7260
  121CHL1   C1915180   3.618   3.897  14.095 -0.0026 -0.2628  0.6979
  121CHL1  H19A15181   3.595   3.946  13.998  1.8252 -3.4861 -1.5430
  121CHL1  H19B15182   3.526   3.855  14.142 -0.2978 -0.7660 -0.2981
  121CHL1  H19C15183   3.662   3.974  14.161  0.3339 -1.2112  1.6095
  121CHL1    C115184   3.870   3.834  14.047 -0.3069 -0.2932 -0.0522
  121CHL1   H1A15185   3.908   3.907  14.122  0.2582  2.1761 -2.5308
  121CHL1   H1B15186   3.934   3.744  14.038 -0.4778 -0.6754  2.0157
  121CHL1    C215187   3.878   3.919  13.917  0.0942  0.0764 -0.6577
  121CHL1   H2A15188   3.980   3.955  13.894 -0.8377  1.3913 -3.0760
  121CHL1   H2B15189   3.803   4.001  13.920  0.6117  0.6342  3.1710
  121CHL1   C2015190   3.612   3.588  14.727  0.4045  0.0577 -0.0726
  121CHL1   H2015191   3.642   3.695  14.723  1.2180  0.0476  3.1365
  121CHL1   C2115192   3.725   3.523  14.813  0.2016  0.0149 -0.1809
  121CHL1  H21A15193   3.720   3.413  14.798  3.2099 -0.4143  1.1214
  121CHL1  H21B15194   3.713   3.546  14.921  0.4950  2.6478 -0.6325
  121CHL1  H21C15195   3.822   3.556  14.769 -0.2084 -1.2095 -2.1034
  121CHL1   C2215196   3.477   3.604  14.797  0.7118 -0.1625 -0.2570
  121CHL1  H22A15197   3.404   3.643  14.724 -0.1836 -3.2730 -1.1774
  121CHL1  H22B15198   3.437   3.507  14.833  0.8750  0.5129  1.8813
  121CHL1   C2315199   3.472   3.694  14.924  0.4082  0.6885  0.0310
  121CHL1  H23A15200   3.537   3.659  15.007  1.3270  1.4074 -0.3570
  121CHL1  H23B15201   3.501   3.800  14.903 -0.5768  0.4252 -3.2437
  121CHL1   C2415202   3.329   3.694  14.989 -0.3726 -0.1811 -0.2608
  121CHL1  H24A15203   3.249   3.721  14.917 -1.7926 -0.4320  1.1626
  121CHL1  H24B15204   3.307   3.590  15.021  1.2418 -0.5264 -0.1852
  121CHL1   C2515205   3.316   3.789  15.113  0.2738 -0.6367 -0.0197
  121CHL1   H2515206   3.341   3.892  15.079  0.3797 -0.8545 -0.6123
  121CHL1   C2615207   3.167   3.792  15.167  0.0307  0.1906 -0.0331
  121CHL1  H26A15208   3.156   3.875  15.240  2.0094  0.0584  0.4774
  121CHL1  H26B15209   3.088   3.802  15.089 -0.9986 -1.2101  0.7679
  121CHL1  H26C15210   3.147   3.696  15.220 -0.3213  0.8045  0.9882
  121CHL1   C2715211   3.409   3.745  15.233 -0.4697  0.1346 -0.2353
  121CHL1  H27A15212   3.387   3.641  15.267  0.0947  0.9006  2.6856
  121CHL1  H27B15213   3.513   3.753  15.195 -0.4536 -0.5949 -0.3779
  121CHL1  H27C15214   3.388   3.819  15.313 -0.0669 -1.6373  1.6008
  122CHL1    C315215   2.999   4.758  13.748 -0.8979  0.5701 -0.2801
  122CHL1    H315216   2.899   4.741  13.794 -0.1362  1.1670  1.6959
  122CHL1    O315217   2.980   4.783  13.611  0.2854  0.0747 -0.6012
  122CHL1   H3'15218   2.886   4.804  13.609 -0.2932 -1.4109  3.0281
  122CHL1    C415219   3.052   4.885  13.799 -0.6156 -0.2542 -0.5569
  122CHL1   H4A15220   3.143   4.925  13.748 -0.3825  0.6579  0.5376
  122CHL1   H4B15221   2.979   4.966  13.781 -0.4868  1.1921  4.2446
  122CHL1    C515222   3.080   4.879  13.952  1.2885  0.8999  0.0068
  122CHL1    C615223   3.002   4.939  14.044 -0.0814 -0.0146  0.2177
  122CHL1    H615224   2.921   5.006  14.012  0.2070 -0.0155 -0.5460
  122CHL1    C715225   3.025   4.917  14.193  0.2524  0.4269  0.2754
  122CHL1   H7A15226   3.012   5.012  14.248  1.7321  1.1324 -0.5426
  122CHL1   H7B15227   2.951   4.841  14.228  0.8704 -1.7556 -2.7383
  122CHL1    C815228   3.161   4.862  14.224  0.4348  0.2630 -0.0813
  122CHL1    H815229   3.235   4.941  14.202 -1.5321  2.2303  0.0372
  122CHL1   C1415230   3.167   4.821  14.371  0.3462 -0.6945  0.3772
  122CHL1   H1415231   3.087   4.745  14.379  0.9237 -1.1596  2.1701
  122CHL1   C1515232   3.133   4.920  14.482 -0.9303 -0.1422  0.1785
  122CHL1  H15A15233   3.186   5.015  14.459  0.3082 -0.9939 -0.5942
  122CHL1  H15B15234   3.025   4.945  14.471 -1.1826 -1.2272  0.1021
  122CHL1   C1615235   3.177   4.861  14.617  0.1031  0.0023 -0.1876
  122CHL1  H16A15236   3.234   4.933  14.680 -1.7989  1.0832  0.3675
  122CHL1  H16B15237   3.088   4.839  14.678  0.6852 -2.1821 -0.0581
  122CHL1   C1715238   3.264   4.739  14.559  0.2962 -0.4550  0.0165
  122CHL1   H1715239   3.192   4.655  14.548  2.6155 -2.6085  0.2560
  122CHL1   C1315240   3.299   4.761  14.414 -0.1395 -0.0188  0.0340
  122CHL1   C1815241   3.415   4.866  14.404  0.5223 -0.2208  0.0558
  122CHL1  H18A15242   3.504   4.805  14.432 -2.3072 -4.1428  1.3589
  122CHL1  H18B15243   3.436   4.893  14.299  1.2959  0.5210  0.3898
  122CHL1  H18C15244   3.401   4.953  14.473 -0.9247 -2.5828  3.0143
  122CHL1   C1215245   3.328   4.636  14.333  0.2512  0.5614 -0.8896
  122CHL1  H12A15246   3.429   4.600  14.362 -0.5928 -1.6119 -0.4480
  122CHL1  H12B15247   3.250   4.558  14.343  0.9809 -0.1321 -0.4305
  122CHL1   C1115248   3.331   4.667  14.182  0.4752  1.2955 -0.1391
  122CHL1  H11A15249   3.416   4.736  14.162 -0.1934  2.6759  1.5686
  122CHL1  H11B15250   3.351   4.571  14.129 -1.6917 -0.3879  1.8549
  122CHL1    C915251   3.194   4.742  14.135 -0.1664  0.0662 -0.5098
  122CHL1    H915252   3.111   4.673  14.165 -0.6038  0.2948 -1.1739
  122CHL1   C1015253   3.179   4.768  13.986 -0.0895  0.1214 -0.7505
  122CHL1   C1915254   3.322   4.811  13.927  0.8012  0.3744 -0.3700
  122CHL1  H19A15255   3.348   4.893  13.996 -3.2100  0.6191  1.1129
  122CHL1  H19B15256   3.395   4.726  13.934  0.6735  0.0699 -2.1404
  122CHL1  H19C15257   3.317   4.852  13.824  1.9857 -2.6607 -1.7966
  122CHL1    C115258   3.138   4.633  13.919 -0.2186  0.1264  0.2981
  122CHL1   H1A15259   3.216   4.555  13.935 -0.1395 -0.2398 -1.6060
  122CHL1   H1B15260   3.050   4.596  13.975  0.4756 -2.6122 -0.2852
  122CHL1    C215261   3.100   4.643  13.769  0.1124 -0.3748 -0.4100
  122CHL1   H2A15262   3.044   4.551  13.741  2.5531 -1.4902 -1.9538
  122CHL1   H2B15263   3.183   4.665  13.699  1.0168  1.2186  1.0949
  122CHL1   C2015264   3.385   4.696  14.642 -0.3961 -0.1567  0.3182
  122CHL1   H2015265   3.480   4.687  14.585 -1.0751 -1.5665 -0.6454
  122CHL1   C2115266   3.347   4.553  14.698 -0.4484  0.0814 -0.2836
  122CHL1  H21A15267   3.422   4.520  14.774 -0.5470 -1.5672 -0.8627
  122CHL1  H21B15268   3.336   4.476  14.619 -0.4718 -1.0203  0.7598
  122CHL1  H21C15269   3.257   4.546  14.763  0.7127 -0.3077  1.3426
  122CHL1   C2215270   3.440   4.792  14.755  0.1311  0.2505  0.2397
  122CHL1  H22A15271   3.441   4.895  14.712  2.3554 -0.5602 -1.9556
  122CHL1  H22B15272   3.378   4.780  14.846 -1.1552  2.3394 -0.2867
  122CHL1   C2315273   3.589   4.767  14.789  0.1416 -0.2739 -0.6772
  122CHL1  H23A15274   3.602   4.664  14.829 -2.3832 -0.0811  0.8213
  122CHL1  H23B15275   3.654   4.777  14.700  0.4909 -1.4301 -0.5685
  122CHL1   C2415276   3.638   4.860  14.902 -0.2037 -0.5442 -0.2938
  122CHL1  H24A15277   3.583   4.850  14.998  0.4702  2.2483  0.4781
  122CHL1  H24B15278   3.743   4.838  14.930  0.2121  0.9474 -0.6323
  122CHL1   C2515279   3.635   5.012  14.866 -0.0062 -0.6106  0.7954
  122CHL1   H2515280   3.533   5.051  14.846  0.6045  1.7292  1.9417
  122CHL1   C2615281   3.668   5.097  14.989 -0.4537  0.0304 -0.5638
  122CHL1  H26A15282   3.674   5.205  14.966 -0.6401 -0.3147 -2.3209
  122CHL1  H26B15283   3.610   5.077  15.082  2.4098 -1.3525  1.0766
  122CHL1  H26C15284   3.776   5.074  15.006 -0.4920  0.2996  0.0578
  122CHL1   C2715285   3.724   5.056  14.745 -0.3432 -0.3124  0.1205
  122CHL1  H27A15286   3.678   5.012  14.654  0.6525 -0.5125 -0.2973
  122CHL1  H27B15287   3.711   5.167  14.741  1.7171  0.1408  2.8201
  122CHL1  H27C15288   3.821   5.002  14.751 -0.3961 -0.2807  1.8348
  123CHL1    C315289   6.883   4.623  13.375 -0.0604  0.2927 -0.1011
  123CHL1    H315290   6.928   4.695  13.446  0.4425  0.0816 -0.1970
  123CHL1    O315291   6.970   4.609  13.261  0.0536 -0.0358 -0.1238
  123CHL1   H3'15292   6.924   4.535  13.223 -2.4431  0.2973  2.0105
  123CHL1    C415293   6.857   4.486  13.442 -0.6682  0.2920  0.5348
  123CHL1   H4A15294   6.796   4.420  13.376  2.2356  0.5262 -2.6543
  123CHL1   H4B15295   6.958   4.449  13.471 -0.1741  1.2778  0.1235
  123CHL1    C515296   6.780   4.506  13.574  0.7238  0.1015 -0.2359
  123CHL1    C615297   6.830   4.475  13.696 -0.9045  0.0118 -0.2744
  123CHL1    H615298   6.921   4.416  13.710 -2.4576 -2.3481  0.4634
  123CHL1    C715299   6.757   4.496  13.828  0.0388  0.5248  0.7994
  123CHL1   H7A15300   6.760   4.407  13.895  0.1560 -2.2565 -2.5919
  123CHL1   H7B15301   6.810   4.578  13.881  0.1831  0.3985  0.8507
  123CHL1    C815302   6.609   4.537  13.807  0.4746 -0.7229  0.1624
  123CHL1    H815303   6.558   4.442  13.782  0.6238 -1.0743  1.1437
  123CHL1   C1415304   6.550   4.603  13.933  0.1377  0.1320  0.8945
  123CHL1   H1415305   6.605   4.699  13.947  0.1499  0.2355  0.1665
  123CHL1   C1515306   6.578   4.530  14.067 -0.0429  0.0355  0.1727
  123CHL1  H15A15307   6.553   4.423  14.053  2.8529 -0.5222 -1.4997
  123CHL1  H15B15308   6.685   4.541  14.097  0.8962  0.2345 -2.9223
  123CHL1   C1615309   6.487   4.597  14.161  0.4002 -0.3320 -0.0692
  123CHL1  H16A15310   6.429   4.523  14.220 -0.4067  2.5065  3.0366
  123CHL1  H16B15311   6.537   4.672  14.226 -1.5803  2.7029 -1.8050
  123CHL1   C1715312   6.387   4.681  14.074  0.2922 -0.0864  0.8193
  123CHL1   H1715313   6.430   4.783  14.065  0.2264 -0.2211 -1.9571
  123CHL1   C1315314   6.402   4.629  13.935 -0.2460 -0.1705 -0.2244
  123CHL1   C1815315   6.324   4.498  13.921 -0.7175 -0.3808  0.0053
  123CHL1  H18A15316   6.343   4.421  13.999  0.2580  0.5271  0.6835
  123CHL1  H18B15317   6.216   4.524  13.926 -0.1929  1.8126  3.2286
  123CHL1  H18C15318   6.330   4.454  13.819 -2.0735  2.3988 -1.3914
  123CHL1   C1215319   6.384   4.734  13.824 -0.0944 -0.6249  1.1704
  123CHL1  H12A15320   6.275   4.744  13.805 -0.0682  0.4722  1.4936
  123CHL1  H12B15321   6.431   4.835  13.832 -3.0489  0.8728  1.0460
  123CHL1   C1115322   6.441   4.692  13.682  0.3367  0.0375  0.0589
  123CHL1  H11A15323   6.377   4.608  13.645 -0.0674  1.1234 -1.8185
  123CHL1  H11B15324   6.424   4.777  13.613  1.8266 -1.6020 -2.5183
  123CHL1    C915325   6.589   4.639  13.694  0.0364  0.1134 -0.5039
  123CHL1    H915326   6.657   4.723  13.719  2.8385 -1.9075 -0.8131
  123CHL1   C1015327   6.650   4.586  13.561  0.2951  0.1139  0.4610
  123CHL1   C1915328   6.538   4.494  13.489 -0.6405  0.2786 -0.2679
  123CHL1  H19A15329   6.444   4.550  13.467 -0.9038 -0.3769 -0.8501
  123CHL1  H19B15330   6.573   4.458  13.390  0.0341 -1.6680  0.6354
  123CHL1  H19C15331   6.505   4.413  13.558  0.3470  1.5022  1.7510
  123CHL1    C115332   6.676   4.709  13.456  0.3525 -0.0894 -1.2153
  123CHL1   H1A15333   6.575   4.754  13.439 -0.5520 -0.3976  2.4556
  123CHL1   H1B15334   6.737   4.784  13.510 -0.6717 -1.6655  2.4874
  123CHL1    C215335   6.751   4.671  13.326  0.0119  0.0860  0.5790
  123CHL1   H2A15336   6.760   4.762  13.262  0.2118 -0.2946  0.0615
  123CHL1   H2B15337   6.700   4.597  13.262 -0.5633  0.8306  0.1568
  123CHL1   C2015338   6.254   4.707  14.135 -0.6534  0.6121  0.4089
  123CHL1   H2015339   6.206   4.606  14.139  0.0645  0.2329 -0.2726
  123CHL1   C2115340   6.173   4.804  14.048 -0.0483 -0.2924 -0.0989
  123CHL1  H21A15341   6.236   4.890  14.015  0.2062 -0.1334  0.7735
  123CHL1  H21B15342   6.084   4.832  14.108 -0.2250 -0.6013 -0.2130
  123CHL1  H21C15343   6.139   4.750  13.957 -0.0045  0.3291 -0.4885
  123CHL1   C2215344   6.271   4.760  14.284 -0.0693 -0.2813 -0.1975
  123CHL1  H22A15345   6.341   4.703  14.349  0.4543  1.2277  0.6232
  123CHL1  H22B15346   6.310   4.864  14.284  0.4682 -0.4539  1.2840
  123CHL1   C2315347   6.137   4.747  14.360  0.1175  0.2228  0.1215
  123CHL1  H23A15348   6.062   4.811  14.308  0.0323  0.2379  0.2614
  123CHL1  H23B15349   6.100   4.642  14.357 -0.8679  0.5316  0.8813
  123CHL1   C2415350   6.118   4.794  14.508  0.3920 -0.2684 -0.5149
  123CHL1  H24A15351   6.161   4.716  14.575  1.0175  0.3406 -0.1914
  123CHL1  H24B15352   6.191   4.877  14.524 -0.6213  0.2153  2.1552
  123CHL1   C2515353   5.967   4.824  14.549 -0.4509 -0.0210  1.1838
  123CHL1   H2515354   5.951   4.923  14.501  1.8663  0.4693  1.2958
  123CHL1   C2615355   5.876   4.729  14.485  0.5962 -0.1588 -0.1725
  123CHL1  H26A15356   5.902   4.629  14.525  0.0829 -1.2658 -2.4583
  123CHL1  H26B15357   5.774   4.759  14.519  0.5881  0.2405 -0.5420
  123CHL1  H26C15358   5.880   4.720  14.375 -2.3238 -0.7650 -0.3164
  123CHL1   C2715359   5.957   4.838  14.700 -0.3359  0.8104 -0.9477
  123CHL1  H27A15360   6.055   4.864  14.747 -0.0562  0.1096 -1.1256
  123CHL1  H27B15361   5.874   4.907  14.726 -1.5906 -0.3958 -1.6166
  123CHL1  H27C15362   5.929   4.739  14.742 -0.1031  1.5500  1.0985
  124CHL1    C315363   3.535   5.778  13.490  1.0911  0.1026  0.2370
  124CHL1    H315364   3.565   5.677  13.454  0.3160  0.0394 -0.2730
  124CHL1    O315365   3.546   5.866  13.377 -0.1408  0.1732  0.5164
  124CHL1   H3'15366   3.515   5.952  13.406  0.3178  0.4400  0.2158
  124CHL1    C415367   3.386   5.774  13.544 -0.1655  0.8339  0.0642
  124CHL1   H4A15368   3.349   5.878  13.557  0.4048  1.0448  0.0171
  124CHL1   H4B15369   3.323   5.742  13.458  1.7498  1.2991 -1.5874
  124CHL1    C515370   3.376   5.679  13.662  0.0938  0.2304  0.8128
  124CHL1    C615371   3.283   5.580  13.674  0.3613  0.7678  0.1409
  124CHL1    H615372   3.211   5.574  13.591  0.3618  2.0892  0.0207
  124CHL1    C715373   3.263   5.492  13.796 -0.2872  0.7367  0.9157
  124CHL1   H7A15374   3.154   5.501  13.815 -0.1658  0.9187  1.5677
  124CHL1   H7B15375   3.293   5.386  13.780  1.0951  0.9504  1.8735
  124CHL1    C815376   3.340   5.539  13.916  0.0478  0.0045  1.5634
  124CHL1    H815377   3.282   5.629  13.947 -2.9805 -1.9420  1.8987
  124CHL1   C1415378   3.355   5.432  14.021 -0.5335  0.1243  0.3775
  124CHL1   H1415379   3.404   5.358  13.956 -0.5322  1.6213 -1.4212
  124CHL1   C1515380   3.235   5.362  14.071  0.1743  0.2749 -0.9203
  124CHL1  H15A15381   3.154   5.432  14.099  1.0300  0.4178  1.4104
  124CHL1  H15B15382   3.194   5.293  13.995 -1.0843 -1.2494  1.0381
  124CHL1   C1615383   3.284   5.283  14.196  0.3181  0.5917  0.2604
  124CHL1  H16A15384   3.206   5.301  14.274  0.7427  0.9590  0.6066
  124CHL1  H16B15385   3.274   5.175  14.172  1.1624  1.0093 -2.3682
  124CHL1   C1715386   3.429   5.331  14.219  0.8778  1.0860  0.1258
  124CHL1   H1715387   3.495   5.260  14.165 -2.5243 -1.2274 -1.3212
  124CHL1   C1315388   3.443   5.459  14.140 -0.6718 -0.0192  0.1013
  124CHL1   C1815389   3.381   5.572  14.229  0.0811 -0.2665 -0.4332
  124CHL1  H18A15390   3.379   5.667  14.170 -0.2033  0.3949  0.6135
  124CHL1  H18B15391   3.278   5.546  14.261  1.1851 -3.0616  1.1036
  124CHL1  H18C15392   3.457   5.585  14.309  1.2510 -0.9662 -1.3997
  124CHL1   C1215393   3.588   5.494  14.091 -0.3426 -0.0341 -0.0266
  124CHL1  H12A15394   3.646   5.528  14.179 -0.7795 -1.3641  0.8004
  124CHL1  H12B15395   3.618   5.397  14.045  0.4460 -0.1141  0.6349
  124CHL1   C1115396   3.581   5.603  13.988 -0.2371 -0.3856 -0.3159
  124CHL1  H11A15397   3.570   5.701  14.040  3.3050  0.0666 -0.1591
  124CHL1  H11B15398   3.686   5.610  13.951 -0.9259  3.7429 -2.1204
  124CHL1    C915399   3.482   5.581  13.872  0.9683  0.1819  0.5263
  124CHL1    H915400   3.520   5.495  13.812 -1.1455 -2.9144  3.2282
  124CHL1   C1015401   3.489   5.698  13.768 -0.5866  0.8169 -0.0394
  124CHL1   C1915402   3.449   5.827  13.840  0.1410 -0.1533  0.4001
  124CHL1  H19A15403   3.532   5.855  13.909  1.9126 -0.9116 -1.3190
  124CHL1  H19B15404   3.419   5.902  13.765  1.8372  0.0122 -0.1668
  124CHL1  H19C15405   3.358   5.809  13.902  0.2757  1.4485  1.1048
  124CHL1    C115406   3.632   5.722  13.698  0.4937 -0.0341  0.1833
  124CHL1   H1A15407   3.700   5.757  13.777  0.4846  0.8086 -0.1726
  124CHL1   H1B15408   3.654   5.620  13.659  1.3675  0.4119 -0.5130
  124CHL1    C215409   3.634   5.824  13.588  0.4285  0.3958  0.4433
  124CHL1   H2A15410   3.735   5.839  13.545 -0.1733 -2.0348 -2.2040
  124CHL1   H2B15411   3.600   5.922  13.626 -2.1694 -0.0702 -0.4407
  124CHL1   C2015412   3.486   5.330  14.362  0.3896 -0.2987 -0.1906
  124CHL1   H2015413   3.558   5.414  14.368  0.5090 -0.4381  0.4038
  124CHL1   C2115414   3.567   5.207  14.386 -0.1481  0.1157  0.0152
  124CHL1  H21A15415   3.629   5.221  14.477 -1.0752 -0.4938  0.7660
  124CHL1  H21B15416   3.642   5.195  14.306  0.3708 -0.1676  0.5383
  124CHL1  H21C15417   3.512   5.112  14.404  1.1949 -0.4411  1.4078
  124CHL1   C2215418   3.371   5.341  14.469  0.5450  0.4846  0.2741
  124CHL1  H22A15419   3.329   5.438  14.436  0.7295  0.5223  0.1498
  124CHL1  H22B15420   3.286   5.270  14.462 -0.2255  1.0998  2.5715
  124CHL1   C2315421   3.415   5.366  14.613  0.9215  0.9570 -0.9001
  124CHL1  H23A15422   3.392   5.285  14.685  1.2384 -0.5805 -2.4527
  124CHL1  H23B15423   3.525   5.372  14.607  1.0688 -0.8675 -0.6563
  124CHL1   C2415424   3.361   5.499  14.668  0.1776 -0.0565  0.2362
  124CHL1  H24A15425   3.392   5.583  14.603  2.0176 -0.5852  0.3755
  124CHL1  H24B15426   3.251   5.483  14.677  0.5658 -2.7123  1.1328
  124CHL1   C2515427   3.413   5.532  14.805  0.2323  0.0691 -0.3029
  124CHL1   H2515428   3.401   5.450  14.879  0.3499  0.8733  0.6359
  124CHL1   C2615429   3.560   5.577  14.796  0.0957  0.1682 -0.3258
  124CHL1  H26A15430   3.626   5.498  14.754  2.0356  1.1633  0.7256
  124CHL1  H26B15431   3.563   5.671  14.738 -2.3598  0.6798  0.2496
  124CHL1  H26C15432   3.591   5.607  14.898 -0.8232 -0.9450  0.3231
  124CHL1   C2715433   3.334   5.652  14.869 -0.2251  0.1413 -0.2395
  124CHL1  H27A15434   3.321   5.733  14.795 -1.3934  1.4754  1.3459
  124CHL1  H27B15435   3.241   5.619  14.920  0.2107  0.3513  0.7235
  124CHL1  H27C15436   3.394   5.697  14.952  1.1709  2.8796 -2.5463
  125CHL1    C315437   5.344   5.898  13.848  0.1828  0.0786 -0.3216
  125CHL1    H315438   5.420   5.964  13.896 -0.8905 -0.0874  1.7032
  125CHL1    O315439   5.400   5.871  13.722 -0.6569  0.3076  0.0235
  125CHL1   H3'15440   5.420   5.952  13.673  0.3154  0.0725  0.0041
  125CHL1    C415441   5.320   5.769  13.925  0.6224  0.4238  0.5082
  125CHL1   H4A15442   5.254   5.697  13.872  2.0051  0.9612 -2.0963
  125CHL1   H4B15443   5.411   5.711  13.952 -1.1564 -1.4430  2.9445
  125CHL1    C515444   5.243   5.811  14.053 -0.3844 -0.4837  0.2652
  125CHL1    C615445   5.293   5.791  14.182 -0.1400 -0.3736  0.7024
  125CHL1    H615446   5.388   5.736  14.190 -0.4424 -0.9294  0.5333
  125CHL1    C715447   5.221   5.826  14.311 -0.7202 -0.1691 -0.5170
  125CHL1   H7A15448   5.223   5.743  14.384 -0.0728  0.8132  0.6168
  125CHL1   H7B15449   5.257   5.925  14.346 -1.9680  0.5057 -1.0570
  125CHL1    C815450   5.067   5.853  14.290 -0.4136 -0.4351  0.2881
  125CHL1    H815451   5.004   5.762  14.280  0.1049 -0.9322  1.3249
  125CHL1   C1415452   5.016   5.934  14.408 -0.5182  0.2014  0.5466
  125CHL1   H1415453   5.072   6.030  14.410 -2.1793  1.2322 -0.0284
  125CHL1   C1515454   5.045   5.872  14.546  0.2198  0.5826 -0.3621
  125CHL1  H15A15455   5.041   5.762  14.530  1.3735  0.7312 -1.8691
  125CHL1  H15B15456   5.151   5.889  14.574 -0.0146  1.1017  0.2431
  125CHL1   C1615457   4.938   5.934  14.639 -0.2792  0.1668  0.3348
  125CHL1  H16A15458   4.880   5.851  14.685 -1.2021  1.2646  1.1794
  125CHL1  H16B15459   4.974   5.995  14.724 -0.3330 -1.4157  1.5295
  125CHL1   C1715460   4.848   6.024  14.543  0.1955  0.3518 -0.2068
  125CHL1   H1715461   4.903   6.121  14.549  0.6555  0.0555  0.5834
  125CHL1   C1315462   4.871   5.969  14.398 -0.1027 -0.5340  0.1361
  125CHL1   C1815463   4.787   5.833  14.383 -0.5202  0.3964 -0.3416
  125CHL1  H18A15464   4.679   5.859  14.391 -0.3040  1.8896 -1.9332
  125CHL1  H18B15465   4.819   5.778  14.292  0.2765  0.6697 -0.2356
  125CHL1  H18C15466   4.815   5.765  14.467 -1.3853  1.6653  1.0299
  125CHL1   C1215467   4.856   6.065  14.277  0.0844 -0.7228 -0.5439
  125CHL1  H12A15468   4.751   6.100  14.267 -0.0967 -1.4169 -1.1843
  125CHL1  H12B15469   4.925   6.152  14.286 -1.1508  0.6262 -2.9586
  125CHL1   C1115470   4.907   5.998  14.151 -0.4905  0.3143  0.0730
  125CHL1  H11A15471   4.838   5.919  14.115  1.4151 -0.6099 -1.7624
  125CHL1  H11B15472   4.903   6.068  14.066  1.7167 -0.2988 -0.5889
  125CHL1    C915473   5.052   5.943  14.171 -0.5824 -0.0989  0.8756
  125CHL1    H915474   5.118   6.030  14.193  1.9138 -2.0911  1.6837
  125CHL1   C1015475   5.109   5.883  14.035  0.1704 -0.2330  0.0606
  125CHL1   C1915476   5.005   5.789  13.967  0.4470  0.2222  0.0974
  125CHL1  H19A15477   4.919   5.846  13.926 -0.5682 -0.2415  1.4966
  125CHL1  H19B15478   5.059   5.746  13.880  0.6505 -0.6017  0.6229
  125CHL1  H19C15479   4.980   5.706  14.036  1.8769 -0.0797  0.2960
  125CHL1    C115480   5.135   6.005  13.948 -0.0826  0.1699 -0.1498
  125CHL1   H1A15481   5.039   6.053  13.920  0.3604  1.0533 -0.1706
  125CHL1   H1B15482   5.182   6.079  14.016  0.8346  0.8699 -1.4925
  125CHL1    C215483   5.208   5.971  13.817 -0.2004  0.0600  0.1968
  125CHL1   H2A15484   5.224   6.066  13.761 -0.9228 -0.3723 -0.7745
  125CHL1   H2B15485   5.146   5.905  13.753 -3.2218  0.1371  2.7582
  125CHL1   C2015486   4.703   6.053  14.585  0.3843  0.5347  0.4383
  125CHL1   H2015487   4.636   5.966  14.570  1.9390 -0.6544  0.1722
  125CHL1   C2115488   4.653   6.189  14.523  0.1043  0.1397  0.6563
  125CHL1  H21A15489   4.736   6.261  14.536  1.2805 -0.8996 -0.7862
  125CHL1  H21B15490   4.569   6.241  14.574  0.9029 -0.1012  2.2989
  125CHL1  H21C15491   4.620   6.172  14.419  1.8681 -1.6811  0.3227
  125CHL1   C2215492   4.689   6.070  14.744  0.0368  0.7292  0.4582
  125CHL1  H22A15493   4.702   5.976  14.802 -2.7468  0.1008  0.1812
  125CHL1  H22B15494   4.767   6.144  14.774  1.5831 -1.1954  1.4469
  125CHL1   C2315495   4.560   6.134  14.792 -0.3987  0.2043  0.2125
  125CHL1  H23A15496   4.569   6.244  14.784  0.8601  0.1087  0.1472
  125CHL1  H23B15497   4.474   6.099  14.730  0.2533  0.7109 -1.0094
  125CHL1   C2415498   4.526   6.102  14.935 -0.4842 -0.0195  0.0143
  125CHL1  H24A15499   4.511   5.993  14.947 -0.8069  0.0551  0.3075
  125CHL1  H24B15500   4.611   6.124  15.003 -0.1638 -0.8161 -0.1144
  125CHL1   C2515501   4.400   6.180  14.982  0.1742 -0.0685 -0.7393
  125CHL1   H2515502   4.411   6.288  14.958  0.0867 -0.2478 -1.6248
  125CHL1   C2615503   4.270   6.139  14.912 -0.5973 -0.0001  0.2109
  125CHL1  H26A15504   4.277   6.185  14.811 -1.0166 -1.7114 -0.6393
  125CHL1  H26B15505   4.279   6.029  14.901 -0.4483  0.1359 -1.1460
  125CHL1  H26C15506   4.183   6.167  14.975  0.1499  3.5461 -0.1236
  125CHL1   C2715507   4.385   6.160  15.135 -0.5096  0.5094 -0.0385
  125CHL1  H27A15508   4.295   6.209  15.178  1.0644  1.3191  2.5064
  125CHL1  H27B15509   4.386   6.051  15.157  4.2914  0.4097  0.2749
  125CHL1  H27C15510   4.472   6.202  15.188 -0.9010  1.5408 -0.1927
  126CHL1    C315511   3.067   5.900  13.673 -0.1097  0.1691  0.2305
  126CHL1    H315512   3.166   5.850  13.675  0.0130  0.4362  1.1207
  126CHL1    O315513   3.031   5.902  13.532  0.3097 -0.4235 -0.5634
  126CHL1   H3'15514   2.935   5.914  13.532  0.4738  1.1755 -0.8974
  126CHL1    C415515   2.965   5.811  13.751  0.0092 -0.7341 -0.5085
  126CHL1   H4A15516   2.861   5.845  13.734 -0.5161 -1.0197  1.7308
  126CHL1   H4B15517   2.964   5.708  13.710 -0.3899 -1.3156  0.8863
  126CHL1    C515518   2.999   5.813  13.897  0.9443 -0.2011  0.0086
  126CHL1    C615519   3.012   5.699  13.967 -0.0164 -0.4125  0.5896
  126CHL1    H615520   3.006   5.602  13.915  0.2775  0.2950 -0.8352
  126CHL1    C715521   3.036   5.701  14.115  0.0534 -0.1961 -0.1747
  126CHL1   H7A15522   2.967   5.629  14.165 -0.3435 -0.0206 -0.4647
  126CHL1   H7B15523   3.139   5.661  14.131  1.7017  2.1507 -3.6217
  126CHL1    C815524   3.012   5.829  14.194  0.2003  0.0165  0.2521
  126CHL1    H815525   2.902   5.840  14.199  0.0444 -1.4948  0.7129
  126CHL1   C1415526   3.072   5.825  14.334 -0.1674 -0.5060  0.2957
  126CHL1   H1415527   3.181   5.805  14.322 -0.1791 -0.4297  0.0478
  126CHL1   C1515528   3.027   5.715  14.437  0.0610  0.2838 -0.2298
  126CHL1  H15A15529   2.918   5.698  14.440 -0.1208  1.5070  1.6110
  126CHL1  H15B15530   3.087   5.622  14.428  0.0909  0.1610  1.0469
  126CHL1   C1615531   3.071   5.777  14.570 -0.1137  0.9047 -0.4368
  126CHL1  H16A15532   2.988   5.761  14.643  1.0004 -0.8155  0.5439
  126CHL1  H16B15533   3.154   5.714  14.611  2.4598  1.4001 -4.3598
  126CHL1   C1715534   3.129   5.920  14.544  0.0488  0.1943  0.0276
  126CHL1   H1715535   3.235   5.905  14.514  0.1193 -1.0252  0.8036
  126CHL1   C1315536   3.065   5.958  14.411 -0.1881  0.6552 -0.3926
  126CHL1   C1815537   2.918   5.982  14.430 -0.0060 -0.9597 -0.4158
  126CHL1  H18A15538   2.871   5.910  14.500 -1.2236  1.9153  1.9304
  126CHL1  H18B15539   2.905   6.079  14.484 -0.5985 -2.1657  1.7112
  126CHL1  H18C15540   2.868   5.989  14.331 -0.4055  0.8694 -0.1213
  126CHL1   C1215541   3.136   6.067  14.326 -0.3210 -0.1526  0.3525
  126CHL1  H12A15542   3.129   6.164  14.378 -1.3157 -0.2692  0.4544
  126CHL1  H12B15543   3.246   6.052  14.322  0.0045  2.0370  0.1395
  126CHL1   C1115544   3.071   6.082  14.186  0.5553 -0.1986  0.5570
  126CHL1  H11A15545   2.967   6.118  14.200  0.7413 -0.4080  2.9846
  126CHL1  H11B15546   3.120   6.167  14.134 -0.6804 -0.2028 -0.6637
  126CHL1    C915547   3.076   5.940  14.106 -0.2129  0.1585 -0.6286
  126CHL1    H915548   3.184   5.912  14.099 -0.8409 -2.1438 -1.9338
  126CHL1   C1015549   3.020   5.953  13.966  0.4396 -0.5372 -0.2643
  126CHL1   C1915550   2.879   6.022  13.971 -0.9238  0.5038 -0.3004
  126CHL1  H19A15551   2.828   5.991  14.065  0.7912 -0.8850  0.2203
  126CHL1  H19B15552   2.892   6.131  13.987 -1.8141  0.2315  2.7844
  126CHL1  H19C15553   2.821   6.008  13.877 -0.6596 -0.5888 -0.3115
  126CHL1    C115554   3.115   6.038  13.878 -0.6255  0.1776  0.2361
  126CHL1   H1A15555   3.114   6.139  13.925 -2.2704  0.4239 -0.2868
  126CHL1   H1B15556   3.217   5.994  13.879 -1.7005 -2.6625 -2.1259
  126CHL1    C215557   3.085   6.042  13.734 -0.3743 -0.2931 -0.1756
  126CHL1   H2A15558   3.161   6.103  13.680 -0.2393 -0.4120 -0.1181
  126CHL1   H2B15559   2.992   6.098  13.712  0.2903 -0.0386 -2.7626
  126CHL1   C2015560   3.120   6.030  14.653 -0.1143 -0.0210  0.5790
  126CHL1   H2015561   3.096   6.127  14.603 -0.0135 -0.8380 -1.1258
  126CHL1   C2115562   3.264   6.039  14.712  0.1449 -0.3210  0.0722
  126CHL1  H21A15563   3.278   5.953  14.781  0.1630  1.2270  2.0764
  126CHL1  H21B15564   3.276   6.136  14.765  1.5422 -0.9230  0.9035
  126CHL1  H21C15565   3.326   6.043  14.620 -0.0586 -1.0629 -0.1002
  126CHL1   C2215566   3.019   6.013  14.761  0.2705 -0.6144  0.0459
  126CHL1  H22A15567   2.924   5.996  14.705 -0.1124  0.5604  0.3046
  126CHL1  H22B15568   3.045   5.929  14.828  1.3000 -1.1111 -0.9349
  126CHL1   C2315569   2.997   6.135  14.856 -0.2855  0.1830  0.6705
  126CHL1  H23A15570   2.905   6.104  14.910 -0.3525 -1.1080 -0.1501
  126CHL1  H23B15571   3.074   6.152  14.934 -1.0472 -0.0354  1.4946
  126CHL1   C2415572   2.963   6.270  14.788 -0.6733 -0.0651  0.2028
  126CHL1  H24A15573   3.052   6.314  14.739 -1.5472  2.3319  0.6000
  126CHL1  H24B15574   2.892   6.260  14.703 -0.8397  1.5499  0.1041
  126CHL1   C2515575   2.911   6.381  14.883 -0.4405  0.3630  0.2148
  126CHL1   H2515576   2.814   6.344  14.924 -0.7539 -1.2454 -1.8088
  126CHL1   C2615577   3.007   6.415  14.999  0.1957 -0.1920  0.7390
  126CHL1  H26A15578   2.956   6.478  15.075  1.5426  1.4082  0.3980
  126CHL1  H26B15579   3.027   6.322  15.056 -0.5731  1.7484  4.5053
  126CHL1  H26C15580   3.108   6.450  14.967  0.7213 -1.6450  0.7459
  126CHL1   C2715581   2.880   6.520  14.820  0.0435  0.2648 -0.5625
  126CHL1  H27A15582   2.969   6.567  14.773  0.3960  0.2356  0.0571
  126CHL1  H27B15583   2.804   6.506  14.741 -0.7994 -1.2764  0.4742
  126CHL1  H27C15584   2.836   6.586  14.898 -0.8395 -2.1554  1.1038
  127CHL1    C315585   5.901   7.351  13.718  0.4919 -0.6041 -0.6778
  127CHL1    H315586   5.996   7.305  13.752  1.1638  0.9468 -0.3859
  127CHL1    O315587   5.913   7.346  13.581  0.5649  0.2186  0.0540
  127CHL1   H3'15588   5.899   7.439  13.563 -0.5452  0.1244  0.3442
  127CHL1    C415589   5.777   7.271  13.760  0.3106 -0.9345 -0.1819
  127CHL1   H4A15590   5.691   7.306  13.699 -0.1981 -2.8298 -0.6348
  127CHL1   H4B15591   5.795   7.165  13.730  1.9675 -0.3951 -1.2326
  127CHL1    C515592   5.731   7.301  13.905 -0.5335  0.1896  0.8602
  127CHL1    C615593   5.694   7.202  13.982 -0.1116  0.3077 -0.1815
  127CHL1    H615594   5.669   7.099  13.953 -3.3881 -0.2898  3.8416
  127CHL1    C715595   5.635   7.221  14.117  0.4119  0.5706 -0.0520
  127CHL1   H7A15596   5.550   7.150  14.124  0.1266  0.7684 -1.1897
  127CHL1   H7B15597   5.714   7.183  14.185  1.0901 -0.2183 -1.2362
  127CHL1    C815598   5.598   7.370  14.155 -0.0840 -0.2594  0.5015
  127CHL1    H815599   5.505   7.404  14.105  1.4464  2.7884 -0.4993
  127CHL1   C1415600   5.572   7.377  14.304  0.0366  0.1794 -0.2714
  127CHL1   H1415601   5.673   7.360  14.349 -0.6054 -0.8138  0.8649
  127CHL1   C1515602   5.483   7.273  14.376 -0.5412 -0.1428 -0.0293
  127CHL1  H15A15603   5.390   7.250  14.320  0.6667  1.2827 -2.8325
  127CHL1  H15B15604   5.537   7.181  14.407 -0.7898 -0.3771 -0.2880
  127CHL1   C1615605   5.441   7.343  14.507  1.1571  0.0690 -0.1222
  127CHL1  H16A15606   5.331   7.357  14.501  1.1226 -0.4996 -0.9333
  127CHL1  H16B15607   5.474   7.292  14.600 -0.1290 -0.6134 -0.0151
  127CHL1   C1715608   5.501   7.486  14.502  0.5340  0.4277  0.2476
  127CHL1   H1715609   5.600   7.470  14.549 -0.1887 -0.8399  1.4244
  127CHL1   C1315610   5.533   7.519  14.348  0.5684  0.5014 -0.6676
  127CHL1   C1815611   5.395   7.562  14.281 -0.6748 -0.3633  0.3182
  127CHL1  H18A15612   5.368   7.662  14.322 -1.2154  0.0739 -1.0669
  127CHL1  H18B15613   5.418   7.586  14.175  0.0151  1.4983  0.8468
  127CHL1  H18C15614   5.314   7.487  14.294  0.1501 -0.9047  2.9682
  127CHL1   C1215615   5.650   7.611  14.311 -0.3312 -0.2383 -0.0055
  127CHL1  H12A15616   5.617   7.714  14.337  0.2827 -0.6287  2.6440
  127CHL1  H12B15617   5.736   7.587  14.376 -0.8818 -2.2606  0.0212
  127CHL1   C1115618   5.687   7.601  14.160 -0.6942 -0.5062 -0.2808
  127CHL1  H11A15619   5.604   7.642  14.100 -0.8142  0.4911  0.5428
  127CHL1  H11B15620   5.771   7.670  14.137  0.4870 -2.2439 -1.4389
  127CHL1    C915621   5.712   7.461  14.108 -0.5791  0.1951  0.4242
  127CHL1    H915622   5.810   7.427  14.149  0.2158  1.6480 -0.1649
  127CHL1   C1015623   5.738   7.452  13.956 -1.1469  0.1191  0.0567
  127CHL1   C1915624   5.626   7.524  13.876  0.2421 -0.3225  0.2061
  127CHL1  H19A15625   5.528   7.476  13.895 -0.6585  1.4884  0.3344
  127CHL1  H19B15626   5.631   7.634  13.886 -0.7626 -0.3232  0.8519
  127CHL1  H19C15627   5.640   7.508  13.767  0.5765  0.0228  0.1978
  127CHL1    C115628   5.878   7.501  13.918 -0.0151 -0.1592 -0.6316
  127CHL1   H1A15629   5.869   7.608  13.943  0.7306 -0.2859  0.2351
  127CHL1   H1B15630   5.955   7.447  13.978  0.5287 -0.0772 -1.2470
  127CHL1    C215631   5.906   7.498  13.766 -0.6072  0.3954 -0.1292
  127CHL1   H2A15632   6.006   7.544  13.751 -0.8552  1.6108  1.5556
  127CHL1   H2B15633   5.834   7.558  13.707 -0.1919 -0.8005 -1.9185
  127CHL1   C2015634   5.437   7.589  14.590 -0.0722 -0.2943 -0.5034
  127CHL1   H2015635   5.344   7.621  14.537 -2.4378 -1.5190  2.5987
  127CHL1   C2115636   5.531   7.712  14.608  0.0183 -0.3310 -0.5099
  127CHL1  H21A15637   5.548   7.771  14.516 -0.7720 -0.4967 -0.7673
  127CHL1  H21B15638   5.633   7.675  14.632 -0.4208 -1.1317  0.1872
  127CHL1  H21C15639   5.498   7.769  14.698  1.0460 -1.0882  0.3748
  127CHL1   C2215640   5.385   7.535  14.727 -0.4323  0.5534  1.0047
  127CHL1  H22A15641   5.350   7.624  14.783  1.6481  1.6859  0.6524
  127CHL1  H22B15642   5.293   7.474  14.718  0.7180 -1.0817 -0.2604
  127CHL1   C2315643   5.487   7.467  14.823  0.4246  0.3104 -0.0260
  127CHL1  H23A15644   5.542   7.380  14.780 -0.3675  0.6524 -1.8266
  127CHL1  H23B15645   5.562   7.545  14.846 -0.5315  0.9644  0.9603
  127CHL1   C2415646   5.411   7.420  14.947  0.0199  0.2172  0.2353
  127CHL1  H24A15647   5.326   7.490  14.961 -1.0510 -0.9636 -0.1906
  127CHL1  H24B15648   5.363   7.320  14.941 -2.4958  1.4102 -0.5472
  127CHL1   C2515649   5.499   7.422  15.075  0.0379 -0.3678 -0.0799
  127CHL1   H2515650   5.537   7.526  15.087  0.5018 -0.4973 -0.4027
  127CHL1   C2615651   5.413   7.392  15.202 -0.0129  0.3097 -0.6648
  127CHL1  H26A15652   5.319   7.451  15.202  1.2582  2.4000 -0.5914
  127CHL1  H26B15653   5.388   7.284  15.188 -1.2637  0.5029 -0.0041
  127CHL1  H26C15654   5.466   7.410  15.298  2.0787 -1.1584 -1.4595
  127CHL1   C2715655   5.618   7.319  15.059  0.0577 -0.2398  0.0803
  127CHL1  H27A15656   5.673   7.336  14.964 -0.3538  1.0142  0.0528
  127CHL1  H27B15657   5.677   7.327  15.152 -1.9106 -0.5901  1.4302
  127CHL1  H27C15658   5.584   7.213  15.050  1.6989 -0.7295 -0.6902
  128CHL1    C315659   3.092   2.100  13.740  0.6269  0.0495 -0.6202
  128CHL1    H315660   3.086   1.990  13.726 -0.3288  0.1054 -0.7114
  128CHL1    O315661   3.171   2.154  13.638 -0.3852  0.4888 -0.1815
  128CHL1   H3'15662   3.263   2.141  13.664 -0.2050  0.7122 -0.6846
  128CHL1    C415663   2.951   2.155  13.732  0.1442 -0.2378 -0.0174
  128CHL1   H4A15664   2.950   2.266  13.731  0.0682 -0.2108  1.6680
  128CHL1   H4B15665   2.907   2.130  13.633  0.9123 -0.1162 -0.4049
  128CHL1    C515666   2.870   2.123  13.850  0.1897  0.4321  0.0592
  128CHL1    C615667   2.747   2.072  13.833 -0.8396  0.0977 -0.2266
  128CHL1    H615668   2.705   2.056  13.732 -2.2124  0.2507  0.3022
  128CHL1    C715669   2.663   2.020  13.942 -0.5134  0.0667 -0.0961
  128CHL1   H7A15670   2.557   2.040  13.917 -0.9478 -1.4325  0.4488
  128CHL1   H7B15671   2.665   1.909  13.932  0.9927  0.0377  0.2532
  128CHL1    C815672   2.715   2.066  14.080  0.3432  0.1859  0.1371
  128CHL1    H815673   2.675   2.169  14.077  1.6796  0.7097 -0.4080
  128CHL1   C1415674   2.637   1.989  14.194  0.0728  0.3673  0.6332
  128CHL1   H1415675   2.674   1.885  14.191 -2.1077 -0.4840  0.9730
  128CHL1   C1515676   2.489   1.984  14.190  0.7122 -0.7080  0.1703
  128CHL1  H15A15677   2.454   2.088  14.172 -0.8202 -1.3169 -0.5359
  128CHL1  H15B15678   2.438   1.934  14.105 -1.2039  2.3143 -0.6216
  128CHL1   C1615679   2.453   1.933  14.330 -0.4997  0.3497 -0.0306
  128CHL1  H16A15680   2.378   2.005  14.371  0.5824  0.9065  1.0184
  128CHL1  H16B15681   2.410   1.831  14.336  0.5907 -0.2842 -2.2528
  128CHL1   C1715682   2.581   1.934  14.423 -0.6557 -0.3370  0.6551
  128CHL1   H1715683   2.627   1.833  14.426 -1.6913 -0.8144  2.8961
  128CHL1   C1315684   2.666   2.029  14.342  0.0813  0.8008  0.1447
  128CHL1   C1815685   2.620   2.173  14.374 -0.1754  0.3290 -0.0988
  128CHL1  H18A15686   2.510   2.188  14.379 -0.0817  0.5678  2.0526
  128CHL1  H18B15687   2.656   2.209  14.473 -0.7090  1.0943 -0.1756
  128CHL1  H18C15688   2.655   2.241  14.295 -0.5357 -0.8632 -1.3334
  128CHL1   C1215689   2.825   2.017  14.359 -0.6379 -0.7085 -0.1840
  128CHL1  H12A15690   2.873   2.068  14.445 -0.0578  1.4005 -1.6888
  128CHL1  H12B15691   2.850   1.909  14.372 -1.1319 -0.7653  0.3397
  128CHL1   C1115692   2.908   2.091  14.249  0.0119 -0.1640  0.1013
  128CHL1  H11A15693   2.890   2.200  14.258  1.2909  0.1050 -0.3984
  128CHL1  H11B15694   3.017   2.076  14.260 -0.1250 -0.2861  1.4807
  128CHL1    C915695   2.861   2.056  14.101  0.5791 -0.2111  0.0714
  128CHL1    H915696   2.889   1.950  14.085 -0.0788 -0.2418 -1.0314
  128CHL1   C1015697   2.934   2.138  13.988  0.3442  0.1126 -0.5218
  128CHL1   C1915698   2.922   2.288  14.010  0.5543 -0.0851 -0.0864
  128CHL1  H19A15699   2.988   2.343  13.939  1.1460 -0.8301 -0.1225
  128CHL1  H19B15700   2.817   2.324  14.005  0.5450 -0.2520 -2.7394
  128CHL1  H19C15701   2.949   2.316  14.114  0.6999  1.5089 -0.5242
  128CHL1    C115702   3.077   2.099  13.992 -0.2091 -0.3881  0.4551
  128CHL1   H1A15703   3.120   2.147  14.082 -0.2643 -1.6804  1.1934
  128CHL1   H1B15704   3.092   1.989  14.006 -1.6155 -0.5690  0.6873
  128CHL1    C215705   3.164   2.141  13.866  0.2059  0.4892  0.1637
  128CHL1   H2A15706   3.262   2.090  13.878  0.7498  0.9414 -2.0226
  128CHL1   H2B15707   3.179   2.251  13.862  0.7903  0.3948 -0.3856
  128CHL1   C2015708   2.538   1.969  14.569  0.8075 -0.0672  1.3553
  128CHL1   H2015709   2.492   2.070  14.567 -2.6670 -1.4975 -0.7145
  128CHL1   C2115710   2.661   1.961  14.652  0.1530 -0.6145  0.3326
  128CHL1  H21A15711   2.740   2.028  14.613  0.0143 -1.1414 -0.9080
  128CHL1  H21B15712   2.707   1.860  14.650  2.3489  0.3050  1.2490
  128CHL1  H21C15713   2.637   1.982  14.759  1.3092 -1.5588  0.7883
  128CHL1   C2215714   2.426   1.871  14.622 -0.3131 -0.4740  0.5609
  128CHL1  H22A15715   2.336   1.910  14.569 -0.2030  0.5366  1.0866
  128CHL1  H22B15716   2.462   1.771  14.592 -1.0951 -1.3084  2.2692
  128CHL1   C2315717   2.400   1.863  14.773 -0.4035 -0.4318 -0.1049
  128CHL1  H23A15718   2.318   1.789  14.789  1.0800 -2.0330  0.4251
  128CHL1  H23B15719   2.495   1.817  14.810  1.6853  1.8492 -2.2613
  128CHL1   C2415720   2.364   2.000  14.832  0.3086 -0.0666 -0.0394
  128CHL1  H24A15721   2.452   2.067  14.837  0.9941 -0.8933 -0.7480
  128CHL1  H24B15722   2.287   2.048  14.768 -0.2922 -0.8994  0.0375
  128CHL1   C2515723   2.289   1.987  14.972 -0.1195 -1.2940 -0.1324
  128CHL1   H2515724   2.183   1.959  14.956 -0.8612  1.8573 -1.6026
  128CHL1   C2615725   2.350   1.880  15.062  0.0893 -0.6941  0.0601
  128CHL1  H26A15726   2.456   1.900  15.086  1.0859 -2.7583 -2.2173
  128CHL1  H26B15727   2.303   1.873  15.163 -1.9583 -1.0182 -0.8614
  128CHL1  H26C15728   2.352   1.786  15.004  3.3809 -0.0238 -1.0727
  128CHL1   C2715729   2.286   2.128  15.025  0.6063 -0.4353  0.1637
  128CHL1  H27A15730   2.382   2.184  15.029  0.4737 -0.2359  0.5551
  128CHL1  H27B15731   2.219   2.187  14.959  2.3489  1.6055  0.1062
  128CHL1  H27C15732   2.243   2.126  15.127  0.1650 -1.4774 -0.0258
  129CHL1    C315733   6.451   5.785  13.107 -0.0147 -0.3972  0.5317
  129CHL1    H315734   6.355   5.837  13.089  0.9109  1.5353  0.9421
  129CHL1    O315735   6.490   5.697  12.995  0.5990 -0.0330 -0.3977
  129CHL1   H3'15736   6.584   5.687  13.015  0.5638  0.0683 -0.1859
  129CHL1    C415737   6.557   5.895  13.113 -1.0856 -0.2150 -0.2467
  129CHL1   H4A15738   6.654   5.841  13.106 -1.8574 -1.9227  1.1665
  129CHL1   H4B15739   6.552   5.956  13.021 -3.4642  1.2072  0.7351
  129CHL1    C515740   6.546   5.974  13.239 -0.0957 -0.0434 -0.4751
  129CHL1    C615741   6.525   6.104  13.225  0.4097  0.3474 -0.0735
  129CHL1    H615742   6.513   6.161  13.132  0.3308  0.4743  0.0142
  129CHL1    C715743   6.516   6.200  13.336  0.3835  0.3016  0.1951
  129CHL1   H7A15744   6.584   6.285  13.318 -0.1877  0.5811 -0.6788
  129CHL1   H7B15745   6.413   6.240  13.348  1.3778  3.0207  0.3738
  129CHL1    C815746   6.557   6.129  13.475 -0.1947 -0.5221 -0.4746
  129CHL1    H815747   6.667   6.138  13.459 -0.4002  2.8834 -0.9001
  129CHL1   C1415748   6.512   6.215  13.601 -0.3941  0.1245 -0.6608
  129CHL1   H1415749   6.401   6.211  13.596 -0.3269 -1.4873 -1.6170
  129CHL1   C1515750   6.550   6.363  13.611  0.1167 -0.2706  0.4879
  129CHL1  H15A15751   6.659   6.379  13.595  0.3592  1.2376  3.0885
  129CHL1  H15B15752   6.489   6.422  13.539  1.9235  0.1375 -0.7851
  129CHL1   C1615753   6.530   6.399  13.757  0.5044 -0.0736 -0.0736
  129CHL1  H16A15754   6.628   6.440  13.789  1.8017 -3.2136  0.2493
  129CHL1  H16B15755   6.448   6.472  13.775  1.4519  0.5824  1.9027
  129CHL1   C1715756   6.497   6.265  13.826 -0.6460  0.8214  0.1379
  129CHL1   H1715757   6.390   6.246  13.803 -0.7139  1.6959 -0.3152
  129CHL1   C1315758   6.549   6.151  13.732  0.1273  0.0692  0.3251
  129CHL1   C1815759   6.707   6.145  13.755  0.1591  0.6287  0.6161
  129CHL1  H18A15760   6.723   6.104  13.857 -1.6465 -0.4491  0.5107
  129CHL1  H18B15761   6.755   6.084  13.676  0.3855  1.4085  0.1384
  129CHL1  H18C15762   6.763   6.241  13.747  2.1025 -0.4731  0.1992
  129CHL1   C1215763   6.476   6.013  13.743  0.4492  0.1322  0.8749
  129CHL1  H12A15764   6.506   5.963  13.838  0.2962  0.7454  1.2486
  129CHL1  H12B15765   6.367   6.033  13.743 -0.0086 -2.0803  1.2989
  129CHL1   C1115766   6.530   5.922  13.630  0.2587  0.1065 -0.7025
  129CHL1  H11A15767   6.635   5.901  13.659 -0.6651 -1.6098  1.7973
  129CHL1  H11B15768   6.488   5.819  13.635  0.9244 -0.1246  0.7674
  129CHL1    C915769   6.501   5.984  13.491  0.0379 -0.7144  0.1864
  129CHL1    H915770   6.392   6.002  13.483  0.1371 -0.3979 -0.4981
  129CHL1   C1015771   6.541   5.897  13.373 -0.6632 -0.1586 -0.0356
  129CHL1   C1915772   6.683   5.846  13.391 -0.7749 -0.2146  0.0798
  129CHL1  H19A15773   6.723   5.792  13.303 -1.6070 -1.6197  0.5352
  129CHL1  H19B15774   6.761   5.921  13.416  0.8912 -1.6998 -0.4109
  129CHL1  H19C15775   6.691   5.774  13.476 -2.0474 -1.1152 -0.5289
  129CHL1    C115776   6.442   5.783  13.360  0.0099  0.0480  0.7117
  129CHL1   H1A15777   6.437   5.713  13.447 -0.2081 -1.0876 -0.1830
  129CHL1   H1B15778   6.340   5.826  13.355  0.6173  1.4539  0.0486
  129CHL1    C215779   6.462   5.699  13.233  0.2110 -0.0799 -0.1195
  129CHL1   H2A15780   6.383   5.620  13.238  1.0228 -0.8458  1.0815
  129CHL1   H2B15781   6.560   5.651  13.249 -0.4487 -0.8847  1.7911
  129CHL1   C2015782   6.517   6.248  13.977  0.4041  0.8643 -0.3759
  129CHL1   H2015783   6.503   6.139  13.994 -0.9147  0.7941 -1.6411
  129CHL1   C2115784   6.399   6.316  14.044 -0.2926 -0.6096 -0.1893
  129CHL1  H21A15785   6.307   6.274  13.998 -0.3608 -2.2519  1.3384
  129CHL1  H21B15786   6.400   6.426  14.030  3.0487 -0.0623  2.7786
  129CHL1  H21C15787   6.401   6.292  14.153 -0.4775  0.2558  0.0106
  129CHL1   C2215788   6.651   6.300  14.036  0.0939 -0.1462  1.0169
  129CHL1  H22A15789   6.727   6.297  13.956  0.6340 -0.7781  1.5515
  129CHL1  H22B15790   6.638   6.406  14.066  1.7786  0.1325  0.8620
  129CHL1   C2315791   6.695   6.216  14.149  0.5266 -0.2783  0.6369
  129CHL1  H23A15792   6.621   6.226  14.230  0.0195  0.1222  0.1242
  129CHL1  H23B15793   6.672   6.112  14.117  0.0462  0.6685 -2.3549
  129CHL1   C2415794   6.837   6.236  14.204 -0.1639  0.0040 -0.0628
  129CHL1  H24A15795   6.880   6.154  14.265 -1.6409 -1.2686 -0.6676
  129CHL1  H24B15796   6.904   6.247  14.116  3.3282  0.4478  2.4474
  129CHL1   C2515797   6.866   6.367  14.269 -0.4846 -0.5301 -0.4064
  129CHL1   H2515798   6.810   6.445  14.213  0.8592 -0.0196 -1.0797
  129CHL1   C2615799   6.827   6.369  14.420  0.4242 -0.3211  0.3764
  129CHL1  H26A15800   6.718   6.349  14.429 -0.0870  2.7349  2.0442
  129CHL1  H26B15801   6.885   6.290  14.471  0.0561 -1.1271 -0.4131
  129CHL1  H26C15802   6.849   6.464  14.472  1.5649 -1.4386  2.0242
  129CHL1   C2715803   7.010   6.407  14.248  0.1921 -0.5184 -0.3697
  129CHL1  H27A15804   7.038   6.392  14.141 -2.2621  0.6056 -1.2314
  129CHL1  H27B15805   7.032   6.512  14.279 -0.4856  0.6281 -3.3773
  129CHL1  H27C15806   7.078   6.342  14.308  2.1587  1.5423 -0.2084
  130CHL1    C315807   3.718   8.027  13.901  0.5027  0.3303 -0.0302
  130CHL1    H315808   3.615   7.992  13.879  0.3594 -0.7255  2.0135
  130CHL1    O315809   3.809   7.966  13.818 -1.0981  0.0093  0.2616
  130CHL1   H3'15810   3.788   7.967  13.724  2.9305  0.2823 -0.8081
  130CHL1    C415811   3.700   8.181  13.874 -0.6338 -0.4334 -0.3239
  130CHL1   H4A15812   3.798   8.223  13.905 -1.5339  0.9239  0.8283
  130CHL1   H4B15813   3.688   8.204  13.766 -0.8555  1.8551  0.1317
  130CHL1    C515814   3.585   8.239  13.955  0.6583 -0.4497  0.7339
  130CHL1    C615815   3.470   8.293  13.905 -0.6959 -0.0053 -0.0792
  130CHL1    H615816   3.451   8.289  13.797 -2.3796 -4.5331  0.1444
  130CHL1    C715817   3.368   8.348  14.003 -0.4855 -0.9160  0.7768
  130CHL1   H7A15818   3.321   8.443  13.969  0.2698 -0.6680  0.4078
  130CHL1   H7B15819   3.289   8.270  13.997  0.0643 -1.3988 -0.9605
  130CHL1    C815820   3.414   8.377  14.148 -0.0224 -1.1383  0.1497
  130CHL1    H815821   3.481   8.464  14.135 -0.9638 -0.4953 -0.4967
  130CHL1   C1415822   3.301   8.402  14.239  0.2526  0.4331 -0.0817
  130CHL1   H1415823   3.234   8.314  14.247 -1.0941  1.5782  2.2220
  130CHL1   C1515824   3.209   8.518  14.194 -0.2459 -0.7415 -0.6111
  130CHL1  H15A15825   3.274   8.607  14.175 -0.7211 -0.6182 -1.7190
  130CHL1  H15B15826   3.158   8.506  14.097 -2.4259  0.1729  0.3587
  130CHL1   C1615827   3.121   8.554  14.312 -0.5076  0.4934 -0.7043
  130CHL1  H16A15828   3.117   8.662  14.336  0.7219  0.1594  1.2374
  130CHL1  H16B15829   3.016   8.518  14.307 -0.3347  0.1496 -2.1199
  130CHL1   C1715830   3.188   8.472  14.430 -0.3432 -0.8615 -0.0795
  130CHL1   H1715831   3.132   8.376  14.435 -1.1348 -0.3418  2.5018
  130CHL1   C1315832   3.328   8.440  14.386  0.6057  0.2600  0.6834
  130CHL1   C1815833   3.427   8.567  14.399  0.0744 -0.0358 -0.2000
  130CHL1  H18A15834   3.384   8.657  14.350  1.5284  0.3451 -0.7998
  130CHL1  H18B15835   3.428   8.581  14.509 -0.4176  1.2510 -0.3518
  130CHL1  H18C15836   3.522   8.547  14.346 -0.2484  1.6563 -1.4694
  130CHL1   C1215837   3.389   8.309  14.432  0.6892  0.0193 -0.0488
  130CHL1  H12A15838   3.422   8.318  14.538 -0.0141 -0.9199  0.2699
  130CHL1  H12B15839   3.320   8.222  14.417  0.1468  0.3297  0.5747
  130CHL1   C1115840   3.510   8.268  14.355 -0.2490 -0.1365  0.3313
  130CHL1  H11A15841   3.586   8.349  14.364  0.4496 -0.6617 -0.6689
  130CHL1  H11B15842   3.561   8.176  14.391  1.8480  1.4336  1.6196
  130CHL1    C915843   3.488   8.257  14.198 -0.0385  0.0097  0.3754
  130CHL1    H915844   3.427   8.165  14.188 -1.9249  1.3369 -1.2688
  130CHL1   C1015845   3.613   8.225  14.106 -0.0356 -0.2460  0.0624
  130CHL1   C1915846   3.734   8.319  14.146  0.1468  0.1833  0.5825
  130CHL1  H19A15847   3.761   8.304  14.253  0.1979 -1.3198  0.3866
  130CHL1  H19B15848   3.825   8.284  14.092 -0.6246  1.1661 -1.4528
  130CHL1  H19C15849   3.703   8.425  14.135 -2.0337 -0.3649  1.0337
  130CHL1    C115850   3.652   8.075  14.132 -0.0915  0.0272 -0.3515
  130CHL1   H1A15851   3.678   8.060  14.240 -0.4419 -0.4446 -0.3277
  130CHL1   H1B15852   3.564   8.007  14.125 -0.1831 -0.5371  3.6020
  130CHL1    C215853   3.760   8.013  14.046  0.0241  0.1447  0.2075
  130CHL1   H2A15854   3.772   7.906  14.074  0.1245 -0.2276 -1.2080
  130CHL1   H2B15855   3.859   8.062  14.054  0.0445  0.6510 -2.4822
  130CHL1   C2015856   3.159   8.537  14.576  0.9255 -0.5452 -0.3404
  130CHL1   H2015857   3.220   8.630  14.585  2.0134 -1.0726 -1.7560
  130CHL1   C2115858   3.215   8.443  14.682 -0.1862 -0.1310  0.9772
  130CHL1  H21A15859   3.169   8.342  14.685 -1.2980  0.3793  1.6794
  130CHL1  H21B15860   3.196   8.496  14.778  1.3672  0.3218  1.0578
  130CHL1  H21C15861   3.325   8.438  14.674 -0.2065 -0.6275  0.9878
  130CHL1   C2215862   3.009   8.579  14.595 -0.4758 -0.6629 -0.0113
  130CHL1  H22A15863   2.993   8.622  14.696  0.9970 -0.9637  0.3607
  130CHL1  H22B15864   2.993   8.664  14.524 -2.0874 -1.3417 -0.5156
  130CHL1   C2315865   2.906   8.466  14.563  0.2643 -0.2100  0.3646
  130CHL1  H23A15866   2.901   8.432  14.457 -0.4836  0.5815  0.1409
  130CHL1  H23B15867   2.935   8.375  14.619  0.1601 -0.9119 -0.6870
  130CHL1   C2415868   2.759   8.498  14.601 -0.3409 -0.5141 -0.1251
  130CHL1  H24A15869   2.702   8.404  14.582 -0.4244 -0.6580  0.7811
  130CHL1  H24B15870   2.756   8.523  14.709  0.8980 -0.0035 -0.1904
  130CHL1   C2515871   2.686   8.619  14.531 -0.6134  0.0745  0.1638
  130CHL1   H2515872   2.579   8.617  14.559 -0.9221  0.5137 -0.9346
  130CHL1   C2615873   2.709   8.752  14.606  0.4297 -0.1004 -0.1656
  130CHL1  H26A15874   2.720   8.728  14.714 -3.0498 -1.8764 -0.0695
  130CHL1  H26B15875   2.799   8.806  14.569  1.5677 -0.7829  1.4529
  130CHL1  H26C15876   2.622   8.820  14.594  2.3103  2.8212  1.4374
  130CHL1   C2715877   2.706   8.625  14.378  0.5941 -0.1492 -0.4494
  130CHL1  H27A15878   2.811   8.646  14.350 -0.2769  3.0819 -1.6809
  130CHL1  H27B15879   2.678   8.525  14.337 -2.9746  0.5120  0.0433
  130CHL1  H27C15880   2.643   8.703  14.331  0.5405  0.4753  0.6200
  131CHL1    C315881   1.562   5.813  13.863  0.1529  0.4530 -0.3265
  131CHL1    H315882   1.570   5.702  13.866  0.1561  0.4697  0.4039
  131CHL1    O315883   1.588   5.859  13.732 -0.4464  0.3300  0.7909
  131CHL1   H3'15884   1.524   5.816  13.675  0.6708 -0.4853  0.1048
  131CHL1    C415885   1.420   5.855  13.904 -0.0699  0.6533 -0.1743
  131CHL1   H4A15886   1.412   5.966  13.908  0.2695  0.6346  1.8940
  131CHL1   H4B15887   1.348   5.814  13.830 -0.2239  0.4260  0.0980
  131CHL1    C515888   1.389   5.802  14.048  0.2267 -0.0669  0.2288
  131CHL1    C615889   1.277   5.722  14.062  0.2629 -0.4110  0.0681
  131CHL1    H615890   1.207   5.695  13.982 -0.5919 -0.8138  0.9324
  131CHL1    C715891   1.242   5.669  14.198  0.3111  0.5693  0.5100
  131CHL1   H7A15892   1.133   5.693  14.203 -0.4624 -1.4331 -3.0446
  131CHL1   H7B15893   1.247   5.558  14.194  1.4204  0.6142  0.4512
  131CHL1    C815894   1.327   5.725  14.309 -0.3399 -0.5812 -0.2639
  131CHL1    H815895   1.291   5.828  14.332 -1.3047 -1.0869  0.5688
  131CHL1   C1415896   1.311   5.644  14.433 -0.2022 -0.0429  0.1623
  131CHL1   H1415897   1.336   5.542  14.397  3.0127  1.1623 -1.4007
  131CHL1   C1515898   1.165   5.639  14.487  0.3913 -1.0818  0.2853
  131CHL1  H15A15899   1.125   5.743  14.484 -0.6923 -1.4698  0.8496
  131CHL1  H15B15900   1.107   5.568  14.424  1.2068 -0.3614 -1.3312
  131CHL1   C1615901   1.183   5.596  14.633  0.5048 -0.4378 -0.6366
  131CHL1  H16A15902   1.126   5.674  14.688  0.7202  0.0764 -1.1292
  131CHL1  H16B15903   1.148   5.494  14.661  1.6578 -1.1648 -1.7558
  131CHL1   C1715904   1.340   5.603  14.664 -0.1478 -1.2948  0.2161
  131CHL1   H1715905   1.379   5.500  14.649 -1.1250 -1.4310 -1.7302
  131CHL1   C1315906   1.400   5.681  14.548 -0.3219 -0.3675  0.8694
  131CHL1   C1815907   1.376   5.830  14.580  0.3982 -0.5789 -0.1023
  131CHL1  H18A15908   1.405   5.901  14.499  2.0031 -0.0709  0.8631
  131CHL1  H18B15909   1.270   5.846  14.606  1.4339  1.4085  3.5356
  131CHL1  H18C15910   1.436   5.871  14.664 -0.1449  1.4759 -0.6835
  131CHL1   C1215911   1.550   5.655  14.508 -0.1875  0.2646  0.5718
  131CHL1  H12A15912   1.618   5.676  14.593  1.8186 -0.7526 -0.6786
  131CHL1  H12B15913   1.547   5.547  14.480  0.9931  0.2398  0.4932
  131CHL1   C1115914   1.583   5.739  14.378  0.2402 -0.1083  0.3470
  131CHL1  H11A15915   1.605   5.844  14.405  1.9123 -0.8997  2.3206
  131CHL1  H11B15916   1.673   5.706  14.321  1.7385  1.3383  1.8041
  131CHL1    C915917   1.471   5.731  14.266 -0.0375  0.0410  0.5647
  131CHL1    H915918   1.497   5.632  14.222  0.9325  1.0341 -1.1900
  131CHL1   C1015919   1.499   5.838  14.148 -0.1539  0.9624  0.5960
  131CHL1   C1915920   1.478   5.983  14.200  0.2964 -0.1750  0.3086
  131CHL1  H19A15921   1.508   6.055  14.122  0.0818 -0.7688 -0.3336
  131CHL1  H19B15922   1.372   6.004  14.226 -0.5672  2.0755 -4.1685
  131CHL1  H19C15923   1.532   5.998  14.296 -1.6646  1.1098  1.2799
  131CHL1    C115924   1.641   5.812  14.094 -0.3775  0.5099 -0.0327
  131CHL1   H1A15925   1.719   5.856  14.160 -1.1794 -0.5547  1.6701
  131CHL1   H1B15926   1.655   5.702  14.096  0.6276  0.5175 -2.4969
  131CHL1    C215927   1.668   5.865  13.955 -0.2510 -0.0613  0.0304
  131CHL1   H2A15928   1.771   5.842  13.918  0.2781 -1.1103  1.9840
  131CHL1   H2B15929   1.663   5.975  13.968  0.4553 -0.0775  0.5293
  131CHL1   C2015930   1.368   5.650  14.809 -0.3553 -0.1870 -0.3164
  131CHL1   H2015931   1.346   5.758  14.821  1.7692  0.1477  1.3191
  131CHL1   C2115932   1.510   5.629  14.836 -0.3031 -0.5814 -0.5398
  131CHL1  H21A15933   1.551   5.546  14.774  3.4576  2.5940 -2.7304
  131CHL1  H21B15934   1.522   5.608  14.945  0.7489  1.7249 -0.1714
  131CHL1  H21C15935   1.561   5.725  14.816 -1.2138 -0.2600 -1.3790
  131CHL1   C2215936   1.281   5.574  14.911 -0.1282  0.0970 -0.2388
  131CHL1  H22A15937   1.317   5.616  15.008  0.0037  3.7892 -1.7386
  131CHL1  H22B15938   1.177   5.605  14.888 -0.3188  0.4099  0.9521
  131CHL1   C2315939   1.293   5.421  14.926  0.9306  0.2871 -0.2872
  131CHL1  H23A15940   1.252   5.368  14.838  0.7299  0.1161 -0.0898
  131CHL1  H23B15941   1.401   5.395  14.932  1.3305  1.4980 -1.6703
  131CHL1   C2415942   1.237   5.364  15.054  0.3369  0.1873  0.0727
  131CHL1  H24A15943   1.294   5.409  15.138 -0.9482 -1.0719  1.6894
  131CHL1  H24B15944   1.134   5.404  15.065 -1.3991 -3.1070 -2.4703
  131CHL1   C2515945   1.247   5.210  15.066  0.5548  0.0299 -0.1985
  131CHL1   H2515946   1.188   5.178  14.977 -0.5193  2.3911 -0.4008
  131CHL1   C2615947   1.390   5.148  15.070  0.7989  0.1311  0.0801
  131CHL1  H26A15948   1.437   5.162  14.970 -0.3338 -1.0572 -0.6541
  131CHL1  H26B15949   1.459   5.191  15.146  2.2261  0.0900 -1.1332
  131CHL1  H26C15950   1.379   5.038  15.080 -0.8676 -0.0749 -2.8730
  131CHL1   C2715951   1.164   5.173  15.186 -0.0047  0.0671 -0.0989
  131CHL1  H27A15952   1.183   5.064  15.199  0.6026  0.3264  1.4128
  131CHL1  H27B15953   1.204   5.222  15.278  2.8142  0.5974 -1.4868
  131CHL1  H27C15954   1.060   5.209  15.175  0.1901  0.2944 -1.4318
  132CHL1    C315955   5.197   7.174  13.843 -0.0913 -0.4498 -0.4162
  132CHL1    H315956   5.167   7.120  13.935  0.2448  1.4459  0.8663
  132CHL1    O315957   5.268   7.090  13.751 -0.3550  0.0047 -0.2829
  132CHL1   H3'15958   5.277   7.146  13.674 -1.3674  1.9504  0.9050
  132CHL1    C415959   5.065   7.222  13.772  0.1728  0.2231  0.8566
  132CHL1   H4A15960   5.084   7.268  13.673  2.0257 -0.6293  0.7883
  132CHL1   H4B15961   4.998   7.136  13.748  0.0919  0.3267  0.7075
  132CHL1    C515962   4.984   7.321  13.858 -0.1026  1.2563  0.2898
  132CHL1    C615963   4.859   7.293  13.902 -0.7297 -0.3230 -0.5451
  132CHL1    H615964   4.795   7.210  13.869 -2.6446  1.1891 -0.8412
  132CHL1    C715965   4.788   7.388  13.995 -0.2410 -0.1580  0.2221
  132CHL1   H7A15966   4.682   7.400  13.965 -0.1059  1.5472  0.3154
  132CHL1   H7B15967   4.782   7.350  14.099  0.1274  0.3327  0.4245
  132CHL1    C815968   4.851   7.528  13.996  0.3430 -0.0956 -0.0507
  132CHL1    H815969   4.828   7.576  13.898  1.0590  1.5810  0.5719
  132CHL1   C1415970   4.785   7.601  14.115  0.3288  0.3416 -0.1902
  132CHL1   H1415971   4.816   7.551  14.209 -2.6790 -0.7862  0.3127
  132CHL1   C1515972   4.631   7.616  14.125 -0.8230  0.5388 -0.0135
  132CHL1  H15A15973   4.591   7.666  14.034  3.2274  2.1645 -1.1083
  132CHL1  H15B15974   4.575   7.520  14.133 -2.3667  1.4021 -0.0704
  132CHL1   C1615975   4.622   7.706  14.246  0.2679 -0.5253  0.0770
  132CHL1  H16A15976   4.535   7.773  14.230  1.3354  0.9501  0.2562
  132CHL1  H16B15977   4.606   7.652  14.342  1.2748  0.0296  0.5730
  132CHL1   C1715978   4.749   7.799  14.244  0.3513  0.6809 -0.2894
  132CHL1   H1715979   4.805   7.774  14.336 -0.6049 -0.5664 -0.0097
  132CHL1   C1315980   4.837   7.747  14.129  0.4247  0.1858 -0.3582
  132CHL1   C1815981   4.816   7.825  13.995  0.0622  0.0783 -0.1855
  132CHL1  H18A15982   4.887   7.910  13.994  0.5101 -0.2716 -2.0222
  132CHL1  H18B15983   4.836   7.774  13.899  0.2527 -1.0383  0.4351
  132CHL1  H18C15984   4.711   7.862  13.993 -0.3250 -0.9851  0.0847
  132CHL1   C1215985   4.994   7.744  14.151  0.6359 -0.2791  0.1960
  132CHL1  H12A15986   5.039   7.846  14.152 -1.4484  0.8837 -3.7815
  132CHL1  H12B15987   5.015   7.701  14.251 -2.4590  0.1764  1.1561
  132CHL1   C1115988   5.068   7.658  14.038 -0.1777 -0.3747  0.8247
  132CHL1  H11A15989   5.060   7.717  13.945  2.7845  0.5894  1.0522
  132CHL1  H11B15990   5.178   7.657  14.057  0.0610 -0.7563 -0.4835
  132CHL1    C915991   5.000   7.523  14.006 -0.0829  0.3830 -0.2600
  132CHL1    H915992   5.000   7.471  14.104 -3.1108 -0.5671 -0.6559
  132CHL1   C1015993   5.078   7.438  13.903  0.6391 -0.2053  0.0888
  132CHL1   C1915994   5.105   7.521  13.776 -0.0038 -0.7536  0.0909
  132CHL1  H19A15995   5.161   7.460  13.701 -0.5452 -1.1123 -0.0241
  132CHL1  H19B15996   5.015   7.551  13.719  0.5529  1.1772  0.1586
  132CHL1  H19C15997   5.162   7.616  13.786 -1.9158  0.8356 -2.7759
  132CHL1    C115998   5.211   7.385  13.960  0.2963  0.1029  0.5801
  132CHL1   H1A15999   5.274   7.476  13.975  2.1038 -0.6566 -1.6739
  132CHL1   H1B16000   5.181   7.344  14.058 -3.4085 -0.8053 -0.7729
  132CHL1    C216001   5.288   7.290  13.875 -0.4807 -1.0953 -0.5846
  132CHL1   H2A16002   5.387   7.269  13.919 -0.5579  0.6488  0.5303
  132CHL1   H2B16003   5.323   7.341  13.783  1.2734 -1.8442 -0.3539
  132CHL1   C2016004   4.721   7.943  14.258  0.6658 -0.6446  0.4426
  132CHL1   H2016005   4.670   7.989  14.170 -1.2451  0.5026  2.0666
  132CHL1   C2116006   4.857   8.020  14.273  0.0554 -0.4555  0.2149
  132CHL1  H21A16007   4.910   8.019  14.175 -1.3010 -0.6288 -0.5447
  132CHL1  H21B16008   4.908   7.954  14.347 -0.3851 -0.6295  0.3651
  132CHL1  H21C16009   4.843   8.122  14.314 -0.9805 -0.6027  0.2486
  132CHL1   C2216010   4.639   7.984  14.381  0.4902  0.6954 -0.1212
  132CHL1  H22A16011   4.548   7.921  14.392  1.3402 -0.6089 -0.3469
  132CHL1  H22B16012   4.701   7.959  14.470 -3.0004  1.6937  2.8563
  132CHL1   C2316013   4.597   8.129  14.378 -0.1916 -0.3144 -0.8275
  132CHL1  H23A16014   4.679   8.201  14.398 -0.8128  0.3098 -0.4863
  132CHL1  H23B16015   4.548   8.154  14.282 -0.7798 -2.6490 -1.1906
  132CHL1   C2416016   4.485   8.169  14.477  0.2137 -0.6677  0.4286
  132CHL1  H24A16017   4.452   8.274  14.464 -1.5464 -0.9980  1.8990
  132CHL1  H24B16018   4.396   8.108  14.454 -0.1181 -0.8108  1.9453
  132CHL1   C2516019   4.514   8.148  14.623  0.1087  0.3621  0.3460
  132CHL1   H2516020   4.543   8.041  14.627 -0.8390 -0.0706 -2.2965
  132CHL1   C2616021   4.637   8.225  14.674 -0.5537 -0.1101  0.0508
  132CHL1  H26A16022   4.725   8.206  14.608 -0.4064 -1.7105  0.6603
  132CHL1  H26B16023   4.614   8.333  14.686  0.0628  0.5790 -3.7598
  132CHL1  H26C16024   4.656   8.187  14.776  0.2107  2.3212  0.8768
  132CHL1   C2716025   4.395   8.172  14.712  0.6284  0.5797 -0.4154
  132CHL1  H27A16026   4.341   8.075  14.714  0.7527  0.5073 -0.5064
  132CHL1  H27B16027   4.417   8.201  14.817 -0.7624  0.1468  0.0141
  132CHL1  H27C16028   4.317   8.241  14.671  0.4041 -0.0513 -1.0783
  133CHL1    C316029   0.942   1.756  13.703  0.4789 -0.1290  0.0870
  133CHL1    H316030   0.998   1.774  13.797  0.2997  1.1752 -0.0384
  133CHL1    O316031   1.035   1.710  13.605 -0.3625 -0.4549  0.4800
  133CHL1   H3'16032   0.997   1.691  13.519  1.6075 -2.2465 -0.0762
  133CHL1    C416033   0.835   1.651  13.724 -0.0115 -0.0686 -0.3921
  133CHL1   H4A16034   0.796   1.623  13.624 -1.3854 -1.8767  0.5948
  133CHL1   H4B16035   0.892   1.563  13.761 -0.1709 -0.1847 -0.4257
  133CHL1    C516036   0.720   1.703  13.814  0.0333  0.0940  0.1069
  133CHL1    C616037   0.698   1.621  13.922 -0.1413  0.1705 -0.3733
  133CHL1    H616038   0.753   1.526  13.918 -0.1829  0.1917 -1.7115
  133CHL1    C716039   0.592   1.650  14.032 -0.1688  0.7351  0.9139
  133CHL1   H7A16040   0.530   1.560  14.048  2.0437 -1.0059  0.2961
  133CHL1   H7B16041   0.640   1.692  14.123  0.9001  2.1801 -0.2550
  133CHL1    C816042   0.503   1.774  13.986  0.0277 -0.1711  0.0161
  133CHL1    H816043   0.432   1.739  13.908 -0.3360 -1.2441  0.7948
  133CHL1   C1416044   0.436   1.852  14.108  0.1247 -0.0455  1.2102
  133CHL1   H1416045   0.517   1.912  14.156  0.7872  1.0688 -1.1781
  133CHL1   C1516046   0.355   1.772  14.215 -0.4332  0.3626  0.3453
  133CHL1  H15A16047   0.297   1.691  14.166  0.8102  0.3453 -1.2062
  133CHL1  H15B16048   0.429   1.723  14.282 -0.4210 -0.7511 -0.4650
  133CHL1   C1616049   0.273   1.866  14.295 -0.5227 -0.7322 -0.5765
  133CHL1  H16A16050   0.170   1.825  14.295  0.1616 -2.5601  0.3104
  133CHL1  H16B16051   0.296   1.881  14.403  0.6842  2.1824 -1.1162
  133CHL1   C1716052   0.263   2.002  14.213 -0.5033  0.6561 -0.4706
  133CHL1   H1716053   0.338   2.063  14.267 -0.3832  0.9177 -0.9202
  133CHL1   C1316054   0.333   1.964  14.076  0.2452 -0.2795  0.5705
  133CHL1   C1816055   0.216   1.912  13.985 -0.7017 -0.7340 -0.4396
  133CHL1  H18A16056   0.147   1.996  13.964  0.4284  0.8230  1.7063
  133CHL1  H18B16057   0.254   1.861  13.894  1.2042  0.4993 -0.3882
  133CHL1  H18C16058   0.151   1.842  14.042 -2.2931  1.8074  1.0522
  133CHL1   C1216059   0.419   2.076  14.001 -0.4542 -0.2308 -0.0805
  133CHL1  H12A16060   0.357   2.164  13.973 -2.0565 -1.6582 -1.2511
  133CHL1  H12B16061   0.485   2.108  14.084 -1.6777 -0.8330  1.1702
  133CHL1   C1116062   0.510   2.023  13.888  0.5615  0.2725  0.7137
  133CHL1  H11A16063   0.437   1.997  13.808  1.5423 -1.4893  0.3440
  133CHL1  H11B16064   0.576   2.100  13.843  1.3368 -0.7433  0.0403
  133CHL1    C916065   0.584   1.888  13.910  0.2156  0.6807 -0.4464
  133CHL1    H916066   0.658   1.927  13.983  1.1548  1.1528 -1.6326
  133CHL1   C1016067   0.661   1.837  13.785 -0.3435  0.8193 -0.8433
  133CHL1   C1916068   0.570   1.824  13.669 -0.0273  0.0884  0.8090
  133CHL1  H19A16069   0.538   1.925  13.636  0.5559  0.3414  0.9976
  133CHL1  H19B16070   0.616   1.773  13.581  0.3779  0.5958  0.7226
  133CHL1  H19C16071   0.479   1.763  13.688 -0.6421  1.1031  1.1915
  133CHL1    C116072   0.773   1.936  13.762  0.0985 -0.2981 -0.1787
  133CHL1   H1A16073   0.741   2.035  13.724 -0.2674 -0.4812 -0.3438
  133CHL1   H1B16074   0.824   1.950  13.860  0.5581 -2.1219 -0.1214
  133CHL1    C216075   0.877   1.889  13.660  1.0115  0.1087  0.0860
  133CHL1   H2A16076   0.955   1.966  13.644  1.0333 -0.1009 -0.8600
  133CHL1   H2B16077   0.833   1.880  13.558  2.5773  0.7422 -0.6724
  133CHL1   C2016078   0.117   2.055  14.216 -0.4696 -0.1200 -0.7806
  133CHL1   H2016079   0.055   1.976  14.166  1.3679 -1.4532 -1.0441
  133CHL1   C2116080   0.105   2.187  14.144 -0.0174  0.2150  0.3896
  133CHL1  H21A16081   0.197   2.246  14.162  0.2007 -0.2516  0.8391
  133CHL1  H21B16082   0.017   2.253  14.159  0.3297  1.0520 -0.9834
  133CHL1  H21C16083   0.119   2.179  14.034  1.0164 -0.2301  0.5426
  133CHL1   C2216084   0.064   2.081  14.362 -0.1265 -0.5302  0.1732
  133CHL1  H22A16085  -0.037   2.124  14.350 -0.6161 -1.1567  1.7244
  133CHL1  H22B16086   0.058   1.989  14.424 -0.4699 -1.6013 -1.3931
  133CHL1   C2316087   0.141   2.193  14.439  0.2237  0.1104 -0.5704
  133CHL1  H23A16088   0.249   2.167  14.433  0.4675  0.6775  1.0489
  133CHL1  H23B16089   0.125   2.286  14.381 -3.1908 -1.3083 -2.1942
  133CHL1   C2416090   0.074   2.210  14.578 -0.1955 -0.1566 -0.1327
  133CHL1  H24A16091  -0.033   2.237  14.569 -0.6318 -2.0070 -0.9277
  133CHL1  H24B16092   0.077   2.117  14.638  1.9015  0.1097  0.2647
  133CHL1   C2516093   0.146   2.314  14.655 -0.0494  0.3433 -0.4244
  133CHL1   H2516094   0.255   2.304  14.637  0.1074  1.7768 -0.4288
  133CHL1   C2616095   0.108   2.455  14.599 -0.2521 -0.0380 -0.1220
  133CHL1  H26A16096   0.001   2.481  14.613 -0.2457 -0.2688  0.3779
  133CHL1  H26B16097   0.168   2.529  14.657  0.9588 -1.6140  0.7217
  133CHL1  H26C16098   0.112   2.480  14.491 -1.0397  3.2035  0.4729
  133CHL1   C2716099   0.118   2.309  14.810  0.2169 -0.0565  0.2698
  133CHL1  H27A16100   0.128   2.209  14.858  0.0705  1.1368  2.9744
  133CHL1  H27B16101   0.195   2.366  14.865 -0.3223  2.7718 -1.6653
  133CHL1  H27C16102   0.014   2.340  14.835  0.0546  0.9174 -1.4649
  134CHL1    C316103   8.833   3.940  13.965  0.3984  0.3441  0.0823
  134CHL1    H316104   8.914   3.921  14.039 -0.7262 -0.4849  1.1417
  134CHL1    O316105   8.876   3.917  13.835 -0.0510  0.0731 -0.1460
  134CHL1   H3'16106   8.790   3.906  13.795 -0.8548  0.8847  1.2696
  134CHL1    C416107   8.707   3.848  13.985 -0.1167  0.8959 -0.4496
  134CHL1   H4A16108   8.622   3.874  13.919 -2.5576 -0.0777  2.0777
  134CHL1   H4B16109   8.727   3.740  13.969 -1.7887  0.4240  0.3853
  134CHL1    C516110   8.664   3.877  14.127  0.2787  0.1193 -0.0449
  134CHL1    C616111   8.653   3.775  14.211 -0.4948 -0.2648 -0.3932
  134CHL1    H616112   8.677   3.674  14.174 -2.6835 -0.3430 -1.7912
  134CHL1    C716113   8.601   3.783  14.351 -0.0685  0.2710  0.0494
  134CHL1   H7A16114   8.521   3.707  14.359  0.8745 -0.8064 -0.5471
  134CHL1   H7B16115   8.686   3.756  14.417  1.2568 -1.1357 -2.1337
  134CHL1    C816116   8.534   3.916  14.392 -0.5149 -0.5175  0.3093
  134CHL1    H816117   8.428   3.923  14.362 -0.1953 -0.1703 -0.7849
  134CHL1   C1416118   8.537   3.930  14.537  0.0930  0.4434 -0.7715
  134CHL1   H1416119   8.639   3.962  14.567 -0.2304  1.8203 -1.0802
  134CHL1   C1516120   8.513   3.818  14.638 -0.4240  0.2815 -0.1646
  134CHL1  H15A16121   8.418   3.768  14.610 -1.2503  1.4025  0.5517
  134CHL1  H15B16122   8.600   3.751  14.654  0.2459  1.0284 -0.6060
  134CHL1   C1616123   8.489   3.886  14.773 -0.5452 -0.1242  0.3294
  134CHL1  H16A16124   8.384   3.860  14.796 -1.2935  1.0992 -1.4240
  134CHL1  H16B16125   8.552   3.854  14.858 -1.4630  0.9844  1.4619
  134CHL1   C1716126   8.484   4.043  14.747  0.2930  0.1598  0.6364
  134CHL1   H1716127   8.588   4.076  14.771  0.9351 -0.6674 -0.8788
  134CHL1   C1316128   8.465   4.053  14.592  0.2413  0.8908  0.2617
  134CHL1   C1816129   8.317   4.043  14.565 -0.1907 -0.1013 -0.6868
  134CHL1  H18A16130   8.299   4.066  14.458 -0.8376  1.9593 -0.1631
  134CHL1  H18B16131   8.275   3.943  14.590 -0.2387  0.3249  1.0481
  134CHL1  H18C16132   8.258   4.124  14.611 -2.2068  0.2281 -3.6012
  134CHL1   C1216133   8.527   4.178  14.527 -0.1381  0.0135  1.0347
  134CHL1  H12A16134   8.473   4.274  14.543 -1.6856  0.3073 -4.1365
  134CHL1  H12B16135   8.627   4.204  14.568  0.4726 -0.9186  0.1869
  134CHL1   C1116136   8.539   4.171  14.374  0.3732 -0.3187 -0.1008
  134CHL1  H11A16137   8.432   4.172  14.343  0.6224  2.3040 -1.1212
  134CHL1  H11B16138   8.601   4.258  14.343 -0.3718 -0.2898 -1.6123
  134CHL1    C916139   8.610   4.039  14.322 -0.0590 -0.0292  0.2415
  134CHL1    H916140   8.716   4.039  14.358  0.5856  0.9557 -1.5536
  134CHL1   C1016141   8.627   4.026  14.170  0.2579 -0.7169  0.1488
  134CHL1   C1916142   8.491   4.056  14.100 -0.4965  0.0213  0.3491
  134CHL1  H19A16143   8.421   3.975  14.129  0.7743 -0.6502  1.6852
  134CHL1  H19B16144   8.446   4.153  14.130  0.4897  1.5293 -2.5899
  134CHL1  H19C16145   8.508   4.050  13.990  1.2423 -0.2543  0.5962
  134CHL1    C116146   8.740   4.122  14.122 -0.6168 -0.4231 -0.1768
  134CHL1   H1A16147   8.710   4.228  14.129  1.9273  0.2525  1.5556
  134CHL1   H1B16148   8.825   4.102  14.191 -0.2164  2.0371  0.1259
  134CHL1    C216149   8.790   4.090  13.979  0.0299  0.6144  0.2095
  134CHL1   H2A16150   8.885   4.147  13.967  0.5760  0.1595  2.1088
  134CHL1   H2B16151   8.722   4.121  13.896 -0.5261 -2.0649 -0.4289
  134CHL1   C2016152   8.389   4.115  14.843  0.5506  0.1269  0.1251
  134CHL1   H2016153   8.284   4.101  14.808  0.6571 -1.1037  0.2387
  134CHL1   C2116154   8.412   4.262  14.850 -0.0592  0.0443  0.1592
  134CHL1  H21A16155   8.366   4.302  14.943  0.0991 -2.0368  1.1864
  134CHL1  H21B16156   8.365   4.309  14.760 -1.5427  0.9001  1.3281
  134CHL1  H21C16157   8.520   4.283  14.865 -0.2689  1.6505 -0.3141
  134CHL1   C2216158   8.391   4.061  14.987 -0.0278 -0.5789  0.6720
  134CHL1  H22A16159   8.307   4.111  15.040  0.0845 -1.2498  1.4970
  134CHL1  H22B16160   8.364   3.954  14.990  0.6027 -0.7223  1.5580
  134CHL1   C2316161   8.522   4.073  15.066 -0.0298 -0.2348  0.3336
  134CHL1  H23A16162   8.595   4.025  14.998 -1.7867  1.3885 -2.9721
  134CHL1  H23B16163   8.561   4.176  15.080  0.5034 -0.1134 -1.6738
  134CHL1   C2416164   8.497   4.009  15.210  0.4620 -0.2934 -0.1771
  134CHL1  H24A16165   8.405   4.051  15.256  0.5559 -0.9163  0.6093
  134CHL1  H24B16166   8.478   3.903  15.182  0.6387  0.1347 -2.0837
  134CHL1   C2516167   8.617   4.042  15.308 -0.0521 -0.1968  0.6104
  134CHL1   H2516168   8.709   4.049  15.245 -0.0277 -0.4080  0.6204
  134CHL1   C2616169   8.591   4.175  15.375 -0.0785  0.2625  0.3444
  134CHL1  H26A16170   8.489   4.158  15.413 -1.8764 -1.5270 -4.4589
  134CHL1  H26B16171   8.670   4.206  15.447  1.4495  1.2496 -1.6399
  134CHL1  H26C16172   8.593   4.252  15.295  2.4817 -1.0032 -0.9669
  134CHL1   C2716173   8.632   3.937  15.413 -0.4794 -0.2517  0.2359
  134CHL1  H27A16174   8.531   3.936  15.459 -1.1717  0.8384 -1.1572
  134CHL1  H27B16175   8.665   3.834  15.389  0.2492  0.3794 -1.6543
  134CHL1  H27C16176   8.710   3.975  15.482 -0.0642 -0.2487 -0.2289
  135CHL1    C316177   9.086   3.202  13.889 -0.0333 -0.2248 -0.1758
  135CHL1    H316178   9.034   3.150  13.805  0.3637 -0.2501 -0.4062
  135CHL1    O316179   9.221   3.191  13.859 -0.6079  0.3917 -0.1792
  135CHL1   H3'16180   9.249   3.100  13.872  0.7284  0.4541 -2.1337
  135CHL1    C416181   9.058   3.353  13.894 -0.0008 -0.6684  0.3058
  135CHL1   H4A16182   9.100   3.399  13.986 -1.2718 -0.6686  0.9118
  135CHL1   H4B16183   9.094   3.404  13.802  1.2683 -0.1717  1.0522
  135CHL1    C516184   8.901   3.369  13.908 -0.1739 -0.0438  0.8977
  135CHL1    C616185   8.832   3.445  13.823  0.0148 -0.4513  0.0063
  135CHL1    H616186   8.879   3.481  13.731 -1.3323 -1.5959 -1.1751
  135CHL1    C716187   8.686   3.465  13.822  0.3224  0.0734 -0.2216
  135CHL1   H7A16188   8.661   3.572  13.802  0.7905  0.7484  2.3912
  135CHL1   H7B16189   8.649   3.417  13.729 -0.3369  0.4245 -0.1540
  135CHL1    C816190   8.613   3.414  13.953  0.1209 -0.9117 -0.1256
  135CHL1    H816191   8.622   3.481  14.041 -0.0455 -1.1486  0.0751
  135CHL1   C1416192   8.469   3.390  13.927  0.2079  0.4324  0.1352
  135CHL1   H1416193   8.458   3.301  13.861 -1.3886  0.4124  0.3721
  135CHL1   C1516194   8.384   3.493  13.848 -0.2311  0.1716 -0.2595
  135CHL1  H15A16195   8.404   3.599  13.873  0.1932  0.3402 -1.2747
  135CHL1  H15B16196   8.400   3.487  13.738  0.1743  2.9360 -0.4024
  135CHL1   C1616197   8.239   3.464  13.885 -0.5155 -0.0862 -0.3675
  135CHL1  H16A16198   8.192   3.551  13.934 -1.6904 -0.2858 -1.1018
  135CHL1  H16B16199   8.178   3.432  13.797 -1.3251 -0.9830  0.4995
  135CHL1   C1716200   8.240   3.346  13.991 -0.3077 -0.3193  0.0838
  135CHL1   H1716201   8.233   3.250  13.934 -0.3982  0.9288 -2.1183
  135CHL1   C1316202   8.383   3.349  14.053  0.0175  0.8846  0.2520
  135CHL1   C1816203   8.389   3.453  14.168  0.1349 -0.1435  0.2185
  135CHL1  H18A16204   8.331   3.543  14.140  1.0183  0.3756  0.0103
  135CHL1  H18B16205   8.349   3.403  14.259 -0.8118 -2.4650 -1.3656
  135CHL1  H18C16206   8.489   3.487  14.204 -0.2315  0.3127  0.8210
  135CHL1   C1216207   8.441   3.208  14.099 -0.4604 -0.0334 -0.8553
  135CHL1  H12A16208   8.391   3.169  14.190 -1.2190 -1.0190 -1.6680
  135CHL1  H12B16209   8.413   3.130  14.025 -4.6471  1.0283 -0.6129
  135CHL1   C1116210   8.596   3.222  14.124  0.4695 -0.0705 -0.2655
  135CHL1  H11A16211   8.607   3.290  14.211 -2.6374 -0.5682  0.6567
  135CHL1  H11B16212   8.636   3.122  14.149 -0.5023 -0.5694 -0.6614
  135CHL1    C916213   8.681   3.282  14.004 -0.2172 -0.3570  1.1579
  135CHL1    H916214   8.666   3.207  13.923 -1.7968  1.3374 -0.1992
  135CHL1   C1016215   8.833   3.287  14.020 -0.7227 -0.1859  0.0965
  135CHL1   C1916216   8.861   3.373  14.146 -0.0249 -0.0109 -0.5196
  135CHL1  H19A16217   8.969   3.394  14.159  0.5095 -2.3308 -0.7963
  135CHL1  H19B16218   8.807   3.470  14.146 -1.6475 -0.8706 -1.3143
  135CHL1  H19C16219   8.834   3.324  14.242  1.4735  0.2834  0.0916
  135CHL1    C116220   8.897   3.138  14.024 -0.1624  0.0595 -0.1090
  135CHL1   H1A16221   8.856   3.093  14.117  2.2850  2.0162  2.0996
  135CHL1   H1B16222   8.856   3.077  13.940 -0.2511 -1.4655  1.0031
  135CHL1    C216223   9.047   3.128  14.016  0.1108  0.1557 -0.1554
  135CHL1   H2A16224   9.087   3.025  14.007  0.2141 -0.3128  4.0165
  135CHL1   H2B16225   9.101   3.162  14.107 -0.7021 -0.5517  0.6083
  135CHL1   C2016226   8.120   3.364  14.080  0.6763  0.2353 -0.7239
  135CHL1   H2016227   8.131   3.462  14.133  2.2190 -0.3972  0.1828
  135CHL1   C2116228   8.115   3.241  14.171 -0.2344 -0.1155  0.8226
  135CHL1  H21A16229   8.115   3.144  14.117  1.1705 -0.8773  2.1448
  135CHL1  H21B16230   8.022   3.256  14.230 -0.1680 -3.2769  1.8949
  135CHL1  H21C16231   8.199   3.255  14.242 -0.9268 -1.7957  2.0275
  135CHL1   C2216232   7.977   3.369  14.006  0.4682 -0.7664 -0.3106
  135CHL1  H22A16233   7.983   3.451  13.931  0.8778 -0.0535  0.4860
  135CHL1  H22B16234   7.960   3.269  13.960  1.7071 -0.3658 -1.6918
  135CHL1   C2316235   7.858   3.405  14.100  0.8063  0.3071 -0.3468
  135CHL1  H23A16236   7.843   3.315  14.163  2.0911 -0.3518 -0.9389
  135CHL1  H23B16237   7.887   3.493  14.161 -1.0787  1.3084 -0.7893
  135CHL1   C2416238   7.717   3.431  14.041  0.6823  0.0603  0.3846
  135CHL1  H24A16239   7.734   3.521  13.977 -0.7947 -0.4469 -0.7677
  135CHL1  H24B16240   7.691   3.345  13.975  0.6972 -0.3503  0.9079
  135CHL1   C2516241   7.599   3.469  14.142 -0.2563 -0.4731 -0.2549
  135CHL1   H2516242   7.632   3.548  14.213 -0.5127 -1.1701  0.6636
  135CHL1   C2616243   7.479   3.530  14.055  0.6330  0.3161  0.4817
  135CHL1  H26A16244   7.438   3.445  13.996 -0.5075 -0.3267  2.1006
  135CHL1  H26B16245   7.396   3.559  14.122  0.3199 -1.1582  0.7802
  135CHL1  H26C16246   7.510   3.612  13.987  1.4097 -1.0927 -0.9358
  135CHL1   C2716247   7.558   3.348  14.231  0.9120  0.2664  0.3657
  135CHL1  H27A16248   7.462   3.375  14.280 -0.3066 -0.4962 -1.5141
  135CHL1  H27B16249   7.534   3.256  14.175  0.0835  0.9042 -0.3478
  135CHL1  H27C16250   7.629   3.324  14.313 -0.2270 -3.4951  0.4015
  136CHL1    C316251   6.107   0.463  13.470  0.3836 -0.4586 -0.0488
  136CHL1    H316252   6.139   0.560  13.515  1.1950 -0.7184 -0.0495
  136CHL1    O316253   6.134   0.468  13.335 -0.2469  0.1075  0.1522
  136CHL1   H3'16254   6.109   0.380  13.305 -2.3309  0.9982 -0.9217
  136CHL1    C416255   6.183   0.347  13.535  0.2091 -0.4025  0.2472
  136CHL1   H4A16256   6.178   0.253  13.476  1.8750  0.8788 -2.1055
  136CHL1   H4B16257   6.290   0.374  13.523  0.0048 -0.2015 -1.2666
  136CHL1    C516258   6.145   0.322  13.680 -0.2302  0.5320  0.5584
  136CHL1    C616259   6.236   0.316  13.775 -0.4324  0.1961 -0.1736
  136CHL1    H616260   6.340   0.322  13.740 -0.2448  0.3070  0.3912
  136CHL1    C716261   6.205   0.281  13.917  0.3260  0.6631 -0.5406
  136CHL1   H7A16262   6.263   0.193  13.953 -0.1643  0.0298 -1.2568
  136CHL1   H7B16263   6.228   0.369  13.979  0.2759  2.7731 -3.3374
  136CHL1    C816264   6.050   0.257  13.942  0.3349  0.0706  0.6160
  136CHL1    H816265   6.037   0.152  13.908 -1.3410  0.2301  0.6665
  136CHL1   C1416266   6.034   0.272  14.090  0.3654  0.1795  0.8667
  136CHL1   H1416267   6.047   0.380  14.111  1.5631 -0.0154  1.1921
  136CHL1   C1516268   6.131   0.202  14.179  0.0286  0.3982 -0.4293
  136CHL1  H15A16269   6.153   0.098  14.147 -0.0774  0.5016 -0.8476
  136CHL1  H15B16270   6.226   0.257  14.195  0.7752 -1.1129  0.4961
  136CHL1   C1616271   6.054   0.215  14.317 -0.9912 -0.0471  0.2605
  136CHL1  H16A16272   6.063   0.126  14.382 -0.1947 -0.5404 -0.4935
  136CHL1  H16B16273   6.106   0.289  14.382 -1.1995  0.5595 -0.2567
  136CHL1   C1716274   5.910   0.265  14.293 -0.3511  0.8551  0.4034
  136CHL1   H1716275   5.913   0.375  14.301  3.9596  0.9624 -0.5338
  136CHL1   C1316276   5.895   0.234  14.138 -0.2609  0.2479  0.3384
  136CHL1   C1816277   5.867   0.087  14.110 -0.4650 -0.6812  0.3632
  136CHL1  H18A16278   5.764   0.053  14.133  0.1112 -3.0901 -0.3194
  136CHL1  H18B16279   5.871   0.053  14.004 -2.7084 -0.6721  0.2405
  136CHL1  H18C16280   5.939   0.023  14.167 -1.1160 -0.1806  1.7869
  136CHL1   C1216281   5.796   0.333  14.063 -0.3526 -0.4316  0.0998
  136CHL1  H12A16282   5.691   0.306  14.088 -1.1559 -1.1150 -3.4879
  136CHL1  H12B16283   5.820   0.432  14.108  0.8157  0.0142 -1.4084
  136CHL1   C1116284   5.813   0.318  13.911  0.7325 -0.6357  0.3089
  136CHL1  H11A16285   5.793   0.212  13.885  0.7542 -1.6793  3.9796
  136CHL1  H11B16286   5.740   0.381  13.857 -0.7108 -2.7435 -0.3198
  136CHL1    C916287   5.958   0.348  13.858  0.2361  0.5404 -0.0951
  136CHL1    H916288   5.989   0.450  13.889 -0.3388  0.4075  0.9724
  136CHL1   C1016289   5.994   0.341  13.703 -0.1728 -0.2723  0.1065
  136CHL1   C1916290   5.928   0.210  13.660  0.1716  0.0170 -0.2098
  136CHL1  H19A16291   5.949   0.186  13.553  2.1243 -1.1737  0.3835
  136CHL1  H19B16292   5.956   0.128  13.730  2.7987  0.8002 -0.2281
  136CHL1  H19C16293   5.820   0.235  13.661  0.7412  2.7788  0.1685
  136CHL1    C116294   5.930   0.460  13.637 -0.1963 -0.8229 -0.3910
  136CHL1   H1A16295   5.824   0.475  13.666 -0.8464 -1.2355 -2.4177
  136CHL1   H1B16296   5.976   0.551  13.680 -1.3946 -0.0943 -0.6228
  136CHL1    C216297   5.951   0.460  13.488 -0.6905 -0.3043  0.4082
  136CHL1   H2A16298   5.908   0.549  13.438  0.3982 -0.0975 -0.1698
  136CHL1   H2B16299   5.905   0.374  13.434  1.9915 -0.8317 -1.1967
  136CHL1   C2016300   5.799   0.207  14.381 -0.4766 -0.4381 -0.4031
  136CHL1   H2016301   5.773   0.100  14.363  1.2500 -1.2554  1.4742
  136CHL1   C2116302   5.679   0.303  14.368  0.3758  0.3907 -0.2023
  136CHL1  H21A16303   5.706   0.410  14.353 -2.4969  1.0021 -1.8833
  136CHL1  H21B16304   5.606   0.297  14.452 -1.4425 -0.6865 -1.7628
  136CHL1  H21C16305   5.613   0.277  14.282 -1.1729  2.0190  0.4205
  136CHL1   C2216306   5.843   0.210  14.528  0.0345  0.1527  0.0329
  136CHL1  H22A16307   5.756   0.171  14.584 -0.0501 -0.8175 -0.7420
  136CHL1  H22B16308   5.931   0.143  14.543 -0.3956  0.1032  2.7279
  136CHL1   C2316309   5.865   0.348  14.588 -0.2928  0.9887  0.8018
  136CHL1  H23A16310   5.927   0.413  14.522 -0.8481 -0.4039 -1.1787
  136CHL1  H23B16311   5.772   0.408  14.585 -0.1069  1.2751 -3.0959
  136CHL1   C2416312   5.940   0.346  14.724  0.0439  0.3993  0.0729
  136CHL1  H24A16313   5.888   0.283  14.800  0.4180  0.8796  0.7363
  136CHL1  H24B16314   6.038   0.295  14.713 -0.2108 -0.0916  0.0465
  136CHL1   C2516315   5.952   0.481  14.795  0.8288 -0.1977 -0.5363
  136CHL1   H2516316   6.006   0.553  14.730  1.3229 -0.6421 -0.6283
  136CHL1   C2616317   5.811   0.536  14.825 -0.1035  0.2641  0.2726
  136CHL1  H26A16318   5.767   0.465  14.899  1.3681 -2.0579 -0.9507
  136CHL1  H26B16319   5.799   0.640  14.862 -3.3248  0.0789  0.0534
  136CHL1  H26C16320   5.749   0.532  14.733  1.7794 -3.1816 -1.0166
  136CHL1   C2716321   6.026   0.465  14.927  0.0543 -0.3246 -0.8765
  136CHL1  H27A16322   6.130   0.428  14.914  0.7365  0.4037  1.8263
  136CHL1  H27B16323   6.038   0.567  14.971  0.6478  0.2789 -2.3856
  136CHL1  H27C16324   5.974   0.394  14.995 -0.2088 -1.9608 -2.7134
  137CHL1    C316325   6.152   2.264  13.583 -0.0654 -0.5162 -0.2758
  137CHL1    H316326   6.089   2.229  13.668 -1.4238  0.8015 -0.6944
  137CHL1    O316327   6.077   2.257  13.462  0.1141  0.0070 -0.0012
  137CHL1   H3'16328   6.136   2.284  13.392 -1.3260 -0.8133 -1.6174
  137CHL1    C416329   6.187   2.410  13.606  0.1637  0.9302  0.2363
  137CHL1   H4A16330   6.235   2.443  13.511 -1.1625  0.8089 -0.5010
  137CHL1   H4B16331   6.096   2.474  13.612  0.0884  1.1394 -2.1743
  137CHL1    C516332   6.275   2.432  13.729  0.5291 -0.6199  0.2382
  137CHL1    C616333   6.252   2.529  13.822  0.0855  0.0993  0.2743
  137CHL1    H616334   6.171   2.603  13.813  0.5855  0.8010  1.3834
  137CHL1    C716335   6.342   2.552  13.940  0.2672  0.8182 -0.3149
  137CHL1   H7A16336   6.363   2.659  13.962  2.0203  0.2569  0.9139
  137CHL1   H7B16337   6.295   2.516  14.035 -1.6204 -1.7212 -2.0753
  137CHL1    C816338   6.481   2.487  13.936  0.4702  0.0870  0.1510
  137CHL1    H816339   6.548   2.543  13.868 -0.8913 -0.9789 -2.1595
  137CHL1   C1416340   6.547   2.478  14.070 -0.4861 -0.3511 -0.0574
  137CHL1   H1416341   6.482   2.407  14.125 -0.1459 -0.3557  0.3435
  137CHL1   C1516342   6.549   2.602  14.164  0.3768  1.1799 -0.0458
  137CHL1  H15A16343   6.598   2.682  14.105  2.4305  0.0281 -0.0229
  137CHL1  H15B16344   6.449   2.640  14.194  0.0180  0.7882 -0.7192
  137CHL1   C1616345   6.640   2.554  14.275  0.5099 -0.6522 -0.7476
  137CHL1  H16A16346   6.713   2.634  14.300  1.4696 -2.0166  1.1712
  137CHL1  H16B16347   6.585   2.524  14.367 -1.0202 -0.1044 -1.4585
  137CHL1   C1716348   6.719   2.430  14.224  0.1555 -0.0742  0.1171
  137CHL1   H1716349   6.670   2.345  14.275  0.3642  0.5412  1.3852
  137CHL1   C1316350   6.684   2.415  14.074 -0.4857 -0.6452  0.0998
  137CHL1   C1816351   6.788   2.502  13.994 -0.1503 -0.0635 -0.4926
  137CHL1  H18A16352   6.753   2.517  13.890 -0.7840 -0.0733 -0.2921
  137CHL1  H18B16353   6.781   2.601  14.044 -0.8359 -0.6828  0.7152
  137CHL1  H18C16354   6.892   2.463  14.001 -0.6568 -1.1991  1.7230
  137CHL1   C1216355   6.665   2.274  14.019  0.2357 -0.2629 -0.3473
  137CHL1  H12A16356   6.764   2.225  14.027  0.0146 -0.3784  4.0337
  137CHL1  H12B16357   6.611   2.213  14.094  1.2740  0.1062  0.7256
  137CHL1   C1116358   6.613   2.276  13.882  0.4361 -0.0196 -0.0721
  137CHL1  H11A16359   6.677   2.341  13.819 -0.1765  0.1790 -0.5119
  137CHL1  H11B16360   6.614   2.169  13.850 -2.7780  0.6213 -3.0544
  137CHL1    C916361   6.473   2.341  13.873  0.1588  0.1548  0.2997
  137CHL1    H916362   6.407   2.286  13.944  0.2797  1.2549  1.2983
  137CHL1   C1016363   6.394   2.333  13.738 -0.4694 -0.1195  0.0380
  137CHL1   C1916364   6.495   2.377  13.632 -0.1603  0.0452 -0.0629
  137CHL1  H19A16365   6.571   2.297  13.615  0.4802  0.3743  1.1178
  137CHL1  H19B16366   6.455   2.400  13.531  1.2311  1.3430 -0.3605
  137CHL1  H19C16367   6.557   2.463  13.666  0.1157  0.2754 -1.1025
  137CHL1    C116368   6.353   2.185  13.710  0.1521  0.0687 -0.0733
  137CHL1   H1A16369   6.449   2.129  13.703  0.7999  0.9581  1.3131
  137CHL1   H1B16370   6.286   2.149  13.791  0.1504  1.2385  0.4684
  137CHL1    C216371   6.275   2.172  13.581  0.5894  0.2182 -0.2895
  137CHL1   H2A16372   6.246   2.068  13.556 -2.5993  0.9445 -0.1315
  137CHL1   H2B16373   6.337   2.205  13.495  0.0585 -0.4208 -0.9248
  137CHL1   C2016374   6.865   2.425  14.269 -1.0146 -0.1730  0.7870
  137CHL1   H2016375   6.927   2.497  14.210 -1.8556  0.6129  0.8319
  137CHL1   C2116376   6.929   2.286  14.241 -0.2779  0.5027 -0.7455
  137CHL1  H21A16377   6.923   2.255  14.135  0.9011  1.0185 -0.9763
  137CHL1  H21B16378   6.874   2.206  14.295 -1.9963  0.2013 -2.8074
  137CHL1  H21C16379   7.036   2.292  14.270 -0.4287  0.7206 -0.2113
  137CHL1   C2216380   6.907   2.465  14.412 -0.1159  0.3982  0.3153
  137CHL1  H22A16381   7.012   2.429  14.419 -0.0402  0.2344 -1.3114
  137CHL1  H22B16382   6.909   2.575  14.427 -0.4021  0.6307 -1.2238
  137CHL1   C2316383   6.820   2.403  14.523  0.7424 -0.4618 -0.2296
  137CHL1  H23A16384   6.714   2.434  14.524  1.0955  0.8841 -1.4095
  137CHL1  H23B16385   6.822   2.292  14.517 -0.2986 -0.4588 -0.8016
  137CHL1   C2416386   6.877   2.449  14.658  0.5232 -0.7291  0.7600
  137CHL1  H24A16387   6.984   2.421  14.665  1.5081  1.2606 -3.3570
  137CHL1  H24B16388   6.865   2.560  14.654  0.7145 -0.7427 -0.3064
  137CHL1   C2516389   6.804   2.400  14.778  0.5022  0.1794 -0.3964
  137CHL1   H2516390   6.695   2.422  14.770  0.7234  1.4512 -0.2415
  137CHL1   C2616391   6.807   2.247  14.786  0.5939 -0.0765 -1.5629
  137CHL1  H26A16392   6.911   2.209  14.780  0.4238 -0.8211 -0.1725
  137CHL1  H26B16393   6.752   2.224  14.880  1.1169 -2.2905 -1.7469
  137CHL1  H26C16394   6.748   2.197  14.706 -0.5466  0.2592 -0.9544
  137CHL1   C2716395   6.850   2.462  14.910 -0.1432 -0.1327 -0.0841
  137CHL1  H27A16396   6.789   2.421  14.994  1.6435 -3.0568 -0.1163
  137CHL1  H27B16397   6.958   2.440  14.922 -0.4573 -0.9957  1.4438
  137CHL1  H27C16398   6.829   2.571  14.905 -3.8776 -0.7293 -0.5705
  138CHL1    C316399   6.975   0.260  13.180  0.6947  0.0052 -0.5247
  138CHL1    H316400   6.878   0.302  13.214 -0.8441 -1.7651 -2.4383
  138CHL1    O316401   6.966   0.285  13.040  0.4918 -0.3578 -0.1722
  138CHL1   H3'16402   7.045   0.251  12.998 -0.5630 -2.1461 -0.8031
  138CHL1    C416403   7.082   0.344  13.257  0.5273 -0.0407 -0.1746
  138CHL1   H4A16404   7.183   0.318  13.217  0.4538  2.5282 -2.4041
  138CHL1   H4B16405   7.066   0.452  13.235  0.3773  0.1668  0.9281
  138CHL1    C516406   7.091   0.327  13.403  0.6154  0.0490  0.1800
  138CHL1    C616407   7.095   0.437  13.483  0.0247 -0.0909  0.1078
  138CHL1    H616408   7.092   0.536  13.435 -2.5773 -0.2925 -0.3337
  138CHL1    C716409   7.109   0.429  13.628 -0.1519 -0.0694 -0.0909
  138CHL1   H7A16410   7.194   0.494  13.657  0.0301 -0.2564 -0.2037
  138CHL1   H7B16411   7.021   0.480  13.674 -0.4307 -1.6647  1.2448
  138CHL1    C816412   7.149   0.286  13.677 -0.0205 -0.5756 -0.3971
  138CHL1    H816413   7.254   0.262  13.648  0.9752  1.8246  0.8932
  138CHL1   C1416414   7.135   0.268  13.823  0.7300  0.3599 -0.3973
  138CHL1   H1416415   7.025   0.273  13.836  0.4905 -0.7020 -1.7552
  138CHL1   C1516416   7.191   0.384  13.908 -0.1663 -0.1268  0.0634
  138CHL1  H15A16417   7.291   0.414  13.869 -0.7710  2.4149  0.2655
  138CHL1  H15B16418   7.125   0.472  13.893  0.2335  0.0802 -0.5203
  138CHL1   C1616419   7.186   0.316  14.045 -0.0053  0.0352  0.4015
  138CHL1  H16A16420   7.288   0.326  14.089  0.3570 -2.2087  0.1738
  138CHL1  H16B16421   7.126   0.381  14.113  0.0664 -0.0029  0.5017
  138CHL1   C1716422   7.145   0.164  14.039 -0.4696  0.0014  0.1489
  138CHL1   H1716423   7.035   0.176  14.053 -0.2505  0.7815  1.3014
  138CHL1   C1316424   7.173   0.132  13.889  0.0941  0.0460  0.2308
  138CHL1   C1816425   7.319   0.110  13.863 -0.0933 -0.0566  0.1093
  138CHL1  H18A16426   7.378   0.201  13.887  0.7693 -0.3885 -0.7147
  138CHL1  H18B16427   7.354   0.021  13.919 -1.9897 -1.1825 -0.3993
  138CHL1  H18C16428   7.344   0.091  13.757  3.9396 -0.4824  1.0047
  138CHL1   C1216429   7.085   0.025  13.811 -0.2793 -0.1624  0.0114
  138CHL1  H12A16430   7.121  -0.077  13.838  0.0982 -0.0214  0.0439
  138CHL1  H12B16431   6.979   0.041  13.839 -0.3181 -1.2358  0.5465
  138CHL1   C1116432   7.101   0.037  13.658 -0.1285 -0.1821 -0.2440
  138CHL1  H11A16433   7.205   0.003  13.640  0.2213  0.3797  0.6194
  138CHL1  H11B16434   7.038  -0.041  13.610  0.1439 -0.5912  0.0614
  138CHL1    C916435   7.067   0.175  13.606 -0.6027 -0.2121  0.1774
  138CHL1    H916436   6.958   0.188  13.628 -1.0928 -2.6248 -0.4775
  138CHL1   C1016437   7.091   0.184  13.452  1.6702  0.1620 -0.7038
  138CHL1   C1916438   7.223   0.119  13.412  0.0348 -0.4624 -0.0497
  138CHL1  H19A16439   7.221   0.010  13.433  1.2070 -0.3139  0.9447
  138CHL1  H19B16440   7.243   0.125  13.303  1.6736 -0.7055  0.2036
  138CHL1  H19C16441   7.314   0.160  13.462 -0.1095 -1.5096  1.1371
  138CHL1    C116442   6.987   0.100  13.369  0.4892 -0.7424 -0.3965
  138CHL1   H1A16443   7.002  -0.006  13.398  0.2235 -0.4327  0.9626
  138CHL1   H1B16444   6.886   0.138  13.398  0.5943 -0.6666 -0.1280
  138CHL1    C216445   6.985   0.112  13.219 -0.0890 -0.2924  0.0356
  138CHL1   H2A16446   6.896   0.069  13.168 -0.8582  1.8343 -0.5064
  138CHL1   H2B16447   7.077   0.064  13.179  1.9620  1.1473  2.7436
  138CHL1   C2016448   7.213   0.076  14.144  0.2985 -0.6194  0.1945
  138CHL1   H2016449   7.324   0.082  14.136  0.3396  0.0756  1.2063
  138CHL1   C2116450   7.162  -0.065  14.136  0.0553 -0.5349  0.5477
  138CHL1  H21A16451   7.052  -0.074  14.144 -0.0441 -0.3803 -0.5839
  138CHL1  H21B16452   7.199  -0.118  14.227 -1.0451 -0.2498  1.1832
  138CHL1  H21C16453   7.192  -0.112  14.040  0.2751 -0.3429  0.5215
  138CHL1   C2216454   7.181   0.131  14.284  0.1403  0.4340  0.2927
  138CHL1  H22A16455   7.162   0.240  14.287 -1.2715  0.2468 -0.8270
  138CHL1  H22B16456   7.086   0.080  14.309 -0.8064 -0.3416 -4.0097
  138CHL1   C2316457   7.277   0.096  14.393  0.1900  0.0072 -0.2120
  138CHL1  H23A16458   7.309  -0.010  14.399  3.3737  0.9569  1.9991
  138CHL1  H23B16459   7.374   0.149  14.387  0.7903 -0.9225  0.8652
  138CHL1   C2416460   7.228   0.139  14.533  0.0191 -0.1675  0.6578
  138CHL1  H24A16461   7.172   0.234  14.521  1.6853  0.7004 -0.8717
  138CHL1  H24B16462   7.164   0.057  14.572  0.3185 -0.7983 -0.1548
  138CHL1   C2516463   7.335   0.159  14.650  0.5352  0.6708 -1.4295
  138CHL1   H2516464   7.285   0.188  14.745  2.5581 -1.8806  0.5853
  138CHL1   C2616465   7.408   0.031  14.683  0.4909  0.4434 -0.3974
  138CHL1  H26A16466   7.437  -0.024  14.591 -0.5982 -1.5281  0.3661
  138CHL1  H26B16467   7.500   0.055  14.741  0.1149 -1.0423  0.8899
  138CHL1  H26C16468   7.349  -0.041  14.743 -1.8494  3.2692  0.9513
  138CHL1   C2716469   7.440   0.264  14.624  0.3217  0.6955  0.5401
  138CHL1  H27A16470   7.481   0.247  14.523  2.2238  0.0351  1.3793
  138CHL1  H27B16471   7.386   0.362  14.627 -0.9911  0.2203 -2.7665
  138CHL1  H27C16472   7.508   0.241  14.709 -3.3992 -2.7659  2.9618
  139CHL1    C316473   0.826   7.841  13.933  0.5046 -0.5520  0.0722
  139CHL1    H316474   0.775   7.936  13.958  0.1788  0.8282 -4.8153
  139CHL1    O316475   0.867   7.847  13.798  0.0822 -0.5567  0.1814
  139CHL1   H3'16476   0.900   7.936  13.784 -0.4915 -0.2603  0.6464
  139CHL1    C416477   0.935   7.815  14.031  0.5342 -0.2697 -0.4263
  139CHL1   H4A16478   0.992   7.729  13.991 -0.1055 -1.0423  0.2908
  139CHL1   H4B16479   0.997   7.907  14.020 -1.1812  0.8094 -1.3373
  139CHL1    C516480   0.894   7.790  14.173  0.3679 -0.3502  0.1170
  139CHL1    C616481   0.940   7.868  14.275  0.3767 -0.4080 -0.3324
  139CHL1    H616482   1.010   7.948  14.251  0.0333  0.2943  0.9015
  139CHL1    C716483   0.909   7.839  14.420  0.8156  0.4643  0.0488
  139CHL1   H7A16484   1.003   7.844  14.479  0.7979  2.5499 -0.0525
  139CHL1   H7B16485   0.856   7.928  14.458 -0.5142 -0.2225 -0.1604
  139CHL1    C816486   0.839   7.705  14.435  0.3335  1.2768 -0.2258
  139CHL1    H816487   0.916   7.624  14.428 -1.0353 -0.0442 -0.5966
  139CHL1   C1416488   0.780   7.694  14.576  0.0551 -0.1281 -0.8649
  139CHL1   H1416489   0.702   7.773  14.577  0.7211  0.5383  0.2427
  139CHL1   C1516490   0.877   7.728  14.692  0.3896 -0.0329 -0.0332
  139CHL1  H15A16491   0.978   7.683  14.681 -0.8290 -2.4192 -2.7558
  139CHL1  H15B16492   0.878   7.837  14.711 -0.4498  0.3082 -1.7724
  139CHL1   C1616493   0.804   7.662  14.811  0.6022 -0.3831  0.1702
  139CHL1  H16A16494   0.865   7.584  14.862  1.0095 -0.5243 -0.5265
  139CHL1  H16B16495   0.778   7.728  14.897 -3.5235 -0.5552 -0.7130
  139CHL1   C1716496   0.670   7.597  14.763  0.8297  0.0830  0.1573
  139CHL1   H1716497   0.591   7.674  14.746  1.3591  0.6863  0.3658
  139CHL1   C1316498   0.710   7.564  14.613  0.3032  0.0649  0.0500
  139CHL1   C1816499   0.801   7.447  14.603 -0.3287  0.6602  0.3711
  139CHL1  H18A16500   0.745   7.356  14.635  2.8925 -0.7730  2.4504
  139CHL1  H18B16501   0.834   7.428  14.499 -0.4227 -1.5575  0.7037
  139CHL1  H18C16502   0.886   7.450  14.675 -0.2505 -1.6721  0.4562
  139CHL1   C1216503   0.592   7.553  14.513  0.1338  0.8707 -0.2083
  139CHL1  H12A16504   0.541   7.455  14.522  0.7299  0.5428 -0.3697
  139CHL1  H12B16505   0.514   7.631  14.527  1.5600  2.7808 -2.2864
  139CHL1   C1116506   0.643   7.553  14.368 -0.1358  0.5292  0.0467
  139CHL1  H11A16507   0.702   7.461  14.350 -0.8633  0.4093 -1.9745
  139CHL1  H11B16508   0.551   7.540  14.307 -0.2053  0.9222  0.0661
  139CHL1    C916509   0.733   7.674  14.335 -0.1256  0.0627 -0.1928
  139CHL1    H916510   0.664   7.760  14.348  1.2275  0.8686  2.3196
  139CHL1   C1016511   0.791   7.679  14.195 -0.3368 -0.4152  0.1612
  139CHL1   C1916512   0.870   7.550  14.164 -0.4564  0.3239  0.4094
  139CHL1  H19A16513   0.890   7.551  14.055  0.3850  0.5785  0.5580
  139CHL1  H19B16514   0.963   7.541  14.224 -0.1457  0.6338 -0.0192
  139CHL1  H19C16515   0.801   7.466  14.187  0.6089 -0.0408  2.5587
  139CHL1    C116516   0.674   7.708  14.090 -0.5706  0.0656 -0.3430
  139CHL1   H1A16517   0.593   7.633  14.096 -1.2650  0.6507 -1.8020
  139CHL1   H1B16518   0.624   7.799  14.128 -0.1083  0.9133 -1.7130
  139CHL1    C216519   0.720   7.737  13.947 -0.2501  0.4993  0.0077
  139CHL1   H2A16520   0.635   7.750  13.876 -0.2205 -0.2414 -0.1640
  139CHL1   H2B16521   0.752   7.636  13.913 -1.1441  0.1174  0.2735
  139CHL1   C2016522   0.609   7.494  14.860  0.3652  0.3008 -0.1665
  139CHL1   H2016523   0.687   7.417  14.878 -1.1451 -0.8915  1.5468
  139CHL1   C2116524   0.478   7.434  14.792  0.0333  0.4655  0.1451
  139CHL1  H21A16525   0.501   7.374  14.702 -0.2690  0.9422 -0.2574
  139CHL1  H21B16526   0.404   7.513  14.767 -0.2139  0.0215 -0.5484
  139CHL1  H21C16527   0.463   7.347  14.860  1.3309 -2.0201 -2.5418
  139CHL1   C2216528   0.572   7.551  15.000  0.3307 -0.1152  0.7767
  139CHL1  H22A16529   0.640   7.632  15.032  0.1466  0.0760  0.6912
  139CHL1  H22B16530   0.468   7.589  14.994 -0.0911 -1.4059 -1.0460
  139CHL1   C2316531   0.575   7.444  15.105  0.0156  0.7877  0.3796
  139CHL1  H23A16532   0.487   7.380  15.082  0.2658  1.2744 -2.2411
  139CHL1  H23B16533   0.663   7.376  15.108 -0.6541 -0.0961  3.2438
  139CHL1   C2416534   0.568   7.490  15.247 -0.3370 -0.8916 -0.1302
  139CHL1  H24A16535   0.656   7.551  15.277 -0.3534 -0.7736 -0.3185
  139CHL1  H24B16536   0.496   7.572  15.268  1.8704  0.8429  1.1650
  139CHL1   C2516537   0.551   7.382  15.354  0.3613  0.5024  0.5020
  139CHL1   H2516538   0.634   7.309  15.341 -0.1885 -0.3636  1.6268
  139CHL1   C2616539   0.569   7.436  15.495 -0.6095  0.3056  0.0792
  139CHL1  H26A16540   0.673   7.476  15.506  0.9270 -3.0651 -0.9014
  139CHL1  H26B16541   0.495   7.519  15.498 -1.4500 -0.3864 -0.8768
  139CHL1  H26C16542   0.543   7.363  15.575  0.4094  1.7791  1.8502
  139CHL1   C2716543   0.427   7.291  15.342 -1.0749 -0.0820  0.2021
  139CHL1  H27A16544   0.419   7.245  15.241  0.0655  3.7552 -1.8629
  139CHL1  H27B16545   0.420   7.221  15.428  0.0860  1.1124  1.3153
  139CHL1  H27C16546   0.343   7.363  15.356 -1.5507 -0.7467  0.7617
  140CHL1    C316547   7.461   8.820  13.380  0.1693 -0.2792 -0.0164
  140CHL1    H316548   7.464   8.711  13.405 -0.4947 -0.6296 -1.3759
  140CHL1    O316549   7.447   8.837  13.239  0.1481 -0.1448  0.2574
  140CHL1   H3'16550   7.473   8.928  13.225 -2.5807  0.6407 -0.3831
  140CHL1    C416551   7.345   8.882  13.465 -0.3239  0.2421  0.4491
  140CHL1   H4A16552   7.339   8.986  13.426  2.0762 -0.0453 -0.9343
  140CHL1   H4B16553   7.256   8.829  13.425  0.0919  1.7560 -2.8770
  140CHL1    C516554   7.360   8.871  13.614 -0.1328  0.8799  0.6609
  140CHL1    C616555   7.270   8.803  13.693 -0.0086 -0.5743 -0.0740
  140CHL1    H616556   7.173   8.771  13.651 -0.6285 -0.2281  1.0660
  140CHL1    C716557   7.292   8.783  13.836 -0.5775  0.3184  0.1150
  140CHL1   H7A16558   7.197   8.806  13.890 -0.3077  0.4848  0.5272
  140CHL1   H7B16559   7.327   8.681  13.863 -0.3559  0.7056  1.3969
  140CHL1    C816560   7.404   8.885  13.900  0.0457 -0.4796  0.0805
  140CHL1    H816561   7.365   8.989  13.897  0.8625 -0.1777 -0.8316
  140CHL1   C1416562   7.450   8.833  14.034 -0.0825  0.0309  0.6292
  140CHL1   H1416563   7.494   8.733  14.014 -0.9805 -0.5968  1.6436
  140CHL1   C1516564   7.347   8.798  14.140 -0.4324  0.1474 -0.0504
  140CHL1  H15A16565   7.282   8.888  14.149  1.5005  1.6967 -0.7906
  140CHL1  H15B16566   7.288   8.708  14.114 -1.0204 -0.2088  2.2917
  140CHL1   C1616567   7.432   8.766  14.261  0.1076  0.0415 -0.1346
  140CHL1  H16A16568   7.391   8.816  14.352  1.9465  0.7854  0.3306
  140CHL1  H16B16569   7.450   8.658  14.279  0.4353  0.0150 -0.6226
  140CHL1   C1716570   7.574   8.820  14.231  0.2725  0.2220 -0.3693
  140CHL1   H1716571   7.626   8.731  14.189 -0.2738  0.8147 -2.4282
  140CHL1   C1316572   7.563   8.911  14.104  0.8323  0.9039 -1.2313
  140CHL1   C1816573   7.515   9.049  14.141 -0.1883 -0.8514 -0.2836
  140CHL1  H18A16574   7.601   9.108  14.178 -0.1731 -0.4216 -0.9881
  140CHL1  H18B16575   7.464   9.110  14.063  0.7626  1.5590  0.8880
  140CHL1  H18C16576   7.444   9.034  14.225  0.1769  0.0783  0.1976
  140CHL1   C1216577   7.685   8.896  14.009  0.4830  0.2806 -0.1703
  140CHL1  H12A16578   7.762   8.958  14.060  0.0312  0.0952  0.7599
  140CHL1  H12B16579   7.726   8.793  13.999  1.2928  0.3847  1.6540
  140CHL1   C1116580   7.652   8.953  13.873  0.4674  0.2399  0.3790
  140CHL1  H11A16581   7.625   9.059  13.889 -0.4266  0.1166 -0.2069
  140CHL1  H11B16582   7.745   8.941  13.815  1.0100 -1.3090  1.4795
  140CHL1    C916583   7.532   8.879  13.806 -0.2167  0.6930  0.3234
  140CHL1    H916584   7.537   8.768  13.810  0.5812  0.7603  1.8001
  140CHL1   C1016585   7.499   8.922  13.659  0.3442 -0.1488 -0.2243
  140CHL1   C1916586   7.485   9.082  13.654 -0.2921  1.1538  0.0966
  140CHL1  H19A16587   7.403   9.117  13.721 -0.4944  0.3022  0.3017
  140CHL1  H19B16588   7.587   9.113  13.687  0.8447 -3.1590  1.3115
  140CHL1  H19C16589   7.463   9.120  13.552 -1.6060  1.3810  0.4455
  140CHL1    C116590   7.618   8.877  13.576 -0.6032  0.3085  1.2696
  140CHL1   H1A16591   7.702   8.945  13.602  0.6853 -0.9185  0.4497
  140CHL1   H1B16592   7.638   8.774  13.613 -0.6162 -0.5706 -1.0552
  140CHL1    C216593   7.592   8.884  13.424 -0.4590  0.0818 -0.3618
  140CHL1   H2A16594   7.681   8.836  13.378 -1.0387 -2.8020  1.2557
  140CHL1   H2B16595   7.601   8.991  13.396 -1.3331  0.6145  1.2723
  140CHL1   C2016596   7.662   8.869  14.345 -0.9540  0.6835 -0.2086
  140CHL1   H2016597   7.683   8.780  14.407  0.3598  0.1396 -1.4011
  140CHL1   C2116598   7.594   8.966  14.446  0.1226 -0.1681 -0.1163
  140CHL1  H21A16599   7.662   8.988  14.531  1.0793 -0.9514 -0.6553
  140CHL1  H21B16600   7.498   8.931  14.491 -0.5076  1.6370  0.0367
  140CHL1  H21C16601   7.570   9.061  14.394 -0.7751 -0.9621 -1.2095
  140CHL1   C2216602   7.804   8.915  14.311  0.1824 -0.2372  0.1801
  140CHL1  H22A16603   7.850   8.850  14.234 -0.2639  0.8961 -1.0799
  140CHL1  H22B16604   7.802   9.014  14.262 -0.4947 -0.7537 -0.8651
  140CHL1   C2316605   7.919   8.910  14.416  0.2087 -0.6309  0.5214
  140CHL1  H23A16606   7.888   8.978  14.499 -1.5158 -0.5771 -0.1264
  140CHL1  H23B16607   7.922   8.804  14.447 -1.0623 -0.2547  2.0671
  140CHL1   C2416608   8.057   8.953  14.366 -0.8493 -0.9178  0.6090
  140CHL1  H24A16609   8.071   8.911  14.265  1.3866  1.4021 -0.1546
  140CHL1  H24B16610   8.055   9.064  14.361 -1.7836 -1.0024 -1.6940
  140CHL1   C2516611   8.179   8.899  14.442 -0.5277  0.9135  0.2582
  140CHL1   H2516612   8.181   8.792  14.471  0.3964  0.7864 -0.2261
  140CHL1   C2616613   8.184   8.975  14.572  0.6260  0.0269  0.0300
  140CHL1  H26A16614   8.093   8.947  14.630 -1.6464 -2.1729 -4.0316
  140CHL1  H26B16615   8.273   8.938  14.627 -0.0283  0.1362  1.1885
  140CHL1  H26C16616   8.189   9.080  14.538 -3.9653  0.2604 -0.6814
  140CHL1   C2716617   8.304   8.922  14.352 -0.2364 -0.5667 -0.1443
  140CHL1  H27A16618   8.311   8.866  14.257 -1.4815  1.1899 -1.3280
  140CHL1  H27B16619   8.311   9.032  14.341  2.3394 -0.4657  1.5921
  140CHL1  H27C16620   8.389   8.904  14.422  1.0264  1.7842 -0.9505
  141DOPC     N16621   5.991   4.662  16.442 -0.0417 -0.3588  0.3304
  141DOPC   C1216622   6.048   4.625  16.303 -0.4784  0.1376 -0.3215
  141DOPC  H12A16623   6.022   4.522  16.282  2.1072 -0.6677  0.0331
  141DOPC  H12B16624   6.154   4.629  16.323 -0.7453  1.8423  1.0104
  141DOPC   C1316625   6.047   4.569  16.552 -0.0214  0.7344  0.1150
  141DOPC  H13A16626   6.153   4.574  16.575  0.3498 -2.6619 -0.2801
  141DOPC  H13B16627   5.989   4.577  16.642 -1.3703 -1.2143 -0.5038
  141DOPC  H13C16628   6.042   4.465  16.521  1.9391  0.5209  0.3479
  141DOPC   C1416629   5.842   4.657  16.445  0.1725 -0.5549 -0.1145
  141DOPC  H14A16630   5.808   4.714  16.360  0.8568 -1.6421 -1.1363
  141DOPC  H14B16631   5.799   4.561  16.423 -0.1506 -0.8779  1.7745
  141DOPC  H14C16632   5.806   4.691  16.542  0.7350 -0.5576  0.0968
  141DOPC   C1516633   6.042   4.799  16.479 -0.0462  0.0196 -0.2972
  141DOPC  H15A16634   6.014   4.872  16.404  0.9744  0.0102 -0.6927
  141DOPC  H15B16635   6.149   4.796  16.470 -0.1303 -0.6389 -1.2392
  141DOPC  H15C16636   6.014   4.832  16.578  4.0498  1.8001  0.4820
  141DOPC   C1116637   6.017   4.713  16.178  0.9851 -0.1279 -0.2110
  141DOPC  H11A16638   6.071   4.809  16.181 -1.5767  1.4221 -0.6801
  141DOPC  H11B16639   6.061   4.676  16.083  2.0663 -0.7820  0.5246
  141DOPC     P16640   5.792   4.631  16.085  0.0091  0.3418 -0.0004
  141DOPC   O1316641   5.651   4.678  16.084  0.0536  0.1754 -0.4058
  141DOPC   O1416642   5.819   4.500  16.149 -0.0339 -0.0917  0.3719
  141DOPC   O1216643   5.880   4.738  16.164  0.6888 -0.3216  1.1820
  141DOPC   O1116644   5.851   4.630  15.938 -0.2009  0.1732  0.1154
  141DOPC    C116645   5.887   4.755  15.875 -0.2008  0.1705 -0.1015
  141DOPC    HA16646   5.995   4.766  15.852 -0.3797  1.8664 -0.2343
  141DOPC    HB16647   5.871   4.845  15.938 -1.5070 -1.3464  1.8492
  141DOPC    C216648   5.800   4.766  15.748  0.2738 -0.2839 -0.1423
  141DOPC    HS16649   5.696   4.731  15.762 -0.7963  2.1328 -1.5183
  141DOPC   O2116650   5.859   4.685  15.648  0.1767 -0.2984  0.1646
  141DOPC   C2116651   5.817   4.559  15.635 -0.3599  0.7362  0.0346
  141DOPC   O2216652   5.729   4.496  15.689  0.5571 -0.5270 -0.3695
  141DOPC   C2216653   5.902   4.501  15.519 -0.5583 -0.5045 -0.0222
  141DOPC   H2R16654   6.006   4.488  15.557 -0.7526 -0.6463  0.4676
  141DOPC   H2S16655   5.907   4.576  15.437  1.2407 -0.5369  0.0198
  141DOPC    C316656   5.796   4.914  15.710  0.2230  0.1654  0.0805
  141DOPC    HX16657   5.897   4.960  15.707  0.1754  0.2782  0.2182
  141DOPC    HY16658   5.751   4.969  15.795  0.5581  1.3379 -0.4711
  141DOPC   O3116659   5.722   4.925  15.583  0.2742  0.0910 -0.4409
  141DOPC   C3116660   5.617   4.998  15.585 -0.4820 -0.2962 -0.2184
  141DOPC   O3216661   5.580   5.077  15.671 -0.0842 -0.3201 -0.4464
  141DOPC   C3216662   5.527   4.963  15.466 -0.3185 -0.4353  0.2467
  141DOPC   H2X16663   5.431   5.015  15.487 -0.0605 -0.0198  0.4050
  141DOPC   H2Y16664   5.558   5.011  15.371 -1.4576 -1.5864 -0.7320
  141DOPC   C2316665   5.841   4.370  15.463  0.7692  0.4139  0.1715
  141DOPC   H3R16666   5.730   4.372  15.457  0.6871 -0.0436  1.3176
  141DOPC   H3S16667   5.856   4.289  15.536  1.0985 -0.5790 -0.9669
  141DOPC   C2416668   5.905   4.334  15.326  0.8857 -0.4052  0.1726
  141DOPC   H4R16669   6.011   4.302  15.334  1.2698  0.5253 -0.8987
  141DOPC   H4S16670   5.906   4.431  15.270 -0.4006  0.9125  2.2767
  141DOPC   C2516671   5.821   4.225  15.253 -0.6331 -0.2786  0.0524
  141DOPC   H5R16672   5.718   4.261  15.232 -0.6929 -0.8529 -0.6707
  141DOPC   H5S16673   5.826   4.144  15.330  0.6899  0.5005  0.8247
  141DOPC   C2616674   5.894   4.171  15.128  0.0535 -0.7355 -0.7697
  141DOPC   H6R16675   6.002   4.163  15.150 -0.1438  0.6172  0.9323
  141DOPC   H6S16676   5.901   4.242  15.043 -0.5754  0.5268  0.2105
  141DOPC   C2716677   5.840   4.031  15.090 -0.2453  0.0197  0.5036
  141DOPC   H7R16678   5.753   4.058  15.026 -2.6569  0.7370  3.8060
  141DOPC   H7S16679   5.812   3.978  15.183 -2.1356  0.3321  0.1590
  141DOPC   C2816680   5.951   3.944  15.014 -0.6641 -0.1693  0.5091
  141DOPC   H8R16681   6.033   3.926  15.087  0.7373 -0.0654 -0.9847
  141DOPC   H8S16682   6.003   4.000  14.934 -0.1450 -0.7425  0.4397
  141DOPC   C2916683   5.893   3.812  14.961  0.0547  0.7504 -0.0963
  141DOPC   H9R16684   5.861   3.804  14.856 -0.8612 -0.0241  0.2266
  141DOPC  C21016685   5.878   3.704  15.038 -0.4026  0.9122 -0.0320
  141DOPC  H10R16686   5.839   3.611  14.994  0.7955  0.4361 -0.1315
  141DOPC  C21116687   5.908   3.699  15.188  0.7560 -0.0150 -0.2007
  141DOPC  H11R16688   5.811   3.725  15.235  0.4660 -0.6317 -0.4546
  141DOPC  H11S16689   5.991   3.768  15.214  0.3938  0.6252 -0.7162
  141DOPC  C21216690   5.956   3.559  15.219 -0.2515 -0.3779  0.6068
  141DOPC  H12R16691   6.063   3.545  15.191 -0.6520 -0.5053 -0.9181
  141DOPC  H12S16692   5.899   3.479  15.167  0.3359  2.1493 -4.5974
  141DOPC  C21316693   5.951   3.533  15.369  0.3740  0.1285  0.2456
  141DOPC  H13R16694   5.996   3.431  15.373 -2.6654 -1.4349 -1.6087
  141DOPC  H13S16695   5.846   3.524  15.404  0.7383  1.1629  1.6796
  141DOPC  C21416696   6.018   3.636  15.466 -0.1857 -0.3113  0.2176
  141DOPC  H14R16697   5.959   3.731  15.468  1.1621  0.6089  3.6707
  141DOPC  H14S16698   6.110   3.656  15.408 -0.4017  0.5228  0.1536
  141DOPC  C21516699   6.044   3.588  15.608 -0.4839 -0.6334  0.9767
  141DOPC  H15R16700   6.101   3.672  15.652 -0.1605  0.2960 -1.1103
  141DOPC  H15S16701   6.106   3.496  15.602  0.1347 -0.1186 -1.5180
  141DOPC  C21616702   5.913   3.571  15.684  0.4220 -0.1101 -0.1926
  141DOPC  H16R16703   5.869   3.473  15.654  1.5100 -1.2918  1.7897
  141DOPC  H16S16704   5.846   3.655  15.656  0.3526  0.4828  1.6190
  141DOPC  C21716705   5.928   3.564  15.833  0.7697  0.1677 -0.4824
  141DOPC  H17R16706   5.832   3.545  15.886  1.1528  1.3947  0.7156
  141DOPC  H17S16707   5.964   3.660  15.876 -2.3615  0.2431  2.3852
  141DOPC  C21816708   6.024   3.446  15.873 -0.4544  0.6075  0.0047
  141DOPC  H18R16709   5.973   3.355  15.836 -0.2641  0.5894 -0.2168
  141DOPC  H18S16710   6.037   3.441  15.984  0.2318 -0.7173 -0.1127
  141DOPC  H18T16711   6.122   3.455  15.821 -0.0016  0.4319  0.8030
  141DOPC   C3316712   5.510   4.810  15.444 -0.0515  0.6549 -0.1397
  141DOPC   H3X16713   5.605   4.753  15.438 -0.2001  0.3991 -0.1117
  141DOPC   H3Y16714   5.460   4.797  15.346  2.0277 -0.2249 -1.1332
  141DOPC   C3416715   5.418   4.735  15.542 -0.3878  0.9957  0.0174
  141DOPC   H4X16716   5.321   4.788  15.556 -1.3703 -1.0404  1.2776
  141DOPC   H4Y16717   5.468   4.734  15.641  0.2444  1.0184 -0.3013
  141DOPC   C3516718   5.393   4.593  15.497 -0.2831 -0.4225  0.0393
  141DOPC   H5X16719   5.490   4.545  15.471 -0.2100  0.5269 -1.4956
  141DOPC   H5Y16720   5.347   4.593  15.396  3.7131 -2.3405 -2.0001
  141DOPC   C3616721   5.331   4.498  15.607  0.4168 -0.5508 -0.5416
  141DOPC   H6X16722   5.324   4.559  15.699  0.2023 -0.1312 -0.8335
  141DOPC   H6Y16723   5.226   4.469  15.585 -0.9668  1.7308  2.3932
  141DOPC   C3716724   5.413   4.377  15.641  0.0966 -0.3338  0.2586
  141DOPC   H7X16725   5.446   4.320  15.551 -1.7845  1.2470 -1.5537
  141DOPC   H7Y16726   5.502   4.412  15.696  1.1764 -0.6898 -1.2029
  141DOPC   C3816727   5.338   4.284  15.732 -0.3498 -0.5394 -0.1430
  141DOPC   H8X16728   5.240   4.253  15.690 -0.6250 -2.1763  1.5972
  141DOPC   H8Y16729   5.301   4.337  15.823 -0.8432  0.6655 -1.0234
  141DOPC   C3916730   5.406   4.166  15.787 -0.2879 -0.2344 -0.1612
  141DOPC   H9X16731   5.515   4.159  15.773 -0.6210 -0.5477 -3.3279
  141DOPC  C31016732   5.337   4.069  15.847 -0.0414  0.5407 -0.0947
  141DOPC  H10X16733   5.388   3.981  15.889 -1.1026  0.4235  0.9905
  141DOPC  C31116734   5.187   4.062  15.859 -0.6172  0.3051 -0.0742
  141DOPC  H11X16735   5.145   4.164  15.870  0.2786  0.6957 -0.2703
  141DOPC  H11Y16736   5.155   4.018  15.956 -1.1492 -0.8278 -0.7457
  141DOPC  C31216737   5.111   3.987  15.748  0.0093 -0.8127  0.3417
  141DOPC  H12X16738   5.173   3.905  15.705  0.6064  0.8606 -2.2352
  141DOPC  H12Y16739   5.092   4.053  15.661  0.1446 -1.1536  0.0477
  141DOPC  C31316740   4.973   3.928  15.787  0.4669  0.2159 -0.1414
  141DOPC  H13X16741   4.993   3.834  15.844 -1.1634 -1.2777 -1.9053
  141DOPC  H13Y16742   4.924   3.996  15.859 -1.7614  0.2415 -1.5919
  141DOPC  C31416743   4.885   3.872  15.677  0.1952 -0.1970  0.0448
  141DOPC  H14X16744   4.868   3.948  15.598 -0.9443 -1.2263 -0.7356
  141DOPC  H14Y16745   4.946   3.794  15.626 -0.8318 -0.0989 -1.4049
  141DOPC  C31516746   4.752   3.805  15.715 -0.2625  0.1498 -0.0800
  141DOPC  H15X16747   4.696   3.890  15.761  0.2076 -0.4940  1.7388
  141DOPC  H15Y16748   4.774   3.727  15.791  0.0422  0.8857  0.6039
  141DOPC  C31616749   4.671   3.736  15.601 -0.0402 -0.3882 -0.5220
  141DOPC  H16X16750   4.648   3.823  15.536  0.1954  0.5726  0.6428
  141DOPC  H16Y16751   4.725   3.662  15.539  1.0978 -0.0514  0.0326
  141DOPC  C31716752   4.541   3.679  15.645  0.6626  0.3391  0.7200
  141DOPC  H17X16753   4.493   3.740  15.725 -0.2428 -2.6346  2.6061
  141DOPC  H17Y16754   4.475   3.683  15.556  0.9834 -0.1122  0.4579
  141DOPC  C31816755   4.548   3.534  15.699  0.9322 -0.4613  0.4974
  141DOPC  H18X16756   4.571   3.537  15.807  0.6506 -0.6351  0.5616
  141DOPC  H18Y16757   4.453   3.479  15.689  1.7005 -1.3561 -4.3882
  141DOPC  H18Z16758   4.626   3.474  15.647  2.0348  0.4951  0.9775
  142DOPC     N16759   5.479   4.238  16.233 -0.7297 -0.5172  0.3897
  142DOPC   C1216760   5.588   4.186  16.138 -0.1671 -0.0690  0.0489
  142DOPC  H12A16761   5.679   4.208  16.192 -0.4879  0.1703  0.4918
  142DOPC  H12B16762   5.593   4.238  16.043 -0.8203 -1.7105 -0.9262
  142DOPC   C1316763   5.505   4.186  16.372  0.5972 -0.8372  0.1942
  142DOPC  H13A16764   5.605   4.216  16.401  0.8625  0.1474 -1.6236
  142DOPC  H13B16765   5.445   4.228  16.451  2.1756  2.2698 -0.1147
  142DOPC  H13C16766   5.505   4.078  16.365 -1.7303 -0.8585 -0.1456
  142DOPC   C1416767   5.341   4.192  16.193 -0.6115  0.0600  0.5641
  142DOPC  H14A16768   5.332   4.215  16.088  3.4179  1.7432  0.4109
  142DOPC  H14B16769   5.337   4.085  16.210  1.6593  0.0740  1.5938
  142DOPC  H14C16770   5.268   4.235  16.260  0.3372  2.1050  0.3463
  142DOPC   C1516771   5.480   4.387  16.230 -0.9241 -0.1573 -0.0825
  142DOPC  H15A16772   5.575   4.421  16.266 -0.2958 -0.8150 -1.0717
  142DOPC  H15B16773   5.417   4.438  16.302 -0.6485 -0.1477  0.1546
  142DOPC  H15C16774   5.454   4.422  16.132 -1.0279 -0.9297 -0.3372
  142DOPC   C1116775   5.577   4.033  16.111  0.3590  0.3302 -0.6586
  142DOPC  H11A16776   5.474   4.008  16.078  0.6500 -0.9236 -0.6761
  142DOPC  H11B16777   5.641   4.029  16.020 -1.8903  0.4334 -2.3444
  142DOPC     P16778   5.774   3.957  16.267 -0.4646 -0.2276  0.3444
  142DOPC   O1316779   5.793   3.870  16.385  0.4728 -0.3270  0.3108
  142DOPC   O1416780   5.826   4.102  16.270 -0.6233 -0.0208  0.3451
  142DOPC   O1216781   5.623   3.951  16.223 -0.3713 -0.2325  0.3314
  142DOPC   O1116782   5.846   3.884  16.146  0.6846  0.0182  0.0701
  142DOPC    C116783   5.973   3.926  16.108  0.0803  0.2705  1.0018
  142DOPC    HA16784   6.039   3.841  16.080 -0.3413  0.5629 -1.0339
  142DOPC    HB16785   6.030   3.979  16.188  0.2886  1.6595 -0.0430
  142DOPC    C216786   5.977   4.023  15.994  0.6748 -0.2753  0.0937
  142DOPC    HS16787   5.926   4.117  16.024  2.3978  0.1563  1.8687
  142DOPC   O2116788   5.916   3.964  15.871  0.5062  0.2588  0.3641
  142DOPC   C2116789   5.882   4.047  15.780  0.2998 -0.8386 -0.1118
  142DOPC   O2216790   5.872   4.169  15.792 -1.0160  0.0814  0.0811
  142DOPC   C2216791   5.882   3.969  15.648  0.6320 -0.3605  0.2139
  142DOPC   H2R16792   5.902   3.861  15.662  0.5214 -0.3782  0.2349
  142DOPC   H2S16793   5.957   4.021  15.585  0.4489 -1.3558 -0.8650
  142DOPC    C316794   6.124   4.076  15.959  0.2315 -0.5251 -0.0412
  142DOPC    HX16795   6.175   4.107  16.052  0.5850  2.7718 -1.2182
  142DOPC    HY16796   6.118   4.174  15.907  0.1849 -0.5895 -0.1567
  142DOPC   O3116797   6.190   3.982  15.871  0.2289  0.1634  0.1377
  142DOPC   C3116798   6.289   4.031  15.794 -0.3754  0.0976  0.5973
  142DOPC   O3216799   6.334   4.145  15.790 -0.1243  0.2964 -0.0201
  142DOPC   C3216800   6.336   3.914  15.708  0.3101 -0.0215  0.7373
  142DOPC   H2X16801   6.441   3.898  15.740  0.3574 -0.3878  0.4038
  142DOPC   H2Y16802   6.278   3.823  15.734 -1.8133  0.5244 -1.6510
  142DOPC   C2316803   5.753   3.996  15.564  0.1364  0.2681 -0.1668
  142DOPC   H3R16804   5.768   3.968  15.458  0.4553 -0.0513 -0.0368
  142DOPC   H3S16805   5.730   4.105  15.562 -0.3444  0.1645 -1.8578
  142DOPC   C2416806   5.636   3.915  15.613 -0.1631 -1.3454 -0.4211
  142DOPC   H4R16807   5.609   3.937  15.719  0.9745 -1.8971  0.0095
  142DOPC   H4S16808   5.668   3.808  15.610  0.5656 -1.2679  2.0453
  142DOPC   C2516809   5.505   3.923  15.529  0.0032  0.3301  0.0053
  142DOPC   H5R16810   5.466   4.025  15.507 -0.2519  0.1615 -0.3262
  142DOPC   H5S16811   5.431   3.868  15.590  0.1787  0.5356  0.4076
  142DOPC   C2616812   5.518   3.848  15.396  0.0674  0.4500 -0.0462
  142DOPC   H6R16813   5.569   3.750  15.405 -0.9240 -0.2321 -1.4912
  142DOPC   H6S16814   5.587   3.919  15.345  0.8435  0.9898  1.6595
  142DOPC   C2716815   5.389   3.829  15.319  0.4871  0.7882  0.1822
  142DOPC   H7R16816   5.337   3.925  15.301  0.3807  0.3895 -1.8453
  142DOPC   H7S16817   5.328   3.769  15.389 -0.8237 -0.2857 -1.7944
  142DOPC   C2816818   5.403   3.744  15.185 -1.0685 -0.5010  0.5172
  142DOPC   H8R16819   5.306   3.722  15.136 -1.6182  1.9542  0.3814
  142DOPC   H8S16820   5.447   3.650  15.224  2.7240  1.6613  2.0551
  142DOPC   C2916821   5.506   3.804  15.084  0.2922  0.3068 -0.0442
  142DOPC   H9R16822   5.599   3.846  15.125 -0.6793  2.0806  0.4569
  142DOPC  C21016823   5.472   3.841  14.960 -0.6618  0.5426 -0.8706
  142DOPC  H10R16824   5.558   3.882  14.906  0.2998  0.2940  0.4258
  142DOPC  C21116825   5.342   3.809  14.887  0.4961  0.5025  0.5870
  142DOPC  H11R16826   5.319   3.898  14.825 -0.5834  1.9354  2.8865
  142DOPC  H11S16827   5.264   3.800  14.965  1.8415  0.0665  1.9413
  142DOPC  C21216828   5.337   3.696  14.788  0.0832 -0.0499 -0.2069
  142DOPC  H12R16829   5.357   3.601  14.842 -0.6283 -0.7659 -1.1812
  142DOPC  H12S16830   5.420   3.696  14.714  0.4552 -0.4954  0.2088
  142DOPC  C21316831   5.206   3.684  14.708  0.1359 -0.0938  0.1254
  142DOPC  H13R16832   5.130   3.648  14.780 -1.0132  1.7244 -0.0974
  142DOPC  H13S16833   5.217   3.602  14.633 -0.1497 -0.2400  0.2395
  142DOPC  C21416834   5.171   3.813  14.628 -0.5280 -0.3990  0.2831
  142DOPC  H14R16835   5.253   3.843  14.559 -0.8382 -2.1886 -0.8964
  142DOPC  H14S16836   5.158   3.895  14.703  1.0322  2.4337 -2.3059
  142DOPC  C21516837   5.042   3.793  14.551 -0.4544 -0.4094  0.0357
  142DOPC  H15R16838   4.945   3.796  14.605 -0.8087 -0.8056 -0.5652
  142DOPC  H15S16839   5.050   3.687  14.519 -0.9535 -1.6229  3.4519
  142DOPC  C21616840   5.038   3.884  14.430  0.3065 -0.4464  0.2707
  142DOPC  H16R16841   5.131   3.881  14.369  1.3663  0.6176  1.7760
  142DOPC  H16S16842   5.019   3.988  14.464  1.3076 -0.6655  1.5648
  142DOPC  C21716843   4.925   3.866  14.332 -0.1795  0.4040  1.0570
  142DOPC  H17R16844   4.826   3.839  14.375 -0.6182  0.4143  0.0869
  142DOPC  H17S16845   4.951   3.778  14.269 -0.1442 -1.1330  3.1105
  142DOPC  C21816846   4.898   3.991  14.249  0.3560 -0.3110  0.6755
  142DOPC  H18R16847   4.795   3.979  14.211  0.9291 -0.6750 -0.8329
  142DOPC  H18S16848   4.969   3.995  14.163  1.7865 -1.2654  1.7543
  142DOPC  H18T16849   4.903   4.085  14.309 -0.2236  0.2970 -0.2023
  142DOPC   C3316850   6.326   3.960  15.561  0.0901  1.1473 -0.7482
  142DOPC   H3X16851   6.397   4.045  15.547  0.8175  0.3473 -2.0164
  142DOPC   H3Y16852   6.221   3.993  15.544 -0.0156  1.6928  0.7192
  142DOPC   C3416853   6.361   3.846  15.469  0.1170 -0.5107 -0.2736
  142DOPC   H4X16854   6.317   3.752  15.510  2.6851 -2.4095 -1.5507
  142DOPC   H4Y16855   6.471   3.833  15.468  0.0143 -1.5356 -0.0533
  142DOPC   C3516856   6.334   3.869  15.321  1.0560  0.2977 -0.0463
  142DOPC   H5X16857   6.383   3.964  15.290 -1.1559  1.0462 -1.5387
  142DOPC   H5Y16858   6.224   3.885  15.319  1.1757  1.1576 -0.8851
  142DOPC   C3616859   6.332   3.739  15.231 -0.2792 -0.9044 -0.0572
  142DOPC   H6X16860   6.439   3.707  15.240 -0.5202 -1.4473  1.0860
  142DOPC   H6Y16861   6.267   3.670  15.290 -0.7574  0.2952  0.8607
  142DOPC   C3716862   6.301   3.754  15.083  0.1784  0.6002 -0.1845
  142DOPC   H7X16863   6.191   3.750  15.070 -0.2065  4.5636  0.4665
  142DOPC   H7Y16864   6.316   3.859  15.048  1.0194  0.5274 -0.0589
  142DOPC   C3816865   6.382   3.674  14.975  0.3053 -0.6356 -0.1815
  142DOPC   H8X16866   6.491   3.689  14.991  0.1543  2.7884 -1.5933
  142DOPC   H8Y16867   6.355   3.700  14.871  0.3104 -1.8827 -0.5127
  142DOPC   C3916868   6.353   3.533  15.007 -1.1834 -0.3933  0.5294
  142DOPC   H9X16869   6.419   3.490  15.084  1.7869 -1.2318 -2.2736
  142DOPC  C31016870   6.263   3.458  14.945  0.1576 -0.9337 -0.1616
  142DOPC  H10X16871   6.244   3.354  14.977 -0.6228 -0.8515 -0.3327
  142DOPC  C31116872   6.155   3.504  14.848  0.2355 -0.3838  0.5592
  142DOPC  H11X16873   6.143   3.612  14.871 -0.4005 -0.5239  0.9068
  142DOPC  H11Y16874   6.057   3.461  14.877 -1.8666  3.3399 -0.3765
  142DOPC  C31216875   6.162   3.485  14.690 -0.7162 -0.0784  0.3668
  142DOPC  H12X16876   6.234   3.560  14.651  0.3604  0.1559  2.6601
  142DOPC  H12Y16877   6.062   3.506  14.646 -0.3907  2.8375  0.8334
  142DOPC  C31316878   6.212   3.351  14.636  0.3797  0.4179  0.2835
  142DOPC  H13X16879   6.304   3.313  14.686  1.3020 -0.6580 -2.0841
  142DOPC  H13Y16880   6.130   3.278  14.651  1.1323 -0.7268 -0.9459
  142DOPC  C31416881   6.237   3.353  14.483 -0.0417 -0.0035 -0.0846
  142DOPC  H14X16882   6.193   3.442  14.432  0.5351  0.6226  0.5066
  142DOPC  H14Y16883   6.347   3.355  14.473  0.1766  0.6656  2.0086
  142DOPC  C31516884   6.177   3.227  14.414 -0.0028 -0.0412 -0.0255
  142DOPC  H15X16885   6.193   3.135  14.475 -0.8014  1.2134  2.1814
  142DOPC  H15Y16886   6.215   3.213  14.311  1.4438  0.7495  0.3755
  142DOPC  C31616887   6.023   3.231  14.406  0.5131 -0.3177 -0.4441
  142DOPC  H16X16888   5.992   3.256  14.510 -0.5970 -2.8732 -0.0848
  142DOPC  H16Y16889   5.997   3.315  14.339 -1.5217  0.0529  0.7355
  142DOPC  C31716890   5.962   3.101  14.347 -0.3988  0.5462  0.3106
  142DOPC  H17X16891   6.008   3.081  14.247  0.0089 -4.1667  1.2120
  142DOPC  H17Y16892   5.993   3.017  14.412  0.7927  1.8558  1.5065
  142DOPC  C31816893   5.806   3.092  14.340 -0.8624 -0.6679  0.5284
  142DOPC  H18X16894   5.765   3.006  14.282 -0.2657  0.2431 -1.3234
  142DOPC  H18Y16895   5.765   3.095  14.443  3.9640 -1.9836  2.8030
  142DOPC  H18Z16896   5.768   3.184  14.290  0.0235 -0.2580  0.5845
  143DOPC     N16897   1.953   2.538  16.081 -0.1807  0.4739 -0.8311
  143DOPC   C1216898   1.845   2.594  15.994 -0.6223  0.0793 -0.1712
  143DOPC  H12A16899   1.750   2.578  16.044  0.1930  1.2278  1.8530
  143DOPC  H12B16900   1.850   2.534  15.905 -0.5906  0.1583 -0.2223
  143DOPC   C1316901   1.959   2.608  16.209  0.8013  0.6016 -0.2258
  143DOPC  H13A16902   1.875   2.588  16.274 -0.4159  1.2545 -1.5095
  143DOPC  H13B16903   2.048   2.584  16.265  1.3548 -1.3612 -1.8620
  143DOPC  H13C16904   1.959   2.714  16.184 -1.6583  0.6017 -0.5213
  143DOPC   C1416905   2.083   2.546  16.012  0.0254 -0.1687  0.7182
  143DOPC  H14A16906   2.111   2.650  16.002 -0.4604 -0.0843  0.1386
  143DOPC  H14B16907   2.159   2.494  16.068  1.3409  0.1449 -0.7013
  143DOPC  H14C16908   2.089   2.517  15.908  2.3277  3.7872 -0.4703
  143DOPC   C1516909   1.930   2.385  16.106 -0.3171 -0.4998 -0.0616
  143DOPC  H15A16910   2.011   2.346  16.166  0.9147  0.7631 -0.8412
  143DOPC  H15B16911   1.935   2.348  16.005 -0.3347  1.4599 -0.8212
  143DOPC  H15C16912   1.833   2.367  16.150 -0.4272 -1.4295 -0.6605
  143DOPC   C1116913   1.849   2.749  15.962 -0.0200  0.0195 -0.2603
  143DOPC  H11A16914   1.946   2.777  15.916  1.3936  1.7981  3.4113
  143DOPC  H11B16915   1.771   2.773  15.887 -0.3148  3.1619  0.8844
  143DOPC     P16916   1.679   2.852  16.142  0.0596  0.0351 -0.1014
  143DOPC   O1316917   1.648   2.986  16.190  0.3242 -0.0631 -0.3318
  143DOPC   O1416918   1.670   2.738  16.241  0.5335 -0.0066 -0.1812
  143DOPC   O1216919   1.821   2.833  16.078  0.4814 -0.3550  0.2429
  143DOPC   O1116920   1.579   2.816  16.029  0.2064  0.3553 -0.2245
  143DOPC    C116921   1.529   2.917  15.938 -0.8197  0.9629 -0.5210
  143DOPC    HA16922   1.615   2.962  15.884  0.3962 -2.8210 -2.0317
  143DOPC    HB16923   1.474   3.001  15.986  1.1427  0.9766  1.9252
  143DOPC    C216924   1.433   2.850  15.823  0.6149  0.2376  0.9462
  143DOPC    HS16925   1.364   2.781  15.877  0.0043 -0.4960 -0.6882
  143DOPC   O2116926   1.512   2.771  15.733  0.0417 -0.0473 -0.0265
  143DOPC   C2116927   1.437   2.692  15.648 -0.0917 -0.2053  0.6875
  143DOPC   O2216928   1.315   2.687  15.648 -0.2583  0.1625 -0.1654
  143DOPC   C2216929   1.532   2.609  15.559 -0.4495  0.3974  0.1413
  143DOPC   H2R16930   1.530   2.505  15.598  0.4766  0.1494 -0.4393
  143DOPC   H2S16931   1.635   2.647  15.576 -0.9167  1.7092  0.1188
  143DOPC    C316932   1.342   2.957  15.744 -0.2087  0.1594 -0.1226
  143DOPC    HX16933   1.305   3.022  15.826  0.9005 -1.6575  1.9266
  143DOPC    HY16934   1.251   2.903  15.709  0.6197 -1.2560 -0.1791
  143DOPC   O3116935   1.405   3.037  15.645 -0.4379  0.2588 -0.1030
  143DOPC   C3116936   1.465   3.151  15.687 -0.2791 -0.2438  0.3513
  143DOPC   O3216937   1.463   3.190  15.801  0.3080 -0.1434 -0.4049
  143DOPC   C3216938   1.545   3.209  15.576 -0.9512  0.0072 -0.0529
  143DOPC   H2X16939   1.618   3.281  15.617  2.2983 -2.0634 -1.8094
  143DOPC   H2Y16940   1.607   3.125  15.538  1.9460  1.5333  1.0052
  143DOPC   C2316941   1.490   2.631  15.407  0.4049  0.2255 -0.1380
  143DOPC   H3R16942   1.391   2.586  15.386  0.3941 -0.6209  1.5449
  143DOPC   H3S16943   1.559   2.568  15.347  1.2031 -0.1303  1.1261
  143DOPC   C2416944   1.494   2.780  15.362 -0.2058  0.2665  0.0420
  143DOPC   H4R16945   1.593   2.818  15.398  0.5373 -0.8143 -0.7874
  143DOPC   H4S16946   1.414   2.846  15.402  2.1561  1.6109  2.9714
  143DOPC   C2516947   1.496   2.788  15.202 -0.1239  0.0642  0.1992
  143DOPC   H5R16948   1.413   2.719  15.173 -0.2492 -0.3095  1.3847
  143DOPC   H5S16949   1.597   2.758  15.168  0.2208  1.4832 -0.0683
  143DOPC   C2616950   1.456   2.935  15.163 -0.5056 -0.5456  0.1602
  143DOPC   H6R16951   1.542   3.005  15.173  0.1907 -1.3241 -0.2071
  143DOPC   H6S16952   1.374   2.977  15.226  1.2231  0.5344  1.8018
  143DOPC   C2716953   1.422   2.948  15.015  0.2034 -1.0741 -0.7275
  143DOPC   H7R16954   1.345   2.870  14.994 -0.2881 -0.7205 -0.2566
  143DOPC   H7S16955   1.510   2.927  14.951 -0.5224  0.1131 -2.1857
  143DOPC   C2816956   1.378   3.088  14.973  0.1711  0.6547 -0.1600
  143DOPC   H8R16957   1.451   3.165  15.005 -0.6462  0.1568  3.2943
  143DOPC   H8S16958   1.284   3.099  15.030 -0.5078 -2.5589 -0.4697
  143DOPC   C2916959   1.344   3.086  14.823 -0.0821 -0.1616  0.0166
  143DOPC   H9R16960   1.280   3.001  14.793  0.2130  0.3886 -2.3610
  143DOPC  C21016961   1.409   3.164  14.735  0.4194 -0.4410 -0.1039
  143DOPC  H10R16962   1.379   3.162  14.629  1.3889 -0.2248 -0.3935
  143DOPC  C21116963   1.507   3.271  14.761 -0.5749  0.0005  0.3883
  143DOPC  H11R16964   1.556   3.259  14.860 -1.4253  1.1229  0.9694
  143DOPC  H11S16965   1.454   3.368  14.772  1.7492  1.4926 -0.9440
  143DOPC  C21216966   1.623   3.299  14.662  0.6278  0.2366  0.4169
  143DOPC  H12R16967   1.673   3.203  14.635 -1.0328 -0.6120  0.2329
  143DOPC  H12S16968   1.701   3.358  14.715 -0.5330  2.1681  0.0418
  143DOPC  C21316969   1.583   3.375  14.540  0.3477 -0.0800 -0.1819
  143DOPC  H13R16970   1.546   3.480  14.542 -1.5133 -0.4951 -3.9481
  143DOPC  H13S16971   1.496   3.323  14.495 -2.4048  3.3387  0.8154
  143DOPC  C21416972   1.691   3.366  14.427  0.2371 -0.3554  0.2557
  143DOPC  H14R16973   1.728   3.265  14.401  1.4099  0.3824 -1.0739
  143DOPC  H14S16974   1.780   3.425  14.459  0.0257  0.3322 -0.3772
  143DOPC  C21516975   1.628   3.428  14.302  0.3694 -0.3331  0.1849
  143DOPC  H15R16976   1.603   3.535  14.322  2.2129  0.0536  0.5586
  143DOPC  H15S16977   1.534   3.377  14.272 -1.2650  2.1303  0.8169
  143DOPC  C21616978   1.722   3.416  14.177  0.1586  0.0631 -0.2913
  143DOPC  H16R16979   1.696   3.487  14.095  1.6490 -0.9182 -1.6913
  143DOPC  H16S16980   1.712   3.313  14.137  0.3132  0.1025 -0.4356
  143DOPC  C21716981   1.870   3.438  14.195  0.0275 -0.0578  0.3233
  143DOPC  H17R16982   1.917   3.396  14.287  1.4322  0.8076  0.0318
  143DOPC  H17S16983   1.886   3.548  14.195  0.3118 -0.0674  2.3765
  143DOPC  C21816984   1.954   3.378  14.082  0.3607  0.2596  0.7269
  143DOPC  H18R16985   2.044   3.442  14.070  0.9008 -0.9634 -2.8092
  143DOPC  H18S16986   1.897   3.384  13.987 -1.3411  2.8287  1.8116
  143DOPC  H18T16987   1.989   3.276  14.110  1.3209  0.3838  0.0320
  143DOPC   C3316988   1.460   3.265  15.468  0.5233 -0.3258 -0.3745
  143DOPC   H3X16989   1.408   3.359  15.495 -1.4918 -0.6515 -2.7381
  143DOPC   H3Y16990   1.382   3.190  15.440 -1.1995  1.1867  0.2062
  143DOPC   C3416991   1.542   3.294  15.341  0.0577  0.2961 -0.0805
  143DOPC   H4X16992   1.485   3.323  15.251  0.1665  0.6274 -0.0450
  143DOPC   H4Y16993   1.592   3.202  15.304 -0.0031 -0.5160  1.7307
  143DOPC   C3516994   1.647   3.412  15.350  0.3410 -0.3130 -0.0637
  143DOPC   H5X16995   1.730   3.355  15.398 -0.6667 -2.8424 -1.1608
  143DOPC   H5Y16996   1.598   3.489  15.413 -0.8319  0.1380 -1.4718
  143DOPC   C3616997   1.688   3.461  15.211 -0.2175  0.0816  0.0106
  143DOPC   H6X16998   1.779   3.524  15.222  0.5129 -0.7780 -0.9239
  143DOPC   H6Y16999   1.723   3.375  15.149  2.4975  0.7985  0.4117
  143DOPC   C3717000   1.588   3.552  15.138 -0.4740 -0.2060 -0.5404
  143DOPC   H7X17001   1.503   3.480  15.128 -0.3034 -0.9239  2.2312
  143DOPC   H7Y17002   1.564   3.637  15.205 -1.0906  0.8799 -2.0740
  143DOPC   C3817003   1.611   3.602  14.999 -0.7509 -0.5659  0.2524
  143DOPC   H8X17004   1.519   3.642  14.951  1.7515  3.6843 -1.5718
  143DOPC   H8Y17005   1.657   3.522  14.937  0.3463  0.0059  0.3024
  143DOPC   C3917006   1.711   3.719  15.010 -0.2609  0.1087 -0.8178
  143DOPC   H9X17007   1.779   3.716  15.095 -0.9815 -1.9775 -0.2394
  143DOPC  C31017008   1.722   3.823  14.925  0.3239 -0.1323 -0.3812
  143DOPC  H10X17009   1.803   3.890  14.958  0.0766 -0.7203  1.5195
  143DOPC  C31117010   1.645   3.862  14.803  0.5805  0.4362  0.2006
  143DOPC  H11X17011   1.634   3.973  14.809 -0.4028  0.3665 -0.2045
  143DOPC  H11Y17012   1.546   3.813  14.809 -1.0554  3.0433 -2.3815
  143DOPC  C31217013   1.718   3.815  14.681  0.0313  0.2828  0.2517
  143DOPC  H12X17014   1.714   3.704  14.674  0.0743  0.3533 -1.2967
  143DOPC  H12Y17015   1.819   3.857  14.663 -0.5743  1.8722  0.3640
  143DOPC  C31317016   1.646   3.870  14.554  0.6196  0.1373 -0.2699
  143DOPC  H13X17017   1.537   3.847  14.555  0.7768 -1.3398  3.6434
  143DOPC  H13Y17018   1.658   3.980  14.562  0.1982  0.1343  0.5567
  143DOPC  C31417019   1.717   3.810  14.430  0.2002  0.1770 -0.5423
  143DOPC  H14X17020   1.823   3.830  14.454 -0.3500  2.0531  0.5167
  143DOPC  H14Y17021   1.701   3.700  14.427  0.6136  0.0415  1.1441
  143DOPC  C31517022   1.670   3.871  14.303 -0.0799  0.1301  0.2555
  143DOPC  H15X17023   1.662   3.982  14.302 -0.1570  0.1221  0.0005
  143DOPC  H15Y17024   1.564   3.841  14.289 -0.2864  0.5945  0.7611
  143DOPC  C31617025   1.739   3.820  14.174 -0.3542  0.9775  0.1652
  143DOPC  H16X17026   1.718   3.711  14.175 -3.3908  1.4748  1.1917
  143DOPC  H16Y17027   1.686   3.874  14.092  0.1629  1.3606  0.0742
  143DOPC  C31717028   1.888   3.856  14.180  0.2091 -0.2296  0.1020
  143DOPC  H17X17029   1.905   3.961  14.212  0.4031  0.1931 -1.3365
  143DOPC  H17Y17030   1.926   3.792  14.263 -0.4811 -2.0524 -0.9240
  143DOPC  C31817031   1.982   3.825  14.057 -0.6218 -0.6169 -0.0214
  143DOPC  H18X17032   1.925   3.850  13.965 -1.8939 -0.2085  0.8419
  143DOPC  H18Y17033   2.077   3.882  14.064  0.8829 -2.3810 -3.5815
  143DOPC  H18Z17034   2.009   3.718  14.057 -1.9093 -0.9635 -0.4185
  144DOPC     N17035   3.085   3.083  16.181  0.0105 -0.0416  0.8855
  144DOPC   C1217036   3.002   3.146  16.069 -0.2668  0.8548 -0.4372
  144DOPC  H12A17037   2.957   3.232  16.116  1.6763  1.4148  0.5063
  144DOPC  H12B17038   2.913   3.085  16.059 -0.2453  0.2568  2.1053
  144DOPC   C1317039   3.130   2.945  16.132 -0.3624 -0.7699 -0.4998
  144DOPC  H13A17040   3.210   2.956  16.061  1.3107  0.2482  1.4249
  144DOPC  H13B17041   3.166   2.893  16.220 -0.8730  1.3304  1.0339
  144DOPC  H13C17042   3.041   2.898  16.092 -0.8140 -0.2256 -0.1493
  144DOPC   C1417043   3.005   3.067  16.304 -0.1624 -0.0134 -0.4906
  144DOPC  H14A17044   3.053   3.013  16.384 -1.0570 -0.2595 -0.0975
  144DOPC  H14B17045   2.965   3.161  16.342  1.1886 -0.4904  2.4434
  144DOPC  H14C17046   2.923   3.004  16.275 -0.5797  0.1945  0.1925
  144DOPC   C1517047   3.208   3.170  16.221 -0.4368  0.0321  0.1978
  144DOPC  H15A17048   3.260   3.202  16.132 -0.5805 -0.5757 -0.1163
  144DOPC  H15B17049   3.279   3.110  16.275  0.2925 -0.3801 -1.1523
  144DOPC  H15C17050   3.180   3.255  16.281  0.1587 -0.8303  1.7410
  144DOPC   C1117051   3.080   3.189  15.944  0.7008 -0.2702  0.2109
  144DOPC  H11A17052   3.134   3.099  15.906  0.8148 -0.1124  0.0017
  144DOPC  H11B17053   3.000   3.217  15.872  0.2179  1.1746  1.2588
  144DOPC     P17054   3.301   3.323  15.872  0.0020 -0.1454  0.1606
  144DOPC   O1317055   3.413   3.290  15.964  0.0220  0.8820  0.1344
  144DOPC   O1417056   3.301   3.456  15.814  0.0268  0.3420  1.0224
  144DOPC   O1217057   3.164   3.305  15.958 -0.4071  0.2333 -0.0643
  144DOPC   O1117058   3.280   3.221  15.762 -0.1213  0.0923 -0.2052
  144DOPC    C117059   3.217   3.229  15.633 -0.3120  0.0910 -0.0745
  144DOPC    HA17060   3.147   3.314  15.621  0.1938  0.5038 -0.1705
  144DOPC    HB17061   3.161   3.135  15.616  0.0715 -0.2510  0.4962
  144DOPC    C217062   3.318   3.244  15.518 -0.7047 -0.0026  0.0501
  144DOPC    HS17063   3.378   3.336  15.536  0.7099 -0.5839 -1.5384
  144DOPC   O2117064   3.245   3.260  15.388  0.3316 -0.1321 -0.3456
  144DOPC   C2117065   3.198   3.380  15.361  0.4572 -0.1351  0.4453
  144DOPC   O2217066   3.223   3.481  15.426  0.1217 -0.0316  0.2207
  144DOPC   C2217067   3.111   3.379  15.238  0.1337  0.5177 -0.3212
  144DOPC   H2R17068   3.123   3.476  15.186 -0.7210  1.3531  1.0052
  144DOPC   H2S17069   3.006   3.374  15.274 -0.0133  0.4462 -0.7450
  144DOPC    C317070   3.416   3.124  15.522  0.2668  0.3648  0.0333
  144DOPC    HX17071   3.358   3.031  15.540  1.0549 -0.4120 -1.2863
  144DOPC    HY17072   3.474   3.141  15.615  2.8036 -2.6842 -0.8437
  144DOPC   O3117073   3.493   3.107  15.403  0.0731 -0.1685 -0.2604
  144DOPC   C3117074   3.593   3.182  15.388  0.3775 -0.2842  0.3129
  144DOPC   O3217075   3.629   3.268  15.462 -0.0159  0.2349 -0.4592
  144DOPC   C3217076   3.675   3.134  15.265 -0.4819 -0.6610 -0.4207
  144DOPC   H2X17077   3.772   3.091  15.299 -0.4530 -1.2645 -1.2390
  144DOPC   H2Y17078   3.615   3.054  15.216  0.9920 -1.9970 -0.1352
  144DOPC   C2317079   3.142   3.256  15.139 -0.4607 -0.4635 -0.4883
  144DOPC   H3R17080   3.063   3.250  15.061  0.7494  0.1526 -1.8141
  144DOPC   H3S17081   3.140   3.167  15.206  2.2012 -0.0050  0.3155
  144DOPC   C2417082   3.285   3.258  15.080  0.6216  0.7925  0.3071
  144DOPC   H4R17083   3.371   3.244  15.149  1.1148 -0.7331 -0.5509
  144DOPC   H4S17084   3.307   3.359  15.041 -0.6625  0.9889  0.0684
  144DOPC   C2517085   3.303   3.153  14.972  0.5456  0.0967  0.5663
  144DOPC   H5R17086   3.406   3.142  14.931 -0.2835 -0.7177 -1.4675
  144DOPC   H5S17087   3.240   3.179  14.884  3.1471 -0.0680 -1.4707
  144DOPC   C2617088   3.255   3.019  15.027  0.1924 -0.6749  0.5446
  144DOPC   H6R17089   3.274   2.944  14.947  2.0254 -0.0795  0.3905
  144DOPC   H6S17090   3.149   3.026  15.060 -0.0620  2.0713 -0.6649
  144DOPC   C2717091   3.325   2.971  15.156  0.5655  0.3614  0.2464
  144DOPC   H7R17092   3.320   3.057  15.226 -1.0827 -2.1820  3.5169
  144DOPC   H7S17093   3.428   2.950  15.119  0.2167 -0.0621 -0.5125
  144DOPC   C2817094   3.253   2.848  15.208 -0.5028 -1.0556  0.2154
  144DOPC   H8R17095   3.145   2.870  15.226  0.1649  1.6141  1.4886
  144DOPC   H8S17096   3.301   2.816  15.303 -1.2748 -0.5047  0.8042
  144DOPC   C2917097   3.273   2.729  15.118 -0.6655 -0.2438  0.3249
  144DOPC   H9R17098   3.377   2.699  15.098 -0.3027  0.8779  0.4726
  144DOPC  C21017099   3.176   2.679  15.035  0.3906  0.4870  0.9267
  144DOPC  H10R17100   3.207   2.605  14.960  0.4888 -0.1926  1.6257
  144DOPC  C21117101   3.039   2.738  15.020  0.1993  0.1500 -0.0822
  144DOPC  H11R17102   3.038   2.824  14.949 -0.5155  1.9769  2.0409
  144DOPC  H11S17103   2.994   2.770  15.116 -1.5129  1.8828 -1.3919
  144DOPC  C21217104   2.948   2.625  14.957 -0.1058  0.1435 -0.5825
  144DOPC  H12R17105   2.986   2.592  14.857 -0.0352 -1.3103 -0.1053
  144DOPC  H12S17106   2.845   2.664  14.942 -0.9962 -1.7271  0.3128
  144DOPC  C21317107   2.933   2.501  15.048  0.5177 -0.4128  0.3959
  144DOPC  H13R17108   2.879   2.522  15.142  1.8134  1.9688  0.6951
  144DOPC  H13S17109   3.035   2.460  15.068  0.2302 -0.8581  0.9560
  144DOPC  C21417110   2.859   2.384  14.980  0.2669 -0.2665  0.0744
  144DOPC  H14R17111   2.904   2.356  14.882  0.4235  0.9311 -0.2034
  144DOPC  H14S17112   2.754   2.418  14.963  0.5214  0.3561 -0.2649
  144DOPC  C21517113   2.847   2.245  15.050 -0.3443 -0.7180  0.3651
  144DOPC  H15R17114   2.826   2.259  15.158  0.5471 -0.5671  0.5250
  144DOPC  H15S17115   2.946   2.196  15.044  0.4590  0.7900  0.8627
  144DOPC  C21617116   2.744   2.161  14.979  0.3141 -0.3483 -0.1140
  144DOPC  H16R17117   2.757   2.174  14.869 -0.0753  0.1416 -0.1067
  144DOPC  H16S17118   2.638   2.191  14.993  0.3095  0.8280 -2.1794
  144DOPC  C21717119   2.747   2.021  15.041 -0.5901 -0.1872 -0.1822
  144DOPC  H17R17120   2.853   1.988  15.030 -0.7405 -0.6276 -0.3480
  144DOPC  H17S17121   2.683   1.947  14.989  1.3228 -1.3074 -1.0655
  144DOPC  C21817122   2.711   2.012  15.191 -0.4874 -0.2202 -0.9663
  144DOPC  H18R17123   2.766   2.085  15.255  0.8789  0.9275 -3.3333
  144DOPC  H18S17124   2.734   1.909  15.227 -1.2400 -0.4564 -1.1443
  144DOPC  H18T17125   2.603   2.036  15.201 -0.6756 -0.1177 -2.9522
  144DOPC   C3317126   3.716   3.244  15.165 -0.3592  0.3981 -0.2999
  144DOPC   H3X17127   3.748   3.332  15.225 -3.6794  0.5973  1.3861
  144DOPC   H3Y17128   3.627   3.280  15.110  0.8477 -0.1073 -2.7277
  144DOPC   C3417129   3.820   3.208  15.052 -0.2170  0.8408 -0.5588
  144DOPC   H4X17130   3.914   3.157  15.081  0.4593  2.3179 -0.0310
  144DOPC   H4Y17131   3.842   3.311  15.015  0.8633  1.7086  2.2244
  144DOPC   C3517132   3.760   3.126  14.940 -0.3286  0.1546  0.0659
  144DOPC   H5X17133   3.667   3.170  14.897  0.0433 -1.3868 -2.5175
  144DOPC   H5Y17134   3.731   3.028  14.982 -0.9817  0.2529 -0.1447
  144DOPC   C3617135   3.851   3.112  14.816 -0.3439 -0.4567  0.2259
  144DOPC   H6X17136   3.878   3.215  14.784 -0.3412 -0.5261 -0.0009
  144DOPC   H6Y17137   3.945   3.059  14.841  1.3741  1.2937 -2.0484
  144DOPC   C3717138   3.796   3.034  14.700  0.4895 -0.0430 -0.0784
  144DOPC   H7X17139   3.764   2.932  14.731 -3.8119  1.3115  0.6155
  144DOPC   H7Y17140   3.702   3.082  14.664  1.5206  0.9424 -1.5564
  144DOPC   C3817141   3.893   3.025  14.578  0.2278 -0.5243 -0.1580
  144DOPC   H8X17142   3.867   2.937  14.515 -0.0113 -0.9946  0.5838
  144DOPC   H8Y17143   3.996   3.016  14.619 -0.4977 -3.5509  1.2816
  144DOPC   C3917144   3.878   3.152  14.497  0.2672 -0.2851 -0.5507
  144DOPC   H9X17145   3.877   3.236  14.568 -0.1390 -1.4607  0.8893
  144DOPC  C31017146   3.877   3.182  14.367  0.4218 -0.1550 -0.3381
  144DOPC  H10X17147   3.858   3.287  14.340  1.5241  0.1760  0.0957
  144DOPC  C31117148   3.880   3.077  14.259 -0.2062  0.1187  0.2583
  144DOPC  H11X17149   3.960   3.004  14.283 -1.0754 -1.4196 -1.2201
  144DOPC  H11Y17150   3.905   3.134  14.167  0.6154  0.7150  0.8390
  144DOPC  C31217151   3.750   3.001  14.228 -0.5055 -0.7920 -0.1183
  144DOPC  H12X17152   3.677   3.080  14.201  1.1137  0.8305  0.0489
  144DOPC  H12Y17153   3.721   2.970  14.331 -0.0844  0.0231  0.2473
  144DOPC  C31317154   3.755   2.895  14.124 -0.4270  1.1905 -0.0455
  144DOPC  H13X17155   3.824   2.929  14.043  1.5717 -0.4615  0.8629
  144DOPC  H13Y17156   3.814   2.812  14.169 -1.0282  1.5614  1.4701
  144DOPC  C31417157   3.616   2.846  14.072 -0.1659 -0.5099 -0.0097
  144DOPC  H14X17158   3.544   2.852  14.156  0.2023  0.9109  0.2366
  144DOPC  H14Y17159   3.582   2.918  13.994  4.3526  1.1383 -0.7888
  144DOPC  C31517160   3.616   2.704  14.013  0.1507  0.5713  0.7719
  144DOPC  H15X17161   3.631   2.643  14.106  0.2071  1.1425  1.1431
  144DOPC  H15Y17162   3.698   2.690  13.940 -1.3138  2.6892 -1.3977
  144DOPC  C31617163   3.481   2.670  13.949 -0.0457 -0.9383 -0.3256
  144DOPC  H16X17164   3.400   2.680  14.025  2.9080  0.0166  2.9653
  144DOPC  H16Y17165   3.465   2.740  13.864  0.4059  0.0089  0.3463
  144DOPC  C31717166   3.470   2.523  13.912 -0.3337 -0.8832 -0.4557
  144DOPC  H17X17167   3.473   2.460  14.004  1.3746 -0.1182  0.0539
  144DOPC  H17Y17168   3.368   2.501  13.873 -1.4118  0.8303  1.1500
  144DOPC  C31817169   3.556   2.469  13.799 -0.7258 -0.1840  0.2350
  144DOPC  H18X17170   3.552   2.531  13.708  0.1272 -1.7673 -0.9240
  144DOPC  H18Y17171   3.663   2.458  13.830 -0.0548 -0.6900 -2.0949
  144DOPC  H18Z17172   3.533   2.364  13.772 -1.2244  0.7993 -3.8056
  145DOPC     N17173   3.206   7.796  16.089  0.9659 -0.1598 -0.6941
  145DOPC   C1217174   3.298   7.763  16.203  0.1253  0.0751  0.0529
  145DOPC  H12A17175   3.264   7.674  16.254  2.7492 -0.5524  0.8082
  145DOPC  H12B17176   3.305   7.842  16.276  0.2385 -1.1418  1.4058
  145DOPC   C1317177   3.238   7.925  16.023  0.2232 -0.2106  0.1229
  145DOPC  H13A17178   3.169   7.938  15.941 -0.3337 -0.7906  0.4882
  145DOPC  H13B17179   3.222   8.012  16.085  0.8594  0.3627 -0.4950
  145DOPC  H13C17180   3.344   7.933  16.002  0.3634  1.4505  1.2957
  145DOPC   C1417181   3.072   7.813  16.140  0.7420 -0.3636  0.3534
  145DOPC  H14A17182   3.043   7.733  16.205 -0.4932  0.6156  1.0392
  145DOPC  H14B17183   3.059   7.907  16.192 -4.9124 -0.0767 -0.9956
  145DOPC  H14C17184   3.007   7.812  16.053  2.6032 -0.6570 -1.1230
  145DOPC   C1517185   3.203   7.686  15.992  0.3862 -0.0763 -0.0453
  145DOPC  H15A17186   3.143   7.706  15.905 -1.2600 -1.5979  0.6814
  145DOPC  H15B17187   3.185   7.587  16.032  3.0461 -1.0770 -1.0679
  145DOPC  H15C17188   3.301   7.673  15.948  0.5786  1.7987 -0.2454
  145DOPC   C1117189   3.449   7.744  16.168  0.1005  0.5962  0.6615
  145DOPC  H11A17190   3.488   7.716  16.269  0.6702  0.2618  0.3508
  145DOPC  H11B17191   3.466   7.660  16.097  0.9266  0.1134  1.4126
  145DOPC     P17192   3.674   7.859  16.083  0.0337 -0.0208  0.3148
  145DOPC   O1317193   3.734   7.724  16.099  0.5893 -0.3161  0.1369
  145DOPC   O1417194   3.738   7.971  16.146 -0.1577 -0.0018  0.7542
  145DOPC   O1217195   3.520   7.861  16.123  0.1932 -0.3933 -0.0054
  145DOPC   O1117196   3.673   7.881  15.925 -0.1839  0.3797 -0.8698
  145DOPC    C117197   3.590   7.803  15.837  0.3869  0.9485  0.4199
  145DOPC    HA17198   3.524   7.873  15.781 -0.5499  0.6058  1.0646
  145DOPC    HB17199   3.526   7.737  15.900  2.4436  1.0382  2.7733
  145DOPC    C217200   3.668   7.702  15.740  0.4702 -0.3054  0.4004
  145DOPC    HS17201   3.732   7.635  15.800  0.3056 -0.8350 -0.0073
  145DOPC   O2117202   3.751   7.769  15.650 -0.8696  0.1058 -0.0881
  145DOPC   C2117203   3.876   7.799  15.683 -0.7145 -0.0747  0.3087
  145DOPC   O2217204   3.922   7.801  15.796  0.7176  0.0541  0.3029
  145DOPC   C2217205   3.951   7.839  15.563 -0.0991  0.5321  0.5374
  145DOPC   H2R17206   3.909   7.938  15.536 -0.8590 -0.0871 -0.6768
  145DOPC   H2S17207   3.943   7.766  15.479 -0.0067  2.2586 -1.0296
  145DOPC    C317208   3.569   7.609  15.666 -0.3990  0.1505  0.2110
  145DOPC    HX17209   3.491   7.672  15.618 -0.6032  0.1455  0.5353
  145DOPC    HY17210   3.513   7.546  15.738 -0.3321 -2.5119 -1.9015
  145DOPC   O3117211   3.644   7.537  15.566  0.5582  0.6491 -0.3170
  145DOPC   C3117212   3.632   7.408  15.552 -0.3182  0.0135  0.0697
  145DOPC   O3217213   3.556   7.334  15.615 -0.6019  1.2233 -1.0464
  145DOPC   C3217214   3.732   7.363  15.447 -0.0437  0.6762  0.3240
  145DOPC   H2X17215   3.807   7.441  15.422  1.1706 -0.7321 -0.5546
  145DOPC   H2Y17216   3.793   7.290  15.504  1.0384  0.5116 -0.9891
  145DOPC   C2317217   4.099   7.855  15.591  0.4619 -0.2653 -0.1415
  145DOPC   H3R17218   4.138   7.762  15.637  2.4884  1.6903  2.4447
  145DOPC   H3S17219   4.118   7.936  15.666 -0.8754 -1.4482  1.5558
  145DOPC   C2417220   4.183   7.897  15.466  0.1295  0.1189  0.1526
  145DOPC   H4R17221   4.183   7.814  15.392 -1.3773 -0.6041  0.9243
  145DOPC   H4S17222   4.291   7.911  15.489  0.2668 -1.5402  0.6361
  145DOPC   C2517223   4.115   8.014  15.392  0.5084 -1.1535  0.2127
  145DOPC   H5R17224   4.093   8.107  15.448 -0.9277 -0.4973 -1.3444
  145DOPC   H5S17225   4.019   7.971  15.355  0.5067 -0.8927 -0.0911
  145DOPC   C2617226   4.198   8.062  15.267  0.0894  0.1410 -0.1316
  145DOPC   H6R17227   4.214   7.971  15.205  0.1002 -0.6861  1.0409
  145DOPC   H6S17228   4.296   8.087  15.312  0.6167 -1.0429 -0.5882
  145DOPC   C2717229   4.141   8.183  15.192 -0.1470 -0.1718  0.4914
  145DOPC   H7R17230   4.117   8.258  15.270 -1.2489  1.0271 -0.9411
  145DOPC   H7S17231   4.043   8.158  15.146 -0.9360  2.1097  0.8461
  145DOPC   C2817232   4.234   8.232  15.078 -0.4701  0.0826  0.4417
  145DOPC   H8R17233   4.239   8.151  15.002  1.3948 -0.1195  0.7293
  145DOPC   H8S17234   4.330   8.247  15.131  0.2003 -0.9855 -0.4219
  145DOPC   C2917235   4.183   8.360  15.014  0.4935  0.5207  0.4311
  145DOPC   H9R17236   4.076   8.358  14.991  0.8313  1.3646 -1.3402
  145DOPC  C21017237   4.251   8.477  14.992 -0.3675  0.0441 -0.1915
  145DOPC  H10R17238   4.207   8.565  14.945  0.8807  0.4905 -0.5523
  145DOPC  C21117239   4.390   8.510  15.055 -0.5955 -0.0117  1.1034
  145DOPC  H11R17240   4.429   8.452  15.141  0.1117 -1.4110 -0.1088
  145DOPC  H11S17241   4.375   8.608  15.104  0.1724 -0.0298  1.3877
  145DOPC  C21217242   4.503   8.520  14.949 -0.3380  0.6953 -0.3867
  145DOPC  H12R17243   4.483   8.595  14.869 -2.1945 -0.2349 -0.8486
  145DOPC  H12S17244   4.518   8.420  14.904  4.3426  1.7214 -1.6782
  145DOPC  C21317245   4.640   8.538  15.021 -0.5068  0.0702 -0.6360
  145DOPC  H13R17246   4.638   8.453  15.093  1.8375  2.0280  1.9643
  145DOPC  H13S17247   4.624   8.629  15.083  1.2716 -0.9313  1.4518
  145DOPC  C21417248   4.762   8.539  14.930  0.4167 -0.4476  0.4419
  145DOPC  H14R17249   4.736   8.619  14.858  1.6084 -0.1851  0.2813
  145DOPC  H14S17250   4.766   8.441  14.879 -0.7469  0.0621 -0.6717
  145DOPC  C21517251   4.893   8.570  14.999 -0.3827  0.6539  0.1345
  145DOPC  H15R17252   4.905   8.492  15.077  0.4415  0.8972  0.2640
  145DOPC  H15S17253   4.885   8.666  15.056  0.4228  1.8931 -1.7261
  145DOPC  C21617254   5.010   8.579  14.909 -0.7510  0.4174 -0.0774
  145DOPC  H16R17255   5.030   8.477  14.869  1.7954  0.8908 -0.1856
  145DOPC  H16S17256   5.106   8.598  14.961  1.5788 -4.4208 -1.9515
  145DOPC  C21717257   4.994   8.676  14.792 -0.2996 -1.0109 -0.5752
  145DOPC  H17R17258   4.977   8.780  14.828  2.1195  0.6176 -3.6158
  145DOPC  H17S17259   4.902   8.655  14.732 -0.1695 -0.4805 -0.9703
  145DOPC  C21817260   5.112   8.679  14.701 -0.0634 -0.1039  0.0445
  145DOPC  H18R17261   5.136   8.581  14.654 -0.7860 -0.4278  0.3349
  145DOPC  H18S17262   5.198   8.717  14.761  1.2505 -0.7459 -1.3534
  145DOPC  H18T17263   5.105   8.752  14.618  0.5120  0.4328  0.4521
  145DOPC   C3317264   3.670   7.309  15.317  0.3088  0.4018  0.2470
  145DOPC   H3X17265   3.606   7.384  15.265 -1.2511 -1.8615 -1.2638
  145DOPC   H3Y17266   3.602   7.223  15.333 -0.1894  0.9210  0.9941
  145DOPC   C3417267   3.772   7.260  15.217 -0.6676 -0.1285 -0.1809
  145DOPC   H4X17268   3.859   7.327  15.215  0.9717 -2.1691 -0.8423
  145DOPC   H4Y17269   3.737   7.243  15.113  1.6753 -0.7335 -0.9319
  145DOPC   C3517270   3.837   7.131  15.265 -0.6673  0.6245 -0.2659
  145DOPC   H5X17271   3.758   7.055  15.281 -1.3572  1.0445 -1.5779
  145DOPC   H5Y17272   3.889   7.143  15.363  0.0748  1.5636 -0.7600
  145DOPC   C3617273   3.932   7.076  15.165 -0.0141 -0.1306  0.3220
  145DOPC   H6X17274   3.882   7.059  15.067 -1.0096 -0.7189  0.9100
  145DOPC   H6Y17275   4.023   7.136  15.146 -0.6869  0.5102 -1.0364
  145DOPC   C3717276   3.982   6.939  15.226 -0.6285  0.3204  0.1652
  145DOPC   H7X17277   4.010   6.957  15.332  0.8310 -2.0780  0.2769
  145DOPC   H7Y17278   3.910   6.854  15.228 -0.3687  0.1104  0.8277
  145DOPC   C3817279   4.110   6.884  15.153 -0.2939 -0.1732  0.3405
  145DOPC   H8X17280   4.090   6.874  15.044 -2.5485 -0.7408  0.7453
  145DOPC   H8Y17281   4.130   6.782  15.194  0.4726  0.0262  0.4623
  145DOPC   C3917282   4.228   6.970  15.189  0.3782 -0.2495  0.1305
  145DOPC   H9X17283   4.216   7.019  15.287  0.4875  0.4890 -0.2189
  145DOPC  C31017284   4.332   7.000  15.116 -0.0276 -0.4998  0.2809
  145DOPC  H10X17285   4.393   7.084  15.150 -1.4412  0.4140  0.6375
  145DOPC  C31117286   4.357   6.952  14.976 -0.3324 -0.0483 -0.1019
  145DOPC  H11X17287   4.277   6.897  14.923  0.0528 -0.1335 -0.6026
  145DOPC  H11Y17288   4.438   6.875  14.980 -1.1084 -1.0835 -2.5902
  145DOPC  C31217289   4.396   7.073  14.889 -0.5500 -0.3341 -0.0436
  145DOPC  H12X17290   4.473   7.135  14.940  0.2378  1.2341 -2.9090
  145DOPC  H12Y17291   4.312   7.142  14.870  0.4481  0.9050 -0.0317
  145DOPC  C31317292   4.448   7.012  14.765 -0.3353 -0.3758  0.1160
  145DOPC  H13X17293   4.534   6.946  14.785  1.2676  1.3218 -0.8520
  145DOPC  H13Y17294   4.368   6.955  14.713  1.0532 -0.0334 -2.5773
  145DOPC  C31417295   4.479   7.119  14.650 -0.7029  0.5768 -0.7356
  145DOPC  H14X17296   4.382   7.162  14.619 -1.7548 -0.3425  1.1130
  145DOPC  H14Y17297   4.544   7.202  14.683 -1.6009  0.8795  0.3235
  145DOPC  C31517298   4.543   7.042  14.533 -0.4788 -0.6162 -0.7088
  145DOPC  H15X17299   4.488   6.945  14.525 -0.1145 -1.1232  1.8481
  145DOPC  H15Y17300   4.644   7.020  14.575  0.1494  1.3902 -1.0622
  145DOPC  C31617301   4.542   7.122  14.398  0.9374 -0.6936  0.1325
  145DOPC  H16X17302   4.435   7.126  14.366  0.9000 -2.0912  0.0270
  145DOPC  H16Y17303   4.592   7.221  14.396 -1.3244  0.5166 -1.1814
  145DOPC  C31717304   4.611   7.061  14.284 -0.5009 -0.0291  0.1065
  145DOPC  H17X17305   4.721   7.064  14.303 -0.6294  0.5131  0.7852
  145DOPC  H17Y17306   4.575   6.956  14.273 -0.2577 -0.4562  2.7196
  145DOPC  C31817307   4.587   7.148  14.157 -0.3484  0.0035  0.6732
  145DOPC  H18X17308   4.593   7.256  14.179  1.2266  0.0968 -0.1334
  145DOPC  H18Y17309   4.660   7.127  14.076  0.6481 -0.7509  1.7362
  145DOPC  H18Z17310   4.493   7.120  14.104  1.5100  0.5563 -3.2437
  146DOPC     N17311   6.324   3.143  16.653  0.5213  0.5830 -0.0884
  146DOPC   C1217312   6.432   3.248  16.677 -0.5074  0.1254 -0.4749
  146DOPC  H12A17313   6.520   3.194  16.711 -1.5750 -0.1171  2.0857
  146DOPC  H12B17314   6.405   3.310  16.761  1.8176  0.6175 -0.0003
  146DOPC   C1317315   6.288   3.077  16.789  0.6527  0.3554  0.2212
  146DOPC  H13A17316   6.377   3.027  16.824  0.0472  0.4020  1.9461
  146DOPC  H13B17317   6.243   3.146  16.859  0.3017  1.0609 -0.6861
  146DOPC  H13C17318   6.213   3.000  16.777 -0.2486  1.1425  0.6739
  146DOPC   C1417319   6.373   3.043  16.553  0.6754  0.0468  0.3422
  146DOPC  H14A17320   6.466   3.000  16.587  1.6670 -0.4911 -2.7698
  146DOPC  H14B17321   6.295   2.971  16.534 -0.5088  0.7996  2.0461
  146DOPC  H14C17322   6.383   3.094  16.458  1.7766 -0.4400  0.1865
  146DOPC   C1517323   6.197   3.213  16.613 -0.1510  0.3185  0.9141
  146DOPC  H15A17324   6.116   3.147  16.584 -1.3739  2.3090 -0.4363
  146DOPC  H15B17325   6.219   3.273  16.526 -0.2252 -2.8869 -1.5072
  146DOPC  H15C17326   6.169   3.277  16.696  2.4633  1.3429  1.1019
  146DOPC   C1117327   6.462   3.346  16.568  0.7286 -0.5065 -0.4961
  146DOPC  H11A17328   6.371   3.374  16.510  1.0750  2.8300  0.3774
  146DOPC  H11B17329   6.492   3.442  16.614  1.5294  0.1246 -2.2383
  146DOPC     P17330   6.659   3.372  16.395 -0.0413  0.0901 -0.0631
  146DOPC   O1317331   6.726   3.278  16.300 -0.4131  0.2191 -0.1731
  146DOPC   O1417332   6.749   3.440  16.492  0.0702  0.1907 -0.2523
  146DOPC   O1217333   6.550   3.290  16.477  0.0307  0.1710  0.3055
  146DOPC   O1117334   6.574   3.475  16.313  0.1937 -0.1461  0.1941
  146DOPC    C117335   6.484   3.429  16.212 -0.4368  0.1733 -0.1715
  146DOPC    HA17336   6.400   3.498  16.189  0.0160  1.0929  0.8795
  146DOPC    HB17337   6.434   3.337  16.251  1.0634  0.0046  1.4856
  146DOPC    C217338   6.551   3.409  16.074 -0.4992  0.0307  0.3219
  146DOPC    HS17339   6.623   3.329  16.101 -0.3568  0.4104  1.0885
  146DOPC   O2117340   6.598   3.535  16.024  0.4278 -0.3790  0.0234
  146DOPC   C2117341   6.701   3.524  15.936  0.6175 -0.6231 -0.0108
  146DOPC   O2217342   6.773   3.425  15.933  0.4243 -0.3736 -0.2479
  146DOPC   C2217343   6.713   3.657  15.853 -0.1811  0.4080 -0.6455
  146DOPC   H2R17344   6.805   3.709  15.887 -1.9692  2.0903  2.0252
  146DOPC   H2S17345   6.625   3.723  15.870  0.2987  0.8661  0.1102
  146DOPC    C317346   6.441   3.352  15.979 -0.3350 -0.5493  0.6443
  146DOPC    HX17347   6.368   3.424  15.937 -0.6458 -1.3897 -0.3152
  146DOPC    HY17348   6.377   3.284  16.040 -0.1309  0.7842  2.4371
  146DOPC   O3117349   6.499   3.282  15.866  0.5344  0.3624 -0.2622
  146DOPC   C3117350   6.543   3.160  15.882  0.2510  0.3622 -0.8852
  146DOPC   O3217351   6.523   3.098  15.986  0.1719 -0.2869 -0.4761
  146DOPC   C3217352   6.598   3.112  15.752 -0.7367 -0.4680  0.0657
  146DOPC   H2X17353   6.605   3.001  15.754  2.3606 -0.3993 -1.2722
  146DOPC   H2Y17354   6.522   3.140  15.676 -0.7060  2.3116  0.9378
  146DOPC   C2317355   6.725   3.613  15.708  0.5186  0.6348 -0.2990
  146DOPC   H3R17356   6.807   3.539  15.697  1.3357  1.7302 -2.0658
  146DOPC   H3S17357   6.759   3.700  15.647  0.3282  0.8884 -0.0436
  146DOPC   C2417358   6.589   3.568  15.661  0.2563  0.2637 -0.0173
  146DOPC   H4R17359   6.527   3.660  15.666  0.1113  0.1732 -0.1510
  146DOPC   H4S17360   6.542   3.494  15.729  0.6364 -0.2963 -0.3575
  146DOPC   C2517361   6.584   3.505  15.517 -0.1015  0.1949 -0.1552
  146DOPC   H5R17362   6.678   3.451  15.494 -1.3302 -1.1672 -2.3466
  146DOPC   H5S17363   6.578   3.591  15.446 -2.5754 -1.2992 -1.9264
  146DOPC   C2617364   6.460   3.418  15.487  0.5003  0.1515  0.3394
  146DOPC   H6R17365   6.380   3.489  15.457  2.2296  1.6489 -0.9895
  146DOPC   H6S17366   6.426   3.369  15.580 -2.1501 -0.2762 -0.7597
  146DOPC   C2717367   6.481   3.311  15.377  0.2934 -0.0702  0.2601
  146DOPC   H7R17368   6.568   3.251  15.410  0.1871  1.0600  2.8707
  146DOPC   H7S17369   6.502   3.373  15.288 -0.7313  2.1616  1.5020
  146DOPC   C2817370   6.365   3.214  15.351 -0.5739 -0.1880  0.4109
  146DOPC   H8R17371   6.342   3.159  15.445  0.5281 -1.3603  0.0111
  146DOPC   H8S17372   6.414   3.130  15.299  0.9372 -0.2053  1.7858
  146DOPC   C2917373   6.235   3.268  15.291 -1.0842  0.0322 -1.0678
  146DOPC   H9R17374   6.229   3.376  15.310  0.4534  0.0427 -0.4368
  146DOPC  C21017375   6.146   3.196  15.224 -0.0975 -0.1295 -0.1723
  146DOPC  H10R17376   6.049   3.242  15.198  0.1957  1.5363  1.4851
  146DOPC  C21117377   6.151   3.053  15.169  0.3178 -0.1532 -0.0656
  146DOPC  H11R17378   6.049   3.009  15.173  0.2671 -0.1248 -0.8878
  146DOPC  H11S17379   6.208   2.996  15.246  0.3742 -0.0124 -0.0039
  146DOPC  C21217380   6.247   3.019  15.052 -0.1244 -0.3760  0.7914
  146DOPC  H12R17381   6.352   3.037  15.084  0.7236 -1.2323 -1.3404
  146DOPC  H12S17382   6.218   3.096  14.978  0.1653 -0.4454  0.6080
  146DOPC  C21317383   6.253   2.878  14.993  0.2689  0.3575 -0.1862
  146DOPC  H13R17384   6.332   2.862  14.917 -1.7826 -0.1623 -2.3348
  146DOPC  H13S17385   6.162   2.863  14.931 -1.9863  2.3573  2.3889
  146DOPC  C21417386   6.277   2.764  15.086  0.5437  0.3171  0.4287
  146DOPC  H14R17387   6.271   2.663  15.039 -0.4971  0.8268 -0.5890
  146DOPC  H14S17388   6.196   2.754  15.161 -0.1116  0.4177 -0.2532
  146DOPC  C21517389   6.411   2.766  15.161 -0.4275 -0.0908 -0.3976
  146DOPC  H15R17390   6.432   2.854  15.226  1.7160 -1.6469  1.1668
  146DOPC  H15S17391   6.489   2.773  15.082 -0.7252 -0.2503 -0.7075
  146DOPC  C21617392   6.437   2.637  15.241  0.8877 -0.2816 -0.3323
  146DOPC  H16R17393   6.402   2.555  15.175 -1.8327  0.5386 -0.0463
  146DOPC  H16S17394   6.368   2.631  15.327  2.1236  1.1472  0.8243
  146DOPC  C21717395   6.584   2.616  15.277 -0.1716 -0.1584 -0.6605
  146DOPC  H17R17396   6.615   2.705  15.336 -0.7135  1.7543 -3.1179
  146DOPC  H17S17397   6.642   2.619  15.183 -1.7256 -2.3543 -1.7951
  146DOPC  C21817398   6.627   2.490  15.361 -0.1090  0.3483 -0.3974
  146DOPC  H18R17399   6.675   2.536  15.450 -2.0654  0.4059  0.6703
  146DOPC  H18S17400   6.683   2.413  15.303  0.4548  0.4867 -0.0509
  146DOPC  H18T17401   6.536   2.450  15.410 -0.0846  0.4668 -0.2545
  146DOPC   C3317402   6.730   3.182  15.720 -0.4844 -0.1702  0.9971
  146DOPC   H3X17403   6.808   3.161  15.797 -0.6494 -1.9894  0.7137
  146DOPC   H3Y17404   6.712   3.292  15.721 -0.2203 -0.0884 -0.6570
  146DOPC   C3417405   6.798   3.143  15.585  0.2631 -0.5076  0.7107
  146DOPC   H4X17406   6.716   3.131  15.511  0.4530  0.9877  0.2348
  146DOPC   H4Y17407   6.859   3.051  15.597 -0.6379 -1.2609 -0.2991
  146DOPC   C3517408   6.893   3.253  15.546 -0.3881  0.2473  0.1518
  146DOPC   H5X17409   6.987   3.258  15.604 -0.4948  0.7528  0.2928
  146DOPC   H5Y17410   6.843   3.352  15.551 -1.1957 -0.1690  0.4109
  146DOPC   C3617411   6.950   3.250  15.400 -0.1187  1.3230 -0.5950
  146DOPC   H6X17412   6.975   3.146  15.370  0.7900  0.7791  1.8102
  146DOPC   H6Y17413   6.866   3.283  15.335 -0.0929  2.0580 -0.2697
  146DOPC   C3717414   7.067   3.343  15.386  0.4473  0.0074 -0.6508
  146DOPC   H7X17415   7.045   3.448  15.417  1.8153  0.8194 -2.3004
  146DOPC   H7Y17416   7.147   3.295  15.446 -0.7070 -0.1038  0.8702
  146DOPC   C3817417   7.107   3.354  15.240  0.2112  0.5774  0.4591
  146DOPC   H8X17418   7.207   3.402  15.236  1.2366 -1.5920 -1.2835
  146DOPC   H8Y17419   7.031   3.414  15.185 -0.9777 -0.4179  0.9707
  146DOPC   C3917420   7.114   3.217  15.172 -0.0449  0.1942 -0.0974
  146DOPC   H9X17421   7.015   3.178  15.143  0.0621  0.5656 -1.0036
  146DOPC  C31017422   7.214   3.155  15.110 -0.3837  0.5662  0.4700
  146DOPC  H10X17423   7.198   3.052  15.077  0.8873  1.2975 -2.8186
  146DOPC  C31117424   7.362   3.189  15.115  0.2982  0.6517 -0.0796
  146DOPC  H11X17425   7.427   3.098  15.120 -0.2507  0.2861  0.6987
  146DOPC  H11Y17426   7.390   3.246  15.206 -0.1646  3.0144 -1.3358
  146DOPC  C31217427   7.415   3.275  14.988  0.4717  0.1895 -0.3027
  146DOPC  H12X17428   7.526   3.275  14.985  0.4613  0.2754 -0.7358
  146DOPC  H12Y17429   7.381   3.380  14.998  1.8449  0.7267 -0.9830
  146DOPC  C31317430   7.365   3.213  14.856  0.1611  0.6730  0.1957
  146DOPC  H13X17431   7.365   3.103  14.869  0.6449  0.7625  1.0116
  146DOPC  H13Y17432   7.259   3.245  14.849 -1.2421 -3.3500  0.9881
  146DOPC  C31417433   7.441   3.243  14.726 -0.1546  0.1444 -0.0450
  146DOPC  H14X17434   7.436   3.353  14.711 -1.1342 -0.2284 -2.9403
  146DOPC  H14Y17435   7.547   3.211  14.734  0.1534  0.3690 -2.4837
  146DOPC  C31517436   7.383   3.168  14.607  0.2021 -0.2826 -0.1141
  146DOPC  H15X17437   7.386   3.063  14.642 -1.6284 -0.4646 -0.3656
  146DOPC  H15Y17438   7.444   3.182  14.515 -0.4731  3.6575 -0.1131
  146DOPC  C31617439   7.246   3.197  14.567  0.1471  0.0432 -0.2332
  146DOPC  H16X17440   7.212   3.130  14.485 -1.7833  0.5877  0.0682
  146DOPC  H16Y17441   7.174   3.183  14.651  0.8082  2.3701  0.7872
  146DOPC  C31717442   7.215   3.340  14.521 -0.4404 -0.2536 -0.9135
  146DOPC  H17X17443   7.229   3.413  14.604  1.4766 -0.3879 -1.0652
  146DOPC  H17Y17444   7.295   3.374  14.452 -0.8452  3.3362  0.1446
  146DOPC  C31817445   7.075   3.363  14.467  0.2413  0.3473  0.2446
  146DOPC  H18X17446   7.076   3.342  14.358 -2.2744 -0.1109  0.2508
  146DOPC  H18Y17447   7.009   3.295  14.524  2.1691 -0.6442  1.3842
  146DOPC  H18Z17448   7.034   3.467  14.473  2.4764  1.2508  0.7408
  147DOPC     N17449   1.377   1.641  16.209  0.1844  0.2716 -0.2628
  147DOPC   C1217450   1.275   1.572  16.117 -0.7181  0.2511  0.2781
  147DOPC  H12A17451   1.176   1.587  16.158 -0.5692 -1.3621  1.3416
  147DOPC  H12B17452   1.312   1.470  16.108 -2.2839 -0.4118  0.9190
  147DOPC   C1317453   1.386   1.563  16.345  0.3625  0.6106 -0.4219
  147DOPC  H13A17454   1.428   1.465  16.330  2.9280  1.5115  0.4492
  147DOPC  H13B17455   1.453   1.611  16.415 -1.0515  0.0293  1.3895
  147DOPC  H13C17456   1.293   1.560  16.400 -0.5657 -2.1862 -1.9128
  147DOPC   C1417457   1.340   1.782  16.234 -0.1773  0.8866 -0.0928
  147DOPC  H14A17458   1.332   1.820  16.133  0.9081 -0.4939 -0.7416
  147DOPC  H14B17459   1.243   1.793  16.280 -1.6131  0.3513 -2.7835
  147DOPC  H14C17460   1.405   1.838  16.300 -0.4551  1.1488 -0.0440
  147DOPC   C1517461   1.512   1.636  16.150  0.0857  0.4034 -0.3751
  147DOPC  H15A17462   1.515   1.675  16.049 -0.5514 -0.6073 -0.8060
  147DOPC  H15B17463   1.563   1.541  16.160 -1.3886 -0.4072 -0.2261
  147DOPC  H15C17464   1.572   1.699  16.214 -0.6178  0.3755  0.3316
  147DOPC   C1117465   1.257   1.641  15.979  0.0195  0.2935 -0.0617
  147DOPC  H11A17466   1.352   1.625  15.924 -1.3936 -1.4221 -2.2071
  147DOPC  H11B17467   1.181   1.585  15.920  1.7812 -0.9276 -1.2807
  147DOPC     P17468   1.069   1.816  15.990 -0.3946 -0.3034 -0.0520
  147DOPC   O1317469   1.055   1.967  15.999 -0.0741  0.3934 -0.2941
  147DOPC   O1417470   1.018   1.736  16.107 -0.7130  0.3226 -0.3631
  147DOPC   O1217471   1.225   1.780  15.976 -0.2229  0.3079 -0.7169
  147DOPC   O1117472   1.006   1.775  15.854  0.3361 -0.2935 -0.1791
  147DOPC    C117473   1.077   1.803  15.730  0.6781 -0.5733  0.2219
  147DOPC    HA17474   1.026   1.735  15.658  0.4936 -0.3514  0.1405
  147DOPC    HB17475   1.181   1.766  15.741  1.2191  0.0393 -2.2836
  147DOPC    C217476   1.074   1.947  15.674  0.6163 -0.3331 -0.0277
  147DOPC    HS17477   1.093   2.021  15.755  0.8016  1.0900 -1.3252
  147DOPC   O2117478   0.942   1.968  15.619  0.6745 -0.3833  0.4064
  147DOPC   C2117479   0.920   2.094  15.569 -0.5302  0.6185 -0.7780
  147DOPC   O2217480   0.986   2.191  15.596 -0.4486 -0.1515  0.1988
  147DOPC   C2217481   0.789   2.087  15.486  0.6181 -0.1165  0.4136
  147DOPC   H2R17482   0.705   2.085  15.558 -1.1124  0.6149 -1.4643
  147DOPC   H2S17483   0.792   1.990  15.432 -1.3689 -0.1329  0.2577
  147DOPC    C317484   1.191   1.984  15.575  0.9412 -0.0056  0.2454
  147DOPC    HX17485   1.281   1.956  15.633  1.0035  2.2891  1.3695
  147DOPC    HY17486   1.191   2.094  15.563 -0.3524  0.1543  1.4736
  147DOPC   O3117487   1.175   1.909  15.452  0.5348 -0.1293  0.1292
  147DOPC   C3117488   1.292   1.864  15.404 -0.6298  0.0881 -0.5411
  147DOPC   O3217489   1.397   1.863  15.472  0.1329  0.1644  0.3697
  147DOPC   C3217490   1.274   1.798  15.265 -0.0793 -0.3098 -0.5414
  147DOPC   H2X17491   1.228   1.703  15.299  0.4963 -0.2420  0.4763
  147DOPC   H2Y17492   1.221   1.858  15.188  1.8176  1.2072 -0.7567
  147DOPC   C2317493   0.756   2.207  15.401  0.7495  0.2114 -0.1919
  147DOPC   H3R17494   0.794   2.296  15.454 -1.3860  0.0675  1.7335
  147DOPC   H3S17495   0.645   2.208  15.402  0.7470 -0.1791  1.3232
  147DOPC   C2417496   0.790   2.186  15.248  0.2196 -0.3371  0.0286
  147DOPC   H4R17497   0.759   2.281  15.201 -2.1610 -0.2991  1.5003
  147DOPC   H4S17498   0.730   2.101  15.209 -1.7616  0.5350  1.0193
  147DOPC   C2517499   0.934   2.150  15.213 -0.4010  0.0655 -0.0332
  147DOPC   H5R17500   0.956   2.133  15.106  1.2739  0.8468  0.1618
  147DOPC   H5S17501   0.955   2.058  15.272  0.5244 -0.4669 -1.1639
  147DOPC   C2617502   1.045   2.254  15.259  0.1269  0.3557  0.5173
  147DOPC   H6R17503   1.038   2.291  15.364 -1.3403 -0.0475  0.5858
  147DOPC   H6S17504   1.026   2.338  15.189  1.0955  0.0523 -0.1265
  147DOPC   C2717505   1.187   2.197  15.240 -0.9010 -0.0911 -0.5540
  147DOPC   H7R17506   1.193   2.172  15.132 -0.1061 -0.5107 -0.4220
  147DOPC   H7S17507   1.196   2.111  15.310 -1.8339  0.0234 -0.2810
  147DOPC   C2817508   1.298   2.302  15.259 -0.0226 -0.0600 -0.1833
  147DOPC   H8R17509   1.267   2.399  15.215  0.1689  0.0680 -0.0340
  147DOPC   H8S17510   1.391   2.265  15.211 -0.0955  1.1064 -1.2647
  147DOPC   C2917511   1.319   2.327  15.410 -0.4526 -0.5833 -0.1106
  147DOPC   H9R17512   1.247   2.395  15.457  0.0133 -1.9803  2.8317
  147DOPC  C21017513   1.421   2.283  15.489 -0.3185  0.5120 -0.0230
  147DOPC  H10R17514   1.420   2.316  15.594  1.4445 -0.4976  0.3422
  147DOPC  C21117515   1.537   2.190  15.461 -0.4275  0.2552  0.4015
  147DOPC  H11R17516   1.546   2.177  15.351 -0.9201 -0.5039  0.4431
  147DOPC  H11S17517   1.513   2.087  15.493  0.3098  0.0554  0.3112
  147DOPC  C21217518   1.671   2.229  15.524 -0.3506  0.1680 -0.2544
  147DOPC  H12R17519   1.681   2.210  15.633  1.8698 -1.4700 -0.6589
  147DOPC  H12S17520   1.671   2.338  15.500  0.1028  0.3131  0.3888
  147DOPC  C21317521   1.788   2.163  15.439  0.4023 -0.1780 -0.0557
  147DOPC  H13R17522   1.889   2.197  15.470  0.5638 -0.5046 -0.2157
  147DOPC  H13S17523   1.761   2.204  15.340 -2.4640 -0.1424  0.6449
  147DOPC  C21417524   1.791   2.014  15.438 -0.4683  0.0353  0.0788
  147DOPC  H14R17525   1.697   1.965  15.404  1.2801 -2.4756 -1.5244
  147DOPC  H14S17526   1.813   1.971  15.538 -1.7235 -0.0130  0.3621
  147DOPC  C21517527   1.902   1.967  15.334  0.0639  0.2825  0.3323
  147DOPC  H15R17528   2.001   1.994  15.378  0.0820  0.6246  0.0831
  147DOPC  H15S17529   1.911   2.030  15.243 -1.2165 -0.9362 -0.6828
  147DOPC  C21617530   1.881   1.817  15.302 -0.1724  0.1754  0.3726
  147DOPC  H16R17531   1.814   1.793  15.217  0.7400  1.4466 -0.7354
  147DOPC  H16S17532   1.829   1.779  15.393  0.3432 -0.8795  0.2403
  147DOPC  C21717533   2.015   1.745  15.287  0.0470  0.4820  0.6564
  147DOPC  H17R17534   2.085   1.761  15.372 -1.1276 -0.6289  1.8796
  147DOPC  H17S17535   2.061   1.771  15.189 -2.7552 -0.1729 -0.9489
  147DOPC  C21817536   1.988   1.592  15.291  0.3195 -0.2743  0.0805
  147DOPC  H18R17537   1.903   1.566  15.224 -0.4285 -1.4821  1.4156
  147DOPC  H18S17538   1.963   1.561  15.395  0.1872  2.4282  0.9317
  147DOPC  H18T17539   2.074   1.536  15.248 -0.1572 -0.4713 -0.6220
  147DOPC   C3317540   1.409   1.755  15.196  0.3512  0.6571 -0.0373
  147DOPC   H3X17541   1.393   1.661  15.140 -1.3203 -0.7993  2.6768
  147DOPC   H3Y17542   1.488   1.719  15.266  0.3775  0.7545 -0.0162
  147DOPC   C3417543   1.458   1.860  15.099 -0.0091 -0.2706 -0.3501
  147DOPC   H4X17544   1.378   1.900  15.032 -0.5549 -0.0498  0.4166
  147DOPC   H4Y17545   1.538   1.809  15.041 -1.2554 -3.2147  0.3482
  147DOPC   C3517546   1.514   1.984  15.170  0.1464  0.5800 -0.0074
  147DOPC   H5X17547   1.582   1.934  15.242  2.7267 -1.0941 -3.3363
  147DOPC   H5Y17548   1.427   2.030  15.222 -0.2829  0.1736 -0.3617
  147DOPC   C3617549   1.591   2.083  15.074 -0.4022 -0.0368 -0.6653
  147DOPC   H6X17550   1.512   2.112  15.002 -2.0120 -0.9013  0.6779
  147DOPC   H6Y17551   1.631   2.163  15.140 -0.6543 -0.8891  0.5634
  147DOPC   C3717552   1.715   2.025  15.002 -0.3198  0.3850 -0.4863
  147DOPC   H7X17553   1.792   1.985  15.071 -0.1822  2.0286  0.3602
  147DOPC   H7Y17554   1.677   1.943  14.936 -2.0632  1.1760 -0.5313
  147DOPC   C3817555   1.786   2.125  14.907  0.0117  0.7517  0.0825
  147DOPC   H8X17556   1.712   2.166  14.835 -0.9743  0.2445  0.7889
  147DOPC   H8Y17557   1.861   2.065  14.851 -0.7402  1.3226 -1.6162
  147DOPC   C3917558   1.869   2.229  14.971  0.2967 -1.3935 -0.1909
  147DOPC   H9X17559   1.949   2.190  15.036  1.0625  0.0738 -0.2067
  147DOPC  C31017560   1.842   2.366  14.973 -0.8122  0.7697 -0.9033
  147DOPC  H10X17561   1.912   2.438  15.018  0.9482 -2.0870  1.2538
  147DOPC  C31117562   1.730   2.427  14.902  0.5711  0.2713  0.3763
  147DOPC  H11X17563   1.706   2.369  14.810  0.4152  0.1404  0.4983
  147DOPC  H11Y17564   1.772   2.523  14.864 -1.8347  1.7127  1.1168
  147DOPC  C31217565   1.606   2.458  14.993 -0.5552  0.0955 -0.3107
  147DOPC  H12X17566   1.626   2.538  15.068 -3.7249  1.3337 -0.6299
  147DOPC  H12Y17567   1.569   2.374  15.055  0.2679  0.8093  1.1958
  147DOPC  C31317568   1.484   2.509  14.915 -0.4329  0.0742  0.6882
  147DOPC  H13X17569   1.440   2.582  14.986  0.9900  0.2519  1.4092
  147DOPC  H13Y17570   1.520   2.569  14.829  0.5227 -0.3716  0.7686
  147DOPC  C31417571   1.384   2.405  14.866 -0.2700 -0.2827 -0.0837
  147DOPC  H14X17572   1.334   2.356  14.952  1.0651  1.1083  1.5472
  147DOPC  H14Y17573   1.309   2.451  14.798  0.5072  0.5950 -0.3631
  147DOPC  C31517574   1.449   2.300  14.767 -0.4181 -0.5751  0.1362
  147DOPC  H15X17575   1.537   2.251  14.814  0.9059  0.1648 -1.4755
  147DOPC  H15Y17576   1.487   2.359  14.681  1.1055  0.6765  1.6135
  147DOPC  C31617577   1.357   2.185  14.717  0.1144  0.5828  0.1426
  147DOPC  H16X17578   1.423   2.136  14.642 -0.5654  0.4461 -0.3663
  147DOPC  H16Y17579   1.341   2.116  14.803  1.9713  0.1123  0.1520
  147DOPC  C31717580   1.229   2.224  14.643  0.3471 -0.7022  0.1271
  147DOPC  H17X17581   1.171   2.292  14.710 -1.5459 -0.9599 -1.1537
  147DOPC  H17Y17582   1.259   2.293  14.561  0.2414  2.0067  2.2031
  147DOPC  C31817583   1.137   2.111  14.588 -0.0779 -0.2425  0.1484
  147DOPC  H18X17584   1.036   2.154  14.568  0.7351  2.3779  1.2984
  147DOPC  H18Y17585   1.170   2.078  14.487 -0.1893 -0.4078  0.1653
  147DOPC  H18Z17586   1.143   2.022  14.655 -1.0722  0.4985  1.2700
  148DOPC     N17587   1.996   8.124  16.643 -0.3615 -0.3171 -0.2057
  148DOPC   C1217588   1.952   8.131  16.500  0.1895  0.0158 -0.3566
  148DOPC  H12A17589   1.845   8.143  16.497 -0.1402 -1.9978  1.1390
  148DOPC  H12B17590   1.968   8.034  16.454 -1.5916 -0.5420  0.1302
  148DOPC   C1317591   1.969   8.258  16.714 -0.1955  0.3294  0.2125
  148DOPC  H13A17592   2.024   8.346  16.684  2.0708 -1.1499 -0.2767
  148DOPC  H13B17593   1.866   8.283  16.696 -0.6957 -0.3101  1.9405
  148DOPC  H13C17594   1.988   8.261  16.821  0.2072  1.6036  0.1284
  148DOPC   C1417595   2.141   8.092  16.659 -0.3547 -0.2124 -0.5018
  148DOPC  H14A17596   2.184   8.021  16.589  3.3885  1.6555 -0.3502
  148DOPC  H14B17597   2.196   8.184  16.647  1.2386 -0.9761  0.5719
  148DOPC  H14C17598   2.161   8.052  16.757 -0.6911  0.5328 -0.1207
  148DOPC   C1517599   1.916   8.011  16.700  0.7693 -0.0939 -0.3275
  148DOPC  H15A17600   1.942   7.999  16.804  0.3007  1.4204 -0.0110
  148DOPC  H15B17601   1.934   7.920  16.644 -0.0209 -0.6036  0.2286
  148DOPC  H15C17602   1.809   8.026  16.693  0.5630 -0.8325  0.9369
  148DOPC   C1117603   2.018   8.238  16.408 -0.8454 -0.3476 -0.6440
  148DOPC  H11A17604   1.965   8.248  16.311  0.7974  0.7867 -1.4694
  148DOPC  H11B17605   2.016   8.339  16.456  2.0245  0.7348 -2.5117
  148DOPC     P17606   2.220   8.185  16.253  0.1747  0.0780  0.2004
  148DOPC   O1317607   2.364   8.158  16.268  0.1930  0.1036  0.1336
  148DOPC   O1417608   2.185   8.303  16.177  0.4024  0.3440 -0.5669
  148DOPC   O1217609   2.159   8.204  16.394  0.0852 -0.4214 -0.1944
  148DOPC   O1117610   2.145   8.067  16.184  0.3144 -0.0048 -0.7702
  148DOPC    C117611   2.213   7.962  16.119 -0.5718  0.2247 -1.3151
  148DOPC    HA17612   2.223   7.872  16.183 -0.5097 -0.3526 -2.1218
  148DOPC    HB17613   2.313   7.990  16.080 -0.4035  0.9575 -0.3979
  148DOPC    C217614   2.126   7.919  15.995 -0.4163  0.9961 -0.2859
  148DOPC    HS17615   2.145   7.810  15.981 -3.2393  0.4302 -0.2446
  148DOPC   O2117616   2.153   8.007  15.886 -0.3061 -0.1140  0.2195
  148DOPC   C2117617   2.264   7.972  15.825  0.6104 -0.3506 -0.8947
  148DOPC   O2217618   2.339   7.885  15.860 -0.3921  0.2376  0.5161
  148DOPC   C2217619   2.290   8.056  15.700 -0.5454 -0.0910  0.1933
  148DOPC   H2R17620   2.247   8.155  15.727  0.3688  0.1443  0.8667
  148DOPC   H2S17621   2.217   8.027  15.622  0.3958  0.1896 -0.8079
  148DOPC    C317622   1.978   7.917  16.030 -0.6786 -0.3190 -0.0675
  148DOPC    HX17623   1.963   8.023  16.059  0.5778 -0.3109  0.6176
  148DOPC    HY17624   1.977   7.850  16.119 -0.8540 -0.3977 -0.1295
  148DOPC   O3117625   1.883   7.869  15.926  0.2859 -0.0460 -0.4239
  148DOPC   C3117626   1.838   7.958  15.838 -0.5454  0.0004  0.0560
  148DOPC   O3217627   1.841   8.079  15.852  0.1482 -0.1091 -0.2079
  148DOPC   C3217628   1.793   7.877  15.715 -0.5235 -0.4584 -0.0709
  148DOPC   H2X17629   1.879   7.824  15.668  0.3591  0.9936 -0.1433
  148DOPC   H2Y17630   1.729   7.796  15.757  0.3525  0.0197  2.3240
  148DOPC   C2317631   2.436   8.074  15.655 -0.0047  0.4512  0.3619
  148DOPC   H3R17632   2.504   8.109  15.736  0.3500  0.7968 -0.0834
  148DOPC   H3S17633   2.431   8.153  15.577  0.5620  1.8593  1.7095
  148DOPC   C2417634   2.491   7.948  15.592  1.2597  0.3551  0.6663
  148DOPC   H4R17635   2.513   7.875  15.674  0.4351  0.9811  1.4694
  148DOPC   H4S17636   2.588   7.956  15.539  0.0372  0.5811 -1.6356
  148DOPC   C2517637   2.414   7.872  15.490 -0.7765  0.1314  0.5599
  148DOPC   H5R17638   2.390   7.940  15.405 -2.5741  0.6650  1.4411
  148DOPC   H5S17639   2.312   7.838  15.519 -1.4731 -0.5609 -2.3994
  148DOPC   C2617640   2.481   7.750  15.426  0.4207  0.2471  0.0132
  148DOPC   H6R17641   2.583   7.774  15.391  0.0563 -0.2009 -1.4293
  148DOPC   H6S17642   2.414   7.716  15.344 -0.4313 -1.0527  1.1824
  148DOPC   C2717643   2.490   7.632  15.526  0.4908  0.5571 -0.2559
  148DOPC   H7R17644   2.388   7.609  15.563 -0.0426  0.4307 -1.7333
  148DOPC   H7S17645   2.543   7.653  15.621 -1.9678  0.7899  1.1486
  148DOPC   C2817646   2.537   7.494  15.471  0.2171  0.1350 -0.3796
  148DOPC   H8R17647   2.620   7.516  15.400 -1.2097  1.1621 -1.8039
  148DOPC   H8S17648   2.455   7.465  15.403  0.8052 -2.4081 -0.0763
  148DOPC   C2917649   2.542   7.396  15.583 -0.4365  0.1538 -0.0485
  148DOPC   H9R17650   2.571   7.430  15.684 -2.6236 -0.4728  0.8638
  148DOPC  C21017651   2.527   7.260  15.566  0.5897 -0.0074 -0.1552
  148DOPC  H10R17652   2.533   7.192  15.652  0.2859  0.7445  0.4655
  148DOPC  C21117653   2.503   7.188  15.431 -1.0340  0.2808 -0.0118
  148DOPC  H11R17654   2.602   7.176  15.382 -0.1518 -2.3790  2.1885
  148DOPC  H11S17655   2.443   7.241  15.353  0.6429 -0.1347 -1.6614
  148DOPC  C21217656   2.454   7.050  15.458  0.0044  0.0082 -0.5447
  148DOPC  H12R17657   2.357   7.048  15.512  1.3913  1.2638  2.1914
  148DOPC  H12S17658   2.526   6.999  15.525 -0.1592  0.0169 -0.3622
  148DOPC  C21317659   2.437   6.972  15.332 -0.2144  0.1314 -0.1375
  148DOPC  H13R17660   2.538   6.984  15.288  1.4373 -2.1744  2.6503
  148DOPC  H13S17661   2.361   7.012  15.262  0.5809  0.4964 -0.8173
  148DOPC  C21417662   2.396   6.818  15.363 -0.0408 -0.1264  0.1952
  148DOPC  H14R17663   2.306   6.817  15.428  0.8809 -0.4215  1.5136
  148DOPC  H14S17664   2.471   6.781  15.436  0.6799  0.2131 -0.3611
  148DOPC  C21517665   2.398   6.719  15.247  0.6065  0.0549  0.3833
  148DOPC  H15R17666   2.309   6.732  15.182 -0.7186 -1.4684  1.7723
  148DOPC  H15S17667   2.387   6.613  15.278  0.6007 -0.3139 -0.8180
  148DOPC  C21617668   2.522   6.734  15.161  0.0644  0.2837  0.4695
  148DOPC  H16R17669   2.516   6.836  15.119 -3.6700  0.3302  0.8248
  148DOPC  H16S17670   2.518   6.670  15.070  1.6915 -0.3552  0.8106
  148DOPC  C21717671   2.657   6.698  15.224  0.1110  0.0324  0.3326
  148DOPC  H17R17672   2.685   6.761  15.311  1.2861  1.9451 -1.3646
  148DOPC  H17S17673   2.730   6.714  15.142  0.5826 -3.5650 -0.1135
  148DOPC  C21817674   2.665   6.551  15.250 -0.4813  0.2541  1.4394
  148DOPC  H18R17675   2.662   6.500  15.151  3.3975 -0.4153  1.5323
  148DOPC  H18S17676   2.584   6.516  15.318 -1.7737  1.2906  0.4988
  148DOPC  H18T17677   2.765   6.531  15.292 -0.4415 -0.3046  1.0878
  148DOPC   C3317678   1.703   7.961  15.621 -0.5717 -0.6985 -0.4480
  148DOPC   H3X17679   1.769   8.045  15.591 -0.3457 -0.4784  0.6096
  148DOPC   H3Y17680   1.627   8.009  15.687 -0.2712  0.9312 -1.2475
  148DOPC   C3417681   1.650   7.873  15.507  0.5719 -0.1739  0.2132
  148DOPC   H4X17682   1.608   7.778  15.549 -0.6122 -0.0604 -0.6669
  148DOPC   H4Y17683   1.727   7.857  15.429  0.6811 -1.0904  0.4893
  148DOPC   C3517684   1.534   7.942  15.437 -0.3662 -0.2097  0.5232
  148DOPC   H5X17685   1.565   8.033  15.380  1.5691 -2.2991 -1.9958
  148DOPC   H5Y17686   1.454   7.967  15.511 -0.4331  1.7596 -0.1430
  148DOPC   C3617687   1.466   7.845  15.336  0.3263 -0.0148 -0.4097
  148DOPC   H6X17688   1.445   7.747  15.383  0.9689 -0.2437 -0.5874
  148DOPC   H6Y17689   1.364   7.885  15.314  0.6289  0.0990 -1.6902
  148DOPC   C3717690   1.552   7.821  15.213 -0.0199  0.0227  0.4595
  148DOPC   H7X17691   1.560   7.918  15.160  2.0339 -1.5366 -2.3892
  148DOPC   H7Y17692   1.653   7.790  15.248 -0.4937 -0.9524  0.9841
  148DOPC   C3817693   1.473   7.724  15.125  0.2111  0.5477 -0.5924
  148DOPC   H8X17694   1.372   7.768  15.109  0.3885  0.4743 -2.0580
  148DOPC   H8Y17695   1.480   7.628  15.179  3.4679  0.3077 -1.2310
  148DOPC   C3917696   1.535   7.700  14.992  0.1549  0.0973 -0.4180
  148DOPC   H9X17697   1.617   7.766  14.960  0.7063 -0.6477 -0.5504
  148DOPC  C31017698   1.509   7.589  14.918 -1.0019  0.0139 -0.0966
  148DOPC  H10X17699   1.562   7.572  14.823  0.2092 -0.4129  0.6430
  148DOPC  C31117700   1.417   7.473  14.948 -0.4486  0.0498 -0.8200
  148DOPC  H11X17701   1.368   7.469  15.047 -0.3566 -0.9378 -0.8027
  148DOPC  H11Y17702   1.475   7.378  14.942 -1.2656 -0.4290 -1.3669
  148DOPC  C31217703   1.307   7.457  14.840 -0.0747 -0.4504 -0.9166
  148DOPC  H12X17704   1.268   7.354  14.855 -1.9181  0.4989  1.5317
  148DOPC  H12Y17705   1.356   7.470  14.741  1.2212 -0.4648 -0.2990
  148DOPC  C31317706   1.198   7.560  14.863  0.0139 -0.5948  0.2474
  148DOPC  H13X17707   1.250   7.655  14.841  1.1711 -1.3617 -0.4072
  148DOPC  H13Y17708   1.119   7.550  14.785 -0.2244  1.9597  0.0696
  148DOPC  C31417709   1.130   7.556  15.000  0.1861 -0.2303 -1.2260
  148DOPC  H14X17710   1.201   7.602  15.072 -0.6334  1.0437 -1.1910
  148DOPC  H14Y17711   1.036   7.616  14.994  0.4736  0.1841 -1.6498
  148DOPC  C31517712   1.082   7.419  15.054 -0.3038  0.1004  0.4984
  148DOPC  H15X17713   1.172   7.359  15.076 -0.4455 -0.2265  0.2093
  148DOPC  H15Y17714   1.016   7.388  14.969  2.2958  1.7763 -2.3575
  148DOPC  C31617715   1.004   7.421  15.182 -0.5741  1.1621 -0.1462
  148DOPC  H16X17716   0.916   7.481  15.152 -1.0980  1.1510  1.2870
  148DOPC  H16Y17717   0.969   7.320  15.210  2.5671  0.4625  1.7583
  148DOPC  C31717718   1.081   7.480  15.304  0.0328 -0.1577  0.1762
  148DOPC  H17X17719   1.191   7.476  15.289 -0.0046 -1.3051  0.1033
  148DOPC  H17Y17720   1.054   7.587  15.314 -0.5752 -0.3475  0.6230
  148DOPC  C31817721   1.042   7.412  15.441  0.4218 -0.0328 -1.0494
  148DOPC  H18X17722   1.108   7.450  15.522 -1.3523  2.2248 -0.5673
  148DOPC  H18Y17723   0.936   7.440  15.461 -0.6178 -1.4042 -4.1041
  148DOPC  H18Z17724   1.058   7.304  15.417 -0.8324 -0.5487  0.2835
  149DOPC     N17725   2.519   2.709  16.689 -0.5304  0.1102  0.5175
  149DOPC   C1217726   2.578   2.629  16.573 -0.4991  0.5427 -0.1016
  149DOPC  H12A17727   2.616   2.533  16.605 -1.2279  0.4076  0.3639
  149DOPC  H12B17728   2.671   2.673  16.539  0.7600 -0.9497  1.2371
  149DOPC   C1317729   2.617   2.727  16.804 -0.1321 -0.2519  0.2029
  149DOPC  H13A17730   2.571   2.785  16.883 -1.6267 -0.6625 -0.3280
  149DOPC  H13B17731   2.647   2.630  16.843  0.5502 -0.2910 -0.4023
  149DOPC  H13C17732   2.699   2.787  16.768  0.7108 -2.8743 -2.6887
  149DOPC   C1417733   2.395   2.641  16.748  0.5741  0.2507  0.3945
  149DOPC  H14A17734   2.415   2.537  16.769  1.1028  0.1002 -0.7763
  149DOPC  H14B17735   2.366   2.696  16.837  0.3914  0.2269  0.3491
  149DOPC  H14C17736   2.321   2.648  16.670  0.5976  0.2788  0.3743
  149DOPC   C1517737   2.490   2.849  16.642 -0.0855  0.3296 -0.8441
  149DOPC  H15A17738   2.460   2.915  16.723  0.3397  1.0721 -1.2857
  149DOPC  H15B17739   2.418   2.866  16.563 -3.0991  2.6837  2.0551
  149DOPC  H15C17740   2.587   2.890  16.618  0.4500  0.8556  1.7821
  149DOPC   C1117741   2.485   2.601  16.445 -0.2089  1.1485 -0.3910
  149DOPC  H11A17742   2.537   2.534  16.373 -0.6791 -0.3331  0.6101
  149DOPC  H11B17743   2.397   2.550  16.489  0.2074  0.3780 -0.4211
  149DOPC     P17744   2.335   2.715  16.274  0.0703  0.1011  0.1957
  149DOPC   O1317745   2.319   2.854  16.223  0.2436 -0.5420 -0.3585
  149DOPC   O1417746   2.220   2.637  16.338 -0.0087 -0.6836  0.4502
  149DOPC   O1217747   2.457   2.718  16.380  0.2383 -0.3162  0.3065
  149DOPC   O1117748   2.397   2.619  16.158 -0.3439  0.5926 -0.3764
  149DOPC    C117749   2.539   2.640  16.116  0.2592  0.2960  0.2029
  149DOPC    HA17750   2.590   2.543  16.135  0.1375  0.3389  0.7503
  149DOPC    HB17751   2.593   2.710  16.183  1.6123  1.2702 -1.8181
  149DOPC    C217752   2.564   2.683  15.970  0.3038  0.6908  0.0940
  149DOPC    HS17753   2.674   2.681  15.953  0.1839  0.6860 -0.7408
  149DOPC   O2117754   2.499   2.816  15.952  0.0321 -0.6365  0.1914
  149DOPC   C2117755   2.581   2.914  15.915  0.9720 -0.0680 -0.0761
  149DOPC   O2217756   2.701   2.913  15.912  0.4849 -0.2286 -0.0652
  149DOPC   C2217757   2.493   3.038  15.878 -0.6179  0.1839 -0.2267
  149DOPC   H2R17758   2.442   3.078  15.968  1.2833  1.8448  0.1840
  149DOPC   H2S17759   2.415   3.005  15.807 -1.5631  1.3659  0.2310
  149DOPC    C317760   2.502   2.586  15.867 -0.4428 -0.2940 -0.0369
  149DOPC    HX17761   2.396   2.565  15.894 -0.3169 -1.0786 -0.1289
  149DOPC    HY17762   2.559   2.490  15.871 -0.5722 -0.3534  0.5385
  149DOPC   O3117763   2.519   2.637  15.731 -0.2595  0.0297 -0.3154
  149DOPC   C3117764   2.430   2.716  15.681  0.3605  0.0896 -0.1148
  149DOPC   O3217765   2.320   2.739  15.725  0.0809  0.2370 -0.0762
  149DOPC   C3217766   2.507   2.794  15.567  0.1444  0.2043 -0.2483
  149DOPC   H2X17767   2.578   2.860  15.621 -0.6952  1.6558 -0.8528
  149DOPC   H2Y17768   2.563   2.713  15.517  0.3297  0.2130 -0.0559
  149DOPC   C2317769   2.584   3.144  15.816 -0.2850 -0.0785 -0.6176
  149DOPC   H3R17770   2.631   3.105  15.723  0.0119 -1.0091 -0.0953
  149DOPC   H3S17771   2.669   3.165  15.885 -0.2593 -0.2593 -0.5935
  149DOPC   C2417772   2.523   3.278  15.787  0.7106 -0.4209 -0.1070
  149DOPC   H4R17773   2.484   3.334  15.875 -2.7852 -1.7422 -0.6874
  149DOPC   H4S17774   2.432   3.267  15.725  0.7276  3.2921 -1.0642
  149DOPC   C2517775   2.624   3.369  15.714 -0.3254 -0.5943  0.1735
  149DOPC   H5R17776   2.723   3.357  15.764  0.5848 -1.4765 -1.7113
  149DOPC   H5S17777   2.578   3.470  15.712  1.1311  0.1041  0.6611
  149DOPC   C2617778   2.658   3.326  15.571 -0.4726  0.6537  0.0389
  149DOPC   H6R17779   2.567   3.304  15.512 -0.6228  2.5539 -0.5175
  149DOPC   H6S17780   2.731   3.245  15.590 -1.0163  0.3647  0.9624
  149DOPC   C2717781   2.745   3.426  15.492 -0.2482  0.3907 -0.2979
  149DOPC   H7R17782   2.749   3.371  15.395 -0.2798 -1.5026  0.7360
  149DOPC   H7S17783   2.850   3.444  15.525 -0.2994  1.4907 -0.7010
  149DOPC   C2817784   2.685   3.571  15.484  0.0817  0.2138 -0.1087
  149DOPC   H8R17785   2.680   3.605  15.589  0.8366  0.4249 -0.1383
  149DOPC   H8S17786   2.582   3.557  15.444  0.8319 -0.8055 -1.7652
  149DOPC   C2917787   2.775   3.657  15.394 -0.1302 -0.1393 -0.4592
  149DOPC   H9R17788   2.868   3.694  15.438 -0.0656 -0.1684 -0.5704
  149DOPC  C21017789   2.757   3.676  15.262  0.2175  0.3897 -0.6680
  149DOPC  H10R17790   2.836   3.735  15.215  1.2539  2.1264  2.9809
  149DOPC  C21117791   2.650   3.612  15.177 -0.0223 -0.7753 -0.5905
  149DOPC  H11R17792   2.579   3.688  15.138  1.8618  1.9845  1.0242
  149DOPC  H11S17793   2.580   3.544  15.231  0.8274 -1.7319 -0.6744
  149DOPC  C21217794   2.703   3.561  15.040  0.0919  0.0663  0.5341
  149DOPC  H12R17795   2.766   3.638  14.991  0.0549  0.4895  1.1531
  149DOPC  H12S17796   2.619   3.539  14.970  1.0959  0.1731 -0.7351
  149DOPC  C21317797   2.781   3.426  15.057 -0.6124  0.3600 -0.8685
  149DOPC  H13R17798   2.718   3.357  15.116  0.0252  0.8652  0.4468
  149DOPC  H13S17799   2.861   3.454  15.129  0.2254  0.0830 -1.6741
  149DOPC  C21417800   2.834   3.368  14.927 -0.8526  0.3937 -0.6478
  149DOPC  H14R17801   2.750   3.333  14.863 -0.2252 -0.5941 -0.9484
  149DOPC  H14S17802   2.892   3.278  14.955 -0.7356 -0.0515 -2.2456
  149DOPC  C21517803   2.930   3.459  14.857  0.2019 -0.3569  0.3808
  149DOPC  H15R17804   3.018   3.484  14.920 -0.4184  1.3957  0.6194
  149DOPC  H15S17805   2.882   3.548  14.810  1.3084 -0.2891 -0.6631
  149DOPC  C21617806   2.994   3.383  14.732 -0.9159 -0.1727 -0.1446
  149DOPC  H16R17807   2.906   3.362  14.668  0.7591  0.8666 -2.9475
  149DOPC  H16S17808   3.041   3.289  14.768 -0.1514 -0.2713 -1.3472
  149DOPC  C21717809   3.098   3.461  14.657 -0.1931  0.7416 -0.1564
  149DOPC  H17R17810   3.184   3.469  14.728 -0.3833  3.6554 -0.1011
  149DOPC  H17S17811   3.049   3.560  14.646 -1.8845  0.3522  2.7442
  149DOPC  C21817812   3.142   3.400  14.525  0.5235  0.0813  0.8827
  149DOPC  H18R17813   3.223   3.456  14.474  1.9474  0.5467  3.4692
  149DOPC  H18S17814   3.059   3.370  14.458 -0.6684  2.7140  1.0485
  149DOPC  H18T17815   3.183   3.301  14.555 -0.3959 -0.8975 -0.9349
  149DOPC   C3317816   2.413   2.863  15.466 -0.7794 -0.3684 -0.7915
  149DOPC   H3X17817   2.317   2.808  15.456 -0.5519 -1.7454  3.0538
  149DOPC   H3Y17818   2.466   2.860  15.368  0.6992 -1.5695  0.0060
  149DOPC   C3417819   2.369   3.010  15.500 -1.3725 -0.4369 -0.4603
  149DOPC   H4X17820   2.457   3.077  15.499 -2.4198  0.9909 -2.2961
  149DOPC   H4Y17821   2.337   3.009  15.607 -2.5450  0.2872 -0.7891
  149DOPC   C3517822   2.278   3.068  15.392  0.0033 -0.5735  0.2732
  149DOPC   H5X17823   2.203   2.989  15.371  1.1204 -1.2273 -1.4941
  149DOPC   H5Y17824   2.335   3.076  15.297 -0.8306 -0.4904 -0.2329
  149DOPC   C3617825   2.204   3.192  15.436  0.0131  0.2936  0.3995
  149DOPC   H6X17826   2.115   3.199  15.370 -0.0963  0.1684  0.5361
  149DOPC   H6Y17827   2.174   3.186  15.542  2.5382  2.2793  1.3596
  149DOPC   C3717828   2.285   3.323  15.417 -0.2810  0.3784 -0.7444
  149DOPC   H7X17829   2.377   3.323  15.481 -0.2688 -2.6448 -0.6194
  149DOPC   H7Y17830   2.324   3.318  15.314  0.1285  0.3465 -0.5893
  149DOPC   C3817831   2.204   3.450  15.433 -0.1791 -0.3590 -0.3246
  149DOPC   H8X17832   2.151   3.443  15.530 -0.0019 -2.1462 -0.3308
  149DOPC   H8Y17833   2.122   3.458  15.359 -1.6774  1.4379  1.4134
  149DOPC   C3917834   2.290   3.577  15.438  0.1845  0.4960  0.5685
  149DOPC   H9X17835   2.337   3.586  15.537  0.9697  0.9485  0.1598
  149DOPC  C31017836   2.322   3.664  15.341  0.6675 -0.6731  0.7919
  149DOPC  H10X17837   2.372   3.759  15.363  0.9950 -0.9193  1.1143
  149DOPC  C31117838   2.273   3.662  15.199  0.2854  0.2047 -0.5448
  149DOPC  H11X17839   2.192   3.588  15.178 -1.3335  1.7197  0.1041
  149DOPC  H11Y17840   2.358   3.656  15.127  1.4465  0.3787  0.7759
  149DOPC  C31217841   2.210   3.806  15.167  0.0001 -0.3926 -0.2957
  149DOPC  H12X17842   2.284   3.884  15.197 -2.0421  1.4967  0.1721
  149DOPC  H12Y17843   2.123   3.832  15.232  1.2495  3.3869  0.1261
  149DOPC  C31317844   2.179   3.827  15.020  0.2821  0.7509  0.5039
  149DOPC  H13X17845   2.268   3.819  14.953 -0.7900 -1.1576 -0.7734
  149DOPC  H13Y17846   2.108   3.746  14.993 -1.1558  2.0829  0.1270
  149DOPC  C31417847   2.101   3.955  14.980 -0.0280  0.2883 -0.2479
  149DOPC  H14X17848   2.011   3.968  15.044  0.6795 -0.2526  0.8978
  149DOPC  H14Y17849   2.166   4.043  14.997 -3.3186  2.8482  0.0160
  149DOPC  C31517850   2.060   3.967  14.839  0.1349  0.2715  0.7430
  149DOPC  H15X17851   1.989   3.887  14.807 -0.2367  1.3002 -1.1169
  149DOPC  H15Y17852   2.146   3.969  14.769 -0.6256  1.8663 -0.2087
  149DOPC  C31617853   1.989   4.099  14.810  0.5882  0.6700 -0.5506
  149DOPC  H16X17854   1.952   4.098  14.706  1.4566  0.8214 -0.8704
  149DOPC  H16Y17855   1.899   4.094  14.875  1.4913  1.7325  0.8537
  149DOPC  C31717856   2.055   4.230  14.834  0.0584  0.1091  0.1167
  149DOPC  H17X17857   2.097   4.236  14.937 -1.2844 -0.0971  0.6982
  149DOPC  H17Y17858   2.138   4.239  14.761  0.0766  0.2868  0.1579
  149DOPC  C31817859   1.954   4.346  14.813 -0.7276 -0.5223 -0.8207
  149DOPC  H18X17860   1.860   4.337  14.871  0.2716 -1.0099  0.7768
  149DOPC  H18Y17861   1.999   4.443  14.843  1.1921 -1.3864 -0.7348
  149DOPC  H18Z17862   1.931   4.359  14.705 -1.0277 -0.5399 -0.7584
  150DOPC     N17863   6.331   5.533  16.055  0.1849 -0.7424 -0.2578
  150DOPC   C1217864   6.400   5.434  15.969 -0.3025 -0.7376 -0.0396
  150DOPC  H12A17865   6.488   5.482  15.929 -0.4410  0.4263  0.9999
  150DOPC  H12B17866   6.331   5.415  15.888 -0.0961  0.3743 -0.4855
  150DOPC   C1317867   6.202   5.467  16.106 -0.2905  0.1552  0.1634
  150DOPC  H13A17868   6.146   5.422  16.025  0.3677  1.7526 -1.2462
  150DOPC  H13B17869   6.240   5.389  16.171  1.7028  2.4316  1.9269
  150DOPC  H13C17870   6.127   5.526  16.155 -3.3868 -2.6550 -0.7658
  150DOPC   C1417871   6.291   5.658  15.979  0.0074  0.1003  0.1142
  150DOPC  H14A17872   6.240   5.727  16.044 -1.4395  0.8539 -1.7083
  150DOPC  H14B17873   6.371   5.714  15.931 -0.1731  0.7161  0.5191
  150DOPC  H14C17874   6.232   5.633  15.892  0.0170 -0.1832  0.1887
  150DOPC   C1517875   6.407   5.577  16.169  0.0057 -0.1590  0.1841
  150DOPC  H15A17876   6.466   5.662  16.138 -0.9380  0.5428  0.3053
  150DOPC  H15B17877   6.474   5.496  16.194 -0.3397 -0.0466  1.5299
  150DOPC  H15C17878   6.350   5.612  16.253  0.6757  0.6606  0.3153
  150DOPC   C1117879   6.457   5.301  16.021 -0.1818 -0.0502  0.2696
  150DOPC  H11A17880   6.378   5.233  16.061  1.2038 -1.4480  0.7569
  150DOPC  H11B17881   6.495   5.247  15.931  1.5126  0.0051  0.9155
  150DOPC     P17882   6.705   5.371  16.089 -0.1854  0.1674 -0.3133
  150DOPC   O1317883   6.791   5.255  16.074 -0.2588  0.2364 -0.0343
  150DOPC   O1417884   6.750   5.469  16.186 -0.6167  0.4052  0.0416
  150DOPC   O1217885   6.556   5.320  16.123 -0.6584  0.1617  0.0722
  150DOPC   O1117886   6.697   5.432  15.951  0.4100  0.1275  0.1178
  150DOPC    C117887   6.805   5.516  15.909  0.2384 -0.2745  0.2059
  150DOPC    HA17888   6.906   5.490  15.947  0.2681  1.4410  1.4295
  150DOPC    HB17889   6.787   5.618  15.949  3.5779  0.7775 -0.6171
  150DOPC    C217890   6.800   5.530  15.751 -0.3261 -0.8134 -0.9720
  150DOPC    HS17891   6.715   5.595  15.721 -2.7687 -2.8297  1.1308
  150DOPC   O2117892   6.775   5.403  15.695  0.2712 -0.0066 -0.2237
  150DOPC   C2117893   6.656   5.379  15.643 -0.3290  0.4068  0.4347
  150DOPC   O2217894   6.560   5.457  15.644  0.2592  0.1070  0.0647
  150DOPC   C2217895   6.663   5.240  15.589 -0.1456 -0.1652 -0.7902
  150DOPC   H2R17896   6.648   5.175  15.678 -2.2289  1.1005 -0.1412
  150DOPC   H2S17897   6.759   5.219  15.538  0.5837  1.1258 -0.0284
  150DOPC    C317898   6.933   5.597  15.692  0.1158  0.1833  0.7443
  150DOPC    HX17899   7.023   5.538  15.722 -0.9682 -1.1535  1.4397
  150DOPC    HY17900   6.944   5.699  15.734  1.0791  0.0029  0.9651
  150DOPC   O3117901   6.927   5.601  15.550  0.2063  0.2759  0.3675
  150DOPC   C3117902   6.851   5.695  15.503 -0.0400 -0.6475 -0.1266
  150DOPC   O3217903   6.780   5.771  15.563 -0.5077  0.6594  0.1146
  150DOPC   C3217904   6.857   5.701  15.353 -0.8397 -0.8973  0.0651
  150DOPC   H2X17905   6.817   5.606  15.313 -1.3875 -0.2175 -1.0409
  150DOPC   H2Y17906   6.790   5.787  15.331  0.6901  0.6145  1.0465
  150DOPC   C2317907   6.543   5.196  15.496 -0.4411  0.0608  0.5035
  150DOPC   H3R17908   6.441   5.219  15.535 -0.9097  0.1297 -0.7434
  150DOPC   H3S17909   6.538   5.087  15.476  0.5043 -0.0179  0.6795
  150DOPC   C2417910   6.568   5.254  15.354 -0.5217  0.3882  0.1113
  150DOPC   H4R17911   6.668   5.217  15.322 -0.9368  0.1224 -0.9403
  150DOPC   H4S17912   6.565   5.364  15.360  1.4718  0.4525  0.5272
  150DOPC   C2517913   6.461   5.207  15.250 -0.0007  0.5170 -0.2417
  150DOPC   H5R17914   6.367   5.264  15.267 -1.2232 -0.8451 -2.0408
  150DOPC   H5S17915   6.437   5.104  15.281 -0.7287  1.2923  1.9658
  150DOPC   C2617916   6.500   5.221  15.104 -1.1606 -0.5107 -0.7000
  150DOPC   H6R17917   6.410   5.233  15.039  0.5227 -0.8550 -3.2568
  150DOPC   H6S17918   6.550   5.128  15.070 -1.6349 -1.1724  0.3715
  150DOPC   C2717919   6.592   5.347  15.074 -0.0323  0.1171 -0.0503
  150DOPC   H7R17920   6.695   5.329  15.110  0.4975  1.7171 -0.6718
  150DOPC   H7S17921   6.545   5.433  15.126 -1.1002  0.3035 -1.2510
  150DOPC   C2817922   6.615   5.381  14.927  0.3757  0.2744 -0.3856
  150DOPC   H8R17923   6.636   5.282  14.881  0.6967  0.4642 -0.6500
  150DOPC   H8S17924   6.709   5.439  14.917  0.5852  0.0986  0.4977
  150DOPC   C2917925   6.506   5.447  14.850 -0.3121  0.6746 -0.2990
  150DOPC   H9R17926   6.428   5.375  14.820 -0.0100  0.0777  0.3036
  150DOPC  C21017927   6.485   5.570  14.821  0.6171 -0.0766  0.0794
  150DOPC  H10R17928   6.391   5.591  14.767 -0.2924  0.1182  1.6930
  150DOPC  C21117929   6.572   5.686  14.861  0.1897  0.5800 -0.2191
  150DOPC  H11R17930   6.512   5.775  14.831 -1.8801  0.1307  2.2590
  150DOPC  H11S17931   6.658   5.675  14.791  0.4059 -0.6457  0.2099
  150DOPC  C21217932   6.620   5.718  15.006  0.2035  0.4503  0.1803
  150DOPC  H12R17933   6.714   5.659  15.019  0.7809  0.1981 -3.7706
  150DOPC  H12S17934   6.544   5.685  15.080  0.3495  0.0259  0.1451
  150DOPC  C21317935   6.655   5.864  15.029  0.2277 -0.0137 -0.4514
  150DOPC  H13R17936   6.652   5.879  15.139 -0.9783  1.6399 -0.6757
  150DOPC  H13S17937   6.579   5.929  14.982 -3.0052 -3.2387 -0.1648
  150DOPC  C21417938   6.796   5.888  14.981  0.5200 -0.2304  0.2554
  150DOPC  H14R17939   6.811   5.844  14.880  1.2556 -2.5679  1.2959
  150DOPC  H14S17940   6.873   5.833  15.040  0.2207 -0.5578  0.3452
  150DOPC  C21517941   6.828   6.038  14.983 -0.6578 -0.7374 -0.6145
  150DOPC  H15R17942   6.821   6.060  15.092  2.8178  0.5391 -0.5075
  150DOPC  H15S17943   6.755   6.084  14.913 -4.1123 -3.4266  0.9284
  150DOPC  C21617944   6.970   6.072  14.930  0.3288  0.6354  0.1736
  150DOPC  H16R17945   6.961   6.061  14.820  0.9804  4.0327 -0.3464
  150DOPC  H16S17946   7.044   6.002  14.974 -1.5009 -1.6708 -0.2067
  150DOPC  C21717947   7.001   6.216  14.956 -0.0871  0.1112 -0.9112
  150DOPC  H17R17948   7.110   6.224  14.936  0.0294  0.7858 -0.0482
  150DOPC  H17S17949   6.984   6.231  15.064  0.0594 -0.1139 -0.8579
  150DOPC  C21817950   6.932   6.322  14.873  0.2439 -0.1653 -0.8850
  150DOPC  H18R17951   6.974   6.416  14.914 -0.9898 -0.5889  1.5211
  150DOPC  H18S17952   6.822   6.310  14.881  0.0924 -0.3877 -2.8583
  150DOPC  H18T17953   6.949   6.314  14.764  0.7249  0.0990 -0.8315
  150DOPC   C3317954   6.996   5.750  15.296 -0.2139  0.5171 -0.0450
  150DOPC   H3X17955   6.984   5.737  15.186 -2.4354 -0.1693  0.2257
  150DOPC   H3Y17956   7.079   5.688  15.336  0.0140  0.2542 -0.9072
  150DOPC   C3417957   7.020   5.894  15.338  0.4140 -0.2473  0.0293
  150DOPC   H4X17958   7.007   5.904  15.448  1.5666 -1.1631  0.2649
  150DOPC   H4Y17959   6.942   5.960  15.294  0.5764 -0.0652  0.0113
  150DOPC   C3517960   7.155   5.957  15.304  0.5233 -0.4315 -0.2963
  150DOPC   H5X17961   7.185   5.925  15.202  0.2352  0.3227 -0.6254
  150DOPC   H5Y17962   7.225   5.907  15.373 -0.0003  0.5664  0.9959
  150DOPC   C3617963   7.152   6.104  15.312  0.1362  0.0773  0.0673
  150DOPC   H6X17964   7.085   6.144  15.233 -0.0309  0.9774  0.6509
  150DOPC   H6Y17965   7.115   6.150  15.406 -0.9337  0.9521 -0.7649
  150DOPC   C3717966   7.297   6.151  15.280  1.0282  0.2748  0.3281
  150DOPC   H7X17967   7.368   6.130  15.363  1.1662 -0.3863  0.0541
  150DOPC   H7Y17968   7.341   6.090  15.199 -0.9029 -0.2453 -0.4012
  150DOPC   C3817969   7.297   6.293  15.227  0.1241  0.3276 -0.9332
  150DOPC   H8X17970   7.252   6.359  15.304 -0.2103  0.2946 -1.0986
  150DOPC   H8Y17971   7.234   6.297  15.135  0.5668 -0.9003 -1.3063
  150DOPC   C3917972   7.437   6.337  15.193 -0.0463  0.0421 -0.7556
  150DOPC   H9X17973   7.502   6.346  15.280 -0.3938  0.3597 -0.5263
  150DOPC  C31017974   7.503   6.361  15.075  0.2906 -0.2384  0.5583
  150DOPC  H10X17975   7.610   6.383  15.068 -0.0785  1.7656  0.3502
  150DOPC  C31117976   7.431   6.362  14.938 -0.1253 -0.3041 -0.0772
  150DOPC  H11X17977   7.323   6.346  14.956  0.0277 -0.3749  0.7879
  150DOPC  H11Y17978   7.461   6.268  14.887 -2.4221 -1.6045  0.8424
  150DOPC  C31217979   7.452   6.489  14.852 -0.5733  0.0038 -0.2662
  150DOPC  H12X17980   7.556   6.528  14.850 -0.1496 -1.0364  0.6123
  150DOPC  H12Y17981   7.393   6.566  14.906 -0.3083 -1.1045  1.7061
  150DOPC  C31317982   7.407   6.470  14.710 -0.1166  1.1639  0.5384
  150DOPC  H13X17983   7.302   6.432  14.711  0.5292 -0.7655  2.2973
  150DOPC  H13Y17984   7.403   6.565  14.653  0.4271  1.1762  0.5132
  150DOPC  C31417985   7.488   6.377  14.620 -0.2877  0.0802 -0.1038
  150DOPC  H14X17986   7.594   6.409  14.611 -0.4621  0.7931  0.2660
  150DOPC  H14Y17987   7.478   6.277  14.667  1.7214 -0.4843 -0.8153
  150DOPC  C31517988   7.433   6.378  14.478  0.4339 -0.0233  0.8143
  150DOPC  H15X17989   7.433   6.482  14.440 -0.3999  0.4254  1.9873
  150DOPC  H15Y17990   7.330   6.337  14.480  0.6833 -0.6745  0.7052
  150DOPC  C31617991   7.510   6.296  14.375  0.6158 -0.0153  0.1291
  150DOPC  H16X17992   7.612   6.340  14.379 -0.6072  3.0163  2.5790
  150DOPC  H16Y17993   7.513   6.190  14.405  1.0344  0.2970  1.2325
  150DOPC  C31717994   7.451   6.302  14.233  0.3952 -0.1953  0.3482
  150DOPC  H17X17995   7.370   6.226  14.227  0.1242  0.1378 -0.3391
  150DOPC  H17Y17996   7.401   6.401  14.230 -0.2883 -0.5532 -0.5065
  150DOPC  C31817997   7.545   6.302  14.110  0.0284  0.2913  0.0509
  150DOPC  H18X17998   7.615   6.388  14.098 -1.2462  1.7828  2.4568
  150DOPC  H18Y17999   7.617   6.217  14.117  0.6056  0.6970 -0.6980
  150DOPC  H18Z18000   7.496   6.293  14.011  0.0623 -2.0125  0.1940
  151DOPC     N18001   8.391   2.907  16.800  0.0150 -0.6348  0.2475
  151DOPC   C1218002   8.276   2.983  16.730 -0.3428  0.5595  0.2293
  151DOPC  H12A18003   8.228   3.048  16.801 -1.4471  1.9850 -1.7342
  151DOPC  H12B18004   8.210   2.902  16.702  0.6051 -0.4083  0.6947
  151DOPC   C1318005   8.489   2.995  16.861  0.1368 -0.2340  0.3157
  151DOPC  H13A18006   8.450   3.081  16.913  0.9592  1.5586 -1.8743
  151DOPC  H13B18007   8.543   2.933  16.931  0.0451  0.3577  0.9222
  151DOPC  H13C18008   8.563   3.024  16.789 -1.2302 -0.2014 -1.1158
  151DOPC   C1418009   8.467   2.813  16.713  0.5160  0.4409 -0.2454
  151DOPC  H14A18010   8.506   2.862  16.625  1.9403 -1.6781 -0.8757
  151DOPC  H14B18011   8.558   2.772  16.753  1.5654  4.2171  1.7372
  151DOPC  H14C18012   8.403   2.737  16.670 -0.0565  1.1649 -0.7011
  151DOPC   C1518013   8.341   2.828  16.918  0.4804 -0.1448  0.6933
  151DOPC  H15A18014   8.247   2.784  16.890  0.3832 -0.8323  2.0377
  151DOPC  H15B18015   8.328   2.886  17.008  1.8700  1.9871 -0.3874
  151DOPC  H15C18016   8.407   2.745  16.939  1.2902 -0.0066 -1.1635
  151DOPC   C1118017   8.298   3.069  16.600 -0.1019 -0.4062  0.3622
  151DOPC  H11A18018   8.205   3.123  16.573  0.5489  0.8936  0.6390
  151DOPC  H11B18019   8.372   3.151  16.612 -0.2419 -0.3089  0.5651
  151DOPC     P18020   8.235   2.902  16.418 -0.2964 -0.1103  0.3281
  151DOPC   O1318021   8.167   2.818  16.515  0.3308  0.3249 -0.2165
  151DOPC   O1418022   8.308   2.837  16.302 -0.0946  0.1180 -0.4039
  151DOPC   O1218023   8.345   2.987  16.496  0.4539  0.0124 -0.3672
  151DOPC   O1118024   8.133   3.011  16.361  0.6594  0.2262  0.1147
  151DOPC    C118025   8.009   2.993  16.291  0.0292 -0.2019 -0.1412
  151DOPC    HA18026   7.926   3.047  16.341  1.0921 -0.2894  1.8212
  151DOPC    HB18027   7.987   2.884  16.300  1.6430 -0.7075 -1.7821
  151DOPC    C218028   8.024   3.039  16.149  0.5471 -0.4453  0.5283
  151DOPC    HS18029   7.921   3.032  16.106  1.2437 -3.5385 -0.9284
  151DOPC   O2118030   8.120   2.958  16.073 -0.2914 -0.2190  0.1834
  151DOPC   C2118031   8.062   2.847  16.034  0.6479  0.5548  0.2395
  151DOPC   O2218032   7.947   2.809  16.045 -0.4415 -0.4366 -0.5048
  151DOPC   C2218033   8.171   2.763  15.968 -0.4480 -0.4708 -0.1862
  151DOPC   H2R18034   8.129   2.661  15.978 -0.2611 -0.5467 -0.1743
  151DOPC   H2S18035   8.252   2.775  16.044 -3.2804 -0.1138  2.9886
  151DOPC    C318036   8.078   3.185  16.138  0.0783  0.4549  0.4923
  151DOPC    HX18037   8.171   3.194  16.198 -1.0341 -0.1236  2.3960
  151DOPC    HY18038   8.003   3.250  16.187 -1.3630 -0.2722 -0.6529
  151DOPC   O3118039   8.089   3.239  16.005 -0.5807 -0.3383  0.2582
  151DOPC   C3118040   8.210   3.231  15.941  0.3022  0.0289  0.3613
  151DOPC   O3218041   8.314   3.193  15.990  0.9830  0.1130 -1.0151
  151DOPC   C3218042   8.191   3.281  15.796 -0.1903  0.1270  0.0001
  151DOPC   H2X18043   8.110   3.357  15.791 -1.4100 -1.2156 -2.1360
  151DOPC   H2Y18044   8.285   3.340  15.787 -0.8684  1.4241  1.0831
  151DOPC   C2318045   8.195   2.808  15.827  0.1665 -0.2803  0.0862
  151DOPC   H3R18046   8.243   2.909  15.826 -0.9507  0.2810  0.6471
  151DOPC   H3S18047   8.098   2.809  15.773 -0.6949  1.2692  1.5364
  151DOPC   C2418048   8.296   2.712  15.756 -0.1727  0.1965 -0.4744
  151DOPC   H4R18049   8.252   2.611  15.768  1.8675 -0.5327  1.5727
  151DOPC   H4S18050   8.385   2.712  15.822  0.2844 -0.5666 -1.0865
  151DOPC   C2518051   8.334   2.760  15.618  0.1648 -0.1902  0.2014
  151DOPC   H5R18052   8.405   2.844  15.633  0.6576 -0.6818  0.6655
  151DOPC   H5S18053   8.249   2.801  15.560  0.1056 -0.2357  0.2566
  151DOPC   C2618054   8.420   2.656  15.542 -0.3456  0.1440  0.1886
  151DOPC   H6R18055   8.352   2.568  15.538  0.4407 -0.4347 -0.9750
  151DOPC   H6S18056   8.510   2.624  15.599  1.1203  2.4235 -0.7265
  151DOPC   C2718057   8.468   2.711  15.406  0.2791 -0.1772  0.4118
  151DOPC   H7R18058   8.553   2.780  15.423  0.3778  0.3861 -1.9809
  151DOPC   H7S18059   8.382   2.760  15.355  2.3276  1.5173 -1.6606
  151DOPC   C2818060   8.508   2.602  15.310 -0.1312  0.4308 -0.4294
  151DOPC   H8R18061   8.509   2.643  15.207 -4.7447 -0.4011 -1.0144
  151DOPC   H8S18062   8.427   2.527  15.300  0.0281  0.5948 -4.4207
  151DOPC   C2918063   8.641   2.545  15.359  0.5391  0.2067  0.4773
  151DOPC   H9R18064   8.670   2.562  15.464  2.0577  0.5769  0.0197
  151DOPC  C21018065   8.715   2.468  15.284 -0.1549  1.0739  0.5137
  151DOPC  H10R18066   8.801   2.417  15.329 -1.2634 -0.4493  0.9895
  151DOPC  C21118067   8.692   2.432  15.142  0.6784  0.0798  0.0264
  151DOPC  H11R18068   8.742   2.506  15.076  0.9997  0.2890  0.4907
  151DOPC  H11S18069   8.583   2.432  15.121  0.3485  0.0437  1.6071
  151DOPC  C21218070   8.741   2.290  15.091 -0.1544  0.5398  0.4374
  151DOPC  H12R18071   8.697   2.279  14.989  2.6899 -0.4345 -0.7699
  151DOPC  H12S18072   8.691   2.215  15.156 -2.5339  1.6557  0.0047
  151DOPC  C21318073   8.893   2.272  15.094 -0.2746  0.3915  0.0140
  151DOPC  H13R18074   8.937   2.322  15.183  3.0658 -1.6333 -0.2928
  151DOPC  H13S18075   8.941   2.323  15.008 -1.9571  0.5804 -0.8504
  151DOPC  C21418076   8.944   2.135  15.072  0.1918 -0.1405  0.3542
  151DOPC  H14R18077   8.926   2.067  15.158 -0.5680 -0.1936  0.1609
  151DOPC  H14S18078   9.054   2.153  15.073  0.4081 -1.3879  0.7946
  151DOPC  C21518079   8.900   2.072  14.932  0.3822 -0.5641 -1.1703
  151DOPC  H15R18080   8.902   2.162  14.866 -1.3646  1.6450  1.5385
  151DOPC  H15S18081   8.800   2.025  14.923  0.9008 -1.4399 -2.6099
  151DOPC  C21618082   9.012   1.981  14.882  0.1697  0.3889  0.3106
  151DOPC  H16R18083   9.019   1.900  14.958  0.7280 -1.4103 -1.5747
  151DOPC  H16S18084   9.111   2.031  14.873  0.1298  0.8748  2.1299
  151DOPC  C21718085   8.981   1.908  14.753 -0.4620  0.0050  0.2662
  151DOPC  H17R18086   8.897   1.835  14.767 -0.5725  0.2385  0.8635
  151DOPC  H17S18087   9.075   1.856  14.727 -0.2308  1.1711 -1.3973
  151DOPC  C21818088   8.950   1.989  14.640  0.2355  0.1459 -0.3726
  151DOPC  H18R18089   8.962   1.921  14.552  0.9818 -0.9586  0.5578
  151DOPC  H18S18090   9.030   2.065  14.625  0.5085 -0.2453 -0.9768
  151DOPC  H18T18091   8.848   2.032  14.645 -0.8768 -2.3115 -0.3233
  151DOPC   C3318092   8.184   3.167  15.698  0.3175  0.3253 -0.8757
  151DOPC   H3X18093   8.079   3.132  15.696  0.4891 -0.1727 -1.5309
  151DOPC   H3Y18094   8.252   3.084  15.729 -0.3878 -0.9495 -2.6135
  151DOPC   C3418095   8.213   3.216  15.553 -0.0452  0.4766  0.3794
  151DOPC   H4X18096   8.313   3.264  15.546  0.1399  0.5138  2.6228
  151DOPC   H4Y18097   8.130   3.288  15.539 -0.3574  0.3864  1.6394
  151DOPC   C3518098   8.193   3.096  15.461  0.5615  0.5408 -0.0195
  151DOPC   H5X18099   8.087   3.064  15.469  0.2747  0.5783 -2.7683
  151DOPC   H5Y18100   8.259   3.016  15.500  0.4383 -0.5379 -1.8985
  151DOPC   C3618101   8.224   3.119  15.314 -1.4639 -0.4831 -0.6784
  151DOPC   H6X18102   8.177   3.038  15.254  2.1040 -2.9508 -0.4256
  151DOPC   H6Y18103   8.194   3.223  15.291 -1.7484 -0.1992  0.8690
  151DOPC   C3718104   8.375   3.125  15.283  0.3753  0.8765  0.2148
  151DOPC   H7X18105   8.437   3.187  15.351  0.2780  0.8367  0.3418
  151DOPC   H7Y18106   8.419   3.023  15.281  0.2912  0.8469 -0.3018
  151DOPC   C3818107   8.395   3.184  15.140 -0.0337 -0.1739 -0.2252
  151DOPC   H8X18108   8.342   3.282  15.141  1.0439  0.4624  1.8713
  151DOPC   H8Y18109   8.353   3.129  15.053 -1.0863  0.7867 -0.3536
  151DOPC   C3918110   8.539   3.192  15.112  0.6973  0.4475  0.8003
  151DOPC   H9X18111   8.583   3.292  15.131  1.0722  0.3948  0.2399
  151DOPC  C31018112   8.613   3.095  15.055 -0.1914  0.3038 -0.4819
  151DOPC  H10X18113   8.723   3.108  15.053  0.3152 -3.0908 -1.2366
  151DOPC  C31118114   8.569   2.955  15.022  0.4368  0.3120 -0.0141
  151DOPC  H11X18115   8.458   2.945  15.016  0.2979  2.0355 -0.9571
  151DOPC  H11Y18116   8.599   2.886  15.104  0.8649  0.0667 -0.3761
  151DOPC  C31218117   8.642   2.904  14.898 -0.2149 -0.2830  0.2969
  151DOPC  H12X18118   8.745   2.942  14.884 -0.7546  0.8318 -0.8502
  151DOPC  H12Y18119   8.580   2.948  14.816 -1.4523  1.7106  2.1777
  151DOPC  C31318120   8.637   2.748  14.889 -0.2519  0.3122  0.3762
  151DOPC  H13X18121   8.682   2.701  14.979  1.7388 -0.4837 -0.9686
  151DOPC  H13Y18122   8.531   2.736  14.856 -1.0173  3.5928  1.2523
  151DOPC  C31418123   8.744   2.697  14.785  0.5999  0.4772  0.3850
  151DOPC  H14X18124   8.722   2.767  14.701  1.6662  1.2104  0.6943
  151DOPC  H14Y18125   8.842   2.701  14.836  0.0456 -0.7276  1.6132
  151DOPC  C31518126   8.717   2.556  14.727 -0.3562  0.6959 -0.0190
  151DOPC  H15X18127   8.611   2.561  14.693 -0.4850 -0.2273  0.2343
  151DOPC  H15Y18128   8.705   2.479  14.806  1.7946  2.1485  1.8206
  151DOPC  C31618129   8.813   2.530  14.611  0.8113  0.0026  0.3316
  151DOPC  H16X18130   8.799   2.583  14.515 -0.7922  2.4469  1.8084
  151DOPC  H16Y18131   8.911   2.570  14.645  1.3770 -1.3504  0.3720
  151DOPC  C31718132   8.836   2.375  14.583 -0.5894 -0.1838 -0.3176
  151DOPC  H17X18133   8.926   2.364  14.518 -1.8050 -3.9493 -1.6354
  151DOPC  H17Y18134   8.855   2.338  14.686  1.7468  0.0307 -0.5943
  151DOPC  C31818135   8.720   2.310  14.521 -0.5461 -0.3813  0.6556
  151DOPC  H18X18136   8.645   2.281  14.598  0.4622  0.6215  2.0904
  151DOPC  H18Y18137   8.675   2.380  14.448 -0.1909 -0.1860  0.6181
  151DOPC  H18Z18138   8.758   2.222  14.464 -0.8697  0.9567 -1.7262
  152DOPC     N18139   4.453   0.917  16.322  0.5842 -0.2230 -0.0966
  152DOPC   C1218140   4.403   0.988  16.195 -0.0706  0.3624 -1.1444
  152DOPC  H12A18141   4.479   0.984  16.118  1.2421  0.1151  0.1038
  152DOPC  H12B18142   4.401   1.092  16.224  0.5746 -0.0610  0.5501
  152DOPC   C1318143   4.357   0.947  16.432  0.6502  0.1441 -0.4147
  152DOPC  H13A18144   4.345   1.054  16.441  0.4044  0.0393  0.5800
  152DOPC  H13B18145   4.263   0.899  16.410  1.6845 -1.7574 -0.8588
  152DOPC  H13C18146   4.396   0.912  16.526 -0.8977  0.2222  0.2893
  152DOPC   C1418147   4.589   0.965  16.359 -0.5618  0.0416 -0.4822
  152DOPC  H14A18148   4.617   0.926  16.455  1.5457  0.2092 -0.9783
  152DOPC  H14B18149   4.656   0.928  16.282 -2.0114  0.2027 -1.8823
  152DOPC  H14C18150   4.596   1.072  16.349  0.5020 -0.1671 -2.4406
  152DOPC   C1518151   4.464   0.777  16.288  0.2783 -0.2940 -0.1017
  152DOPC  H15A18152   4.372   0.722  16.302 -1.8837  2.8150 -0.9604
  152DOPC  H15B18153   4.540   0.723  16.342 -0.5984 -1.7518 -0.2637
  152DOPC  H15C18154   4.488   0.772  16.183 -1.3349  3.2309 -0.8036
  152DOPC   C1118155   4.261   0.945  16.152 -0.2323  0.0609 -0.1620
  152DOPC  H11A18156   4.259   0.954  16.041  2.0426  0.2894 -0.2385
  152DOPC  H11B18157   4.231   0.844  16.186  1.0132 -0.3979 -0.3455
  152DOPC     P18158   4.117   1.168  16.147 -0.1273 -0.5881  0.0592
  152DOPC   O1318159   4.219   1.267  16.196 -0.0596  0.1481  0.4982
  152DOPC   O1418160   3.972   1.190  16.169  0.4642 -0.0590 -0.2493
  152DOPC   O1218161   4.158   1.025  16.208  0.2475  0.4120  0.1282
  152DOPC   O1118162   4.139   1.145  15.994  0.6566  0.2627 -0.2166
  152DOPC    C118163   4.047   1.057  15.928 -0.1203 -0.1554  0.1111
  152DOPC    HA18164   3.943   1.095  15.917 -0.7209 -1.5424  0.7888
  152DOPC    HB18165   4.046   0.958  15.979  0.9927 -0.0172  0.4364
  152DOPC    C218166   4.097   1.042  15.779  1.7060  0.3995  0.2394
  152DOPC    HS18167   4.060   1.131  15.722 -0.7924 -1.9084 -2.0070
  152DOPC   O2118168   4.039   0.917  15.725 -0.4723  0.0391 -0.6914
  152DOPC   C2118169   3.940   0.943  15.639 -1.0468  0.6772  0.0257
  152DOPC   O2218170   3.898   1.051  15.605  0.0117  0.3454  0.1074
  152DOPC   C2218171   3.893   0.808  15.588  0.2573  0.6715  1.1762
  152DOPC   H2R18172   3.818   0.768  15.660  2.4669 -1.6130  2.3843
  152DOPC   H2S18173   3.979   0.737  15.589  0.9331  1.0582 -3.8564
  152DOPC    C318174   4.253   1.032  15.769 -0.0232  0.1213 -0.6048
  152DOPC    HX18175   4.274   0.937  15.824 -0.9458 -0.9992 -2.1163
  152DOPC    HY18176   4.295   1.118  15.825  1.1992 -1.2415  0.6769
  152DOPC   O3118177   4.312   1.031  15.639  0.0510 -0.1616  0.1648
  152DOPC   C3118178   4.445   1.016  15.641  0.5982  0.0273 -0.6163
  152DOPC   O3218179   4.512   1.012  15.742  0.8698 -0.3102 -0.0265
  152DOPC   C3218180   4.501   1.005  15.502  0.4311  0.4341 -0.4291
  152DOPC   H2X18181   4.475   0.900  15.477  2.9466 -0.6421  1.0989
  152DOPC   H2Y18182   4.452   1.075  15.431  2.2354  1.6609 -0.5638
  152DOPC   C2318183   3.833   0.806  15.443 -0.0431 -0.4940 -0.7798
  152DOPC   H3R18184   3.920   0.812  15.374 -1.0745  0.8624 -2.0164
  152DOPC   H3S18185   3.768   0.894  15.425 -1.4004 -1.1123  0.8472
  152DOPC   C2418186   3.753   0.676  15.410 -0.4790  0.3799 -0.5939
  152DOPC   H4R18187   3.722   0.688  15.304  0.7138 -0.1805 -1.0192
  152DOPC   H4S18188   3.662   0.665  15.473 -2.0675  2.2374 -2.4030
  152DOPC   C2518189   3.836   0.546  15.425 -0.2780 -0.0783  0.1976
  152DOPC   H5R18190   3.770   0.461  15.396 -0.9467  0.9910 -1.5185
  152DOPC   H5S18191   3.866   0.519  15.529  2.3008 -0.7875 -0.6527
  152DOPC   C2618192   3.965   0.539  15.340  0.0322 -0.2667 -0.6775
  152DOPC   H6R18193   3.991   0.431  15.343  0.1360 -0.2225  0.2177
  152DOPC   H6S18194   4.043   0.608  15.379 -1.2961  0.8728  0.1018
  152DOPC   C2718195   3.943   0.566  15.196 -0.5486  0.3707  0.9667
  152DOPC   H7R18196   3.935   0.677  15.191 -0.8284  0.2940 -1.4004
  152DOPC   H7S18197   3.839   0.532  15.176  0.2305 -1.3300 -0.4850
  152DOPC   C2818198   4.046   0.502  15.100  0.8449  0.0806 -0.3705
  152DOPC   H8R18199   4.046   0.395  15.129  1.9669  0.5061  1.4208
  152DOPC   H8S18200   4.153   0.533  15.109  0.8938  0.6921 -2.5325
  152DOPC   C2918201   3.998   0.516  14.961  0.5682 -0.2489  0.4647
  152DOPC   H9R18202   3.919   0.448  14.926 -0.2344  0.6964  0.4138
  152DOPC  C21018203   4.000   0.636  14.896 -0.7773  0.6787 -0.1249
  152DOPC  H10R18204   3.945   0.636  14.801 -0.1288 -0.0132 -0.5094
  152DOPC  C21118205   4.066   0.769  14.943 -0.2237 -0.5776  0.0046
  152DOPC  H11R18206   4.098   0.761  15.049  1.0735  1.2726 -0.1874
  152DOPC  H11S18207   3.998   0.856  14.933 -2.4644 -2.3835 -1.3938
  152DOPC  C21218208   4.198   0.775  14.871  0.1667  0.2372 -0.4724
  152DOPC  H12R18209   4.260   0.683  14.887 -0.7391 -0.0586  1.8496
  152DOPC  H12S18210   4.262   0.847  14.926  1.7152 -1.5707  0.2322
  152DOPC  C21318211   4.189   0.821  14.724  0.3487 -0.2311  0.4514
  152DOPC  H13R18212   4.143   0.921  14.715  1.6641  0.3382 -0.3549
  152DOPC  H13S18213   4.133   0.750  14.658  1.7512 -1.4238  0.4712
  152DOPC  C21418214   4.336   0.840  14.679 -0.6838 -0.2270  0.1971
  152DOPC  H14R18215   4.382   0.740  14.691 -0.8713 -0.2288  0.9990
  152DOPC  H14S18216   4.391   0.918  14.737  0.6640 -1.1092  0.1568
  152DOPC  C21518217   4.334   0.872  14.531  0.4760  0.4945  0.2934
  152DOPC  H15R18218   4.282   0.969  14.515  1.0455  0.6433 -0.7742
  152DOPC  H15S18219   4.284   0.797  14.466  2.8263  0.9787 -2.2834
  152DOPC  C21618220   4.475   0.894  14.483 -0.0700 -0.2721 -0.0231
  152DOPC  H16R18221   4.530   0.801  14.457 -2.3701 -2.1370  1.4247
  152DOPC  H16S18222   4.535   0.944  14.562 -1.0770  1.5841 -0.3743
  152DOPC  C21718223   4.494   0.992  14.367 -0.1072 -1.0539  1.1534
  152DOPC  H17R18224   4.454   0.951  14.271 -0.3144  2.5223 -0.4365
  152DOPC  H17S18225   4.602   1.009  14.348 -0.2007  0.1601  1.6758
  152DOPC  C21818226   4.447   1.137  14.404  0.0935  0.3723  0.3291
  152DOPC  H18R18227   4.336   1.133  14.414 -0.0021  1.0231 -0.3955
  152DOPC  H18S18228   4.481   1.214  14.332 -0.2991  0.8243  0.6270
  152DOPC  H18T18229   4.492   1.170  14.500  1.1221 -0.4954  0.1727
  152DOPC   C3318230   4.652   1.006  15.489  0.7931 -0.9011 -0.2957
  152DOPC   H3X18231   4.685   0.922  15.554  0.1106 -1.1292 -0.2413
  152DOPC   H3Y18232   4.707   1.092  15.532 -1.6946  0.1027  1.0568
  152DOPC   C3418233   4.701   0.978  15.348 -0.6377  1.4898 -0.4813
  152DOPC   H4X18234   4.659   0.882  15.310 -0.3041  2.0142 -2.2830
  152DOPC   H4Y18235   4.810   0.968  15.366 -0.6560 -1.1263 -1.2921
  152DOPC   C3518236   4.663   1.084  15.247 -1.0709  0.8334 -0.1375
  152DOPC   H5X18237   4.698   1.187  15.271 -0.2245  0.9103 -1.5893
  152DOPC   H5Y18238   4.554   1.100  15.243 -1.3467 -0.1071  1.9878
  152DOPC   C3618239   4.732   1.058  15.110 -0.5471  0.3603  0.2068
  152DOPC   H6X18240   4.715   1.151  15.051  3.1021  1.6422  0.9306
  152DOPC   H6Y18241   4.842   1.058  15.127 -0.5193 -0.9964  0.1009
  152DOPC   C3718242   4.680   0.941  15.029  0.3295 -0.7706  0.7144
  152DOPC   H7X18243   4.715   0.846  15.074  1.7596 -0.3427  0.5639
  152DOPC   H7Y18244   4.570   0.949  15.015  0.3289 -1.7536  0.0962
  152DOPC   C3818245   4.731   0.942  14.884 -0.5246 -0.1613  1.4176
  152DOPC   H8X18246   4.842   0.940  14.888 -0.4425 -0.4757 -0.3892
  152DOPC   H8Y18247   4.701   1.038  14.837  1.0710  0.0223  0.7074
  152DOPC   C3918248   4.653   0.831  14.804 -0.6852 -0.0295 -0.1708
  152DOPC   H9X18249   4.559   0.790  14.844 -2.0976  1.9207 -1.3550
  152DOPC  C31018250   4.690   0.766  14.695 -0.2640  0.9774  0.0488
  152DOPC  H10X18251   4.621   0.686  14.667  0.2964  0.2936  0.5786
  152DOPC  C31118252   4.826   0.792  14.619  0.0581  0.6634  0.4714
  152DOPC  H11X18253   4.856   0.686  14.610  0.0026  0.3304  3.3785
  152DOPC  H11Y18254   4.903   0.830  14.689 -0.7136  1.9264  0.6773
  152DOPC  C31218255   4.835   0.859  14.480  1.2781  0.4869  0.0468
  152DOPC  H12X18256   4.794   0.962  14.493 -0.9511 -0.0862 -1.6782
  152DOPC  H12Y18257   4.781   0.801  14.402  1.3176  1.1023 -0.4503
  152DOPC  C31318258   4.985   0.877  14.437 -0.7517  0.5180 -0.6941
  152DOPC  H13X18259   5.005   0.978  14.480 -0.2387 -0.4777  1.5550
  152DOPC  H13Y18260   5.049   0.811  14.499 -1.7199  0.3195  0.1344
  152DOPC  C31418261   5.006   0.864  14.287 -1.0470  0.2563  0.1829
  152DOPC  H14X18262   4.996   0.757  14.260  0.3210 -0.2777  1.6043
  152DOPC  H14Y18263   4.932   0.929  14.236 -0.3062  0.2890 -0.8656
  152DOPC  C31518264   5.140   0.917  14.238  0.5380  0.3600 -0.2968
  152DOPC  H15X18265   5.215   0.862  14.300 -0.2401  0.4803  0.7716
  152DOPC  H15Y18266   5.139   1.027  14.254  0.0256  0.3832 -0.4735
  152DOPC  C31618267   5.178   0.893  14.089  0.2716 -0.4459 -0.2177
  152DOPC  H16X18268   5.177   0.784  14.065  0.6809 -0.9403  1.8427
  152DOPC  H16Y18269   5.101   0.937  14.022  0.9626  0.0039 -0.7357
  152DOPC  C31718270   5.312   0.954  14.051  0.7571 -0.0071  0.2197
  152DOPC  H17X18271   5.342   0.898  13.960  1.2103  1.3946 -0.5186
  152DOPC  H17Y18272   5.304   1.059  14.015 -0.2503  0.1008  0.7267
  152DOPC  C31818273   5.420   0.944  14.149 -0.2626  0.4218  0.1468
  152DOPC  H18X18274   5.447   0.841  14.178 -0.4893 -0.2401 -1.8094
  152DOPC  H18Y18275   5.507   1.001  14.111  1.0411  0.3230  2.7860
  152DOPC  H18Z18276   5.388   0.987  14.246  1.0672 -0.0956  0.8357
  153DOPC     N18277   7.135   8.257  16.580 -0.0217 -0.2742  0.1620
  153DOPC   C1218278   7.153   8.126  16.660 -0.1189  0.1516 -0.2230
  153DOPC  H12A18279   7.127   8.142  16.764 -0.9419 -1.7509 -0.0936
  153DOPC  H12B18280   7.257   8.106  16.680 -0.2955  1.0761  1.9135
  153DOPC   C1318281   7.220   8.363  16.639  0.5807 -0.5972 -0.7831
  153DOPC  H13A18282   7.184   8.389  16.738  3.1157 -2.3419  0.7115
  153DOPC  H13B18283   7.319   8.326  16.658  1.3998  0.5223 -2.6436
  153DOPC  H13C18284   7.225   8.452  16.578  0.9113 -0.1331 -0.0903
  153DOPC   C1418285   6.997   8.307  16.577  0.1968 -0.2452 -0.1245
  153DOPC  H14A18286   6.974   8.383  16.504  0.0614 -1.5564 -1.5030
  153DOPC  H14B18287   6.928   8.227  16.551 -1.1532  0.3705  1.3882
  153DOPC  H14C18288   6.966   8.336  16.677  0.0855 -0.3307 -0.1332
  153DOPC   C1518289   7.177   8.245  16.437  0.6080 -0.5336 -0.2614
  153DOPC  H15A18290   7.159   8.336  16.382 -0.0435 -1.0146 -0.8546
  153DOPC  H15B18291   7.115   8.167  16.398  0.1853 -1.8061  2.6702
  153DOPC  H15C18292   7.282   8.218  16.433  0.5365 -0.8708  0.0680
  153DOPC   C1118293   7.074   7.996  16.620  0.2030  0.3368  0.5633
  153DOPC  H11A18294   7.109   7.954  16.523  1.6429  0.3443  1.0626
  153DOPC  H11B18295   7.093   7.918  16.696 -1.1963  0.6617  1.2819
  153DOPC     P18296   6.834   7.937  16.511  0.1695  0.2813 -0.0328
  153DOPC   O1318297   6.695   7.971  16.537 -0.0504 -0.3751  0.0611
  153DOPC   O1418298   6.865   7.790  16.519  0.3196  0.3167  0.2906
  153DOPC   O1218299   6.929   8.008  16.619  0.1666  0.3083 -0.3734
  153DOPC   O1118300   6.887   7.983  16.368  0.1964 -0.0051 -0.5610
  153DOPC    C118301   6.841   8.096  16.307 -0.0943  0.0436  0.3387
  153DOPC    HA18302   6.911   8.138  16.231 -0.1737 -0.5331 -0.0579
  153DOPC    HB18303   6.806   8.174  16.378  0.9383 -0.5707  1.5535
  153DOPC    C218304   6.721   8.051  16.209 -0.0492  0.4146 -0.2529
  153DOPC    HS18305   6.648   8.006  16.281 -2.3101  1.9453 -1.4443
  153DOPC   O2118306   6.766   7.962  16.105 -0.1278 -0.0292 -0.6551
  153DOPC   C2118307   6.668   7.924  16.031 -0.0718  0.2494 -0.2620
  153DOPC   O2218308   6.547   7.932  16.055 -0.6325  0.6901 -0.2017
  153DOPC   C2218309   6.719   7.839  15.912  0.2464  0.0320  0.3083
  153DOPC   H2R18310   6.728   7.734  15.948  0.0962 -0.0294  0.1649
  153DOPC   H2S18311   6.816   7.884  15.881  0.3973  0.4810  1.4024
  153DOPC    C318312   6.653   8.180  16.153  0.3071 -0.0596  0.5415
  153DOPC    HX18313   6.659   8.246  16.243  2.7532 -0.4858  0.7705
  153DOPC    HY18314   6.551   8.150  16.120 -0.2212  1.6357  0.5537
  153DOPC   O3118315   6.732   8.235  16.046  0.4239 -0.3789 -0.0817
  153DOPC   C3118316   6.680   8.356  16.010  0.2101 -0.5341  0.6899
  153DOPC   O3218317   6.590   8.414  16.071 -0.3571 -0.0965  0.5015
  153DOPC   C3218318   6.756   8.422  15.904 -0.3166 -0.8367 -0.2433
  153DOPC   H2X18319   6.729   8.528  15.889  3.0895  0.0678 -0.8281
  153DOPC   H2Y18320   6.859   8.437  15.943 -1.3560 -0.5247  2.5674
  153DOPC   C2318321   6.609   7.843  15.803  0.2396  0.0197  0.4399
  153DOPC   H3R18322   6.509   7.819  15.844 -0.7734  0.4186 -1.6258
  153DOPC   H3S18323   6.637   7.758  15.737  1.3684  0.6143  0.1290
  153DOPC   C2418324   6.591   7.978  15.730  0.0707 -0.4984 -0.2749
  153DOPC   H4R18325   6.686   8.015  15.687  0.4339 -0.6578  0.3669
  153DOPC   H4S18326   6.575   8.063  15.801  2.3351 -0.4672  0.2947
  153DOPC   C2518327   6.484   7.976  15.622  0.4996  0.1789  0.1491
  153DOPC   H5R18328   6.385   7.949  15.663  0.4067 -1.2055 -0.8910
  153DOPC   H5S18329   6.517   7.884  15.567  0.5177  0.0507  0.3752
  153DOPC   C2618330   6.471   8.091  15.524 -0.2833  0.1975 -0.2080
  153DOPC   H6R18331   6.551   8.101  15.449 -0.7782  0.6667 -0.6820
  153DOPC   H6S18332   6.465   8.182  15.588 -2.2781 -0.8503  1.2313
  153DOPC   C2718333   6.341   8.080  15.448  0.0006 -0.0416  0.7736
  153DOPC   H7R18334   6.331   8.180  15.401 -2.7235 -0.5873  0.0101
  153DOPC   H7S18335   6.251   8.074  15.513 -0.1338  1.7977  0.7951
  153DOPC   C2818336   6.331   7.979  15.336 -0.1884  0.4802 -0.7995
  153DOPC   H8R18337   6.418   7.974  15.267  0.1315 -3.9887 -0.3580
  153DOPC   H8S18338   6.243   8.012  15.276 -0.3534 -0.6476 -1.2106
  153DOPC   C2918339   6.293   7.836  15.377  0.0972  0.2631 -0.0567
  153DOPC   H9R18340   6.371   7.791  15.440 -0.9846  0.0538  1.1811
  153DOPC  C21018341   6.181   7.767  15.347 -0.1553  0.5500 -0.0941
  153DOPC  H10R18342   6.172   7.668  15.393  1.4726 -1.3299 -3.4583
  153DOPC  C21118343   6.065   7.811  15.258  0.3076 -0.0663  0.5489
  153DOPC  H11R18344   6.063   7.752  15.164 -0.7661 -0.1692  0.6220
  153DOPC  H11S18345   6.082   7.918  15.232  1.9835 -0.0779  1.4712
  153DOPC  C21218346   5.934   7.792  15.326  0.3634 -0.1327 -0.0442
  153DOPC  H12R18347   5.861   7.840  15.258  0.1394  1.9209  1.5498
  153DOPC  H12S18348   5.927   7.855  15.417 -1.2920  1.0142 -0.9000
  153DOPC  C21318349   5.902   7.644  15.365  0.3906 -0.5410 -0.6252
  153DOPC  H13R18350   5.974   7.607  15.441 -1.0158  0.9155  1.4991
  153DOPC  H13S18351   5.905   7.587  15.270 -1.0973 -1.3165 -0.2338
  153DOPC  C21418352   5.760   7.628  15.413  0.5980  0.2996  0.2056
  153DOPC  H14R18353   5.693   7.654  15.328 -0.2324  0.3007  0.8397
  153DOPC  H14S18354   5.723   7.684  15.501  1.3632  0.1264  0.6436
  153DOPC  C21518355   5.718   7.485  15.459 -0.2853 -0.8892  0.4336
  153DOPC  H15R18356   5.753   7.419  15.377  1.2139 -0.8699  1.0141
  153DOPC  H15S18357   5.607   7.482  15.461 -0.3031 -0.4541  0.1806
  153DOPC  C21618358   5.797   7.446  15.592 -0.4990 -0.0508 -0.0195
  153DOPC  H16R18359   5.738   7.492  15.674 -1.3034  0.3867 -0.8245
  153DOPC  H16S18360   5.897   7.493  15.590 -1.3144  1.7793  0.1120
  153DOPC  C21718361   5.821   7.294  15.594 -0.0737  0.5399  0.3851
  153DOPC  H17R18362   5.897   7.258  15.521 -3.0608 -1.3375 -2.0042
  153DOPC  H17S18363   5.727   7.247  15.558 -1.2931  2.5729  0.7651
  153DOPC  C21818364   5.847   7.240  15.731  0.3548 -0.1999  1.3075
  153DOPC  H18R18365   5.940   7.284  15.773  0.9748  0.4021 -0.5538
  153DOPC  H18S18366   5.875   7.133  15.725  0.6325 -0.1741  2.0727
  153DOPC  H18T18367   5.762   7.245  15.801 -0.1597 -0.2900  0.6993
  153DOPC   C3318368   6.757   8.348  15.769  0.3509  0.3326 -0.6376
  153DOPC   H3X18369   6.660   8.369  15.719 -0.8799  0.2259  1.5801
  153DOPC   H3Y18370   6.760   8.237  15.783  1.3165  0.2132 -1.5920
  153DOPC   C3418371   6.881   8.390  15.687 -0.4030  0.1808 -0.1390
  153DOPC   H4X18372   6.900   8.308  15.614 -1.5993 -1.2040  1.0227
  153DOPC   H4Y18373   6.965   8.415  15.756  0.1038 -2.0374  0.1289
  153DOPC   C3518374   6.850   8.509  15.587  0.4335  0.5678 -0.5808
  153DOPC   H5X18375   6.792   8.589  15.639  1.7173  0.7614  0.6310
  153DOPC   H5Y18376   6.784   8.464  15.510 -0.2431  1.9752 -0.8562
  153DOPC   C3618377   6.964   8.573  15.513  0.5815  0.1547  0.5025
  153DOPC   H6X18378   7.035   8.618  15.585 -0.6078 -0.5468  2.1620
  153DOPC   H6Y18379   7.021   8.493  15.462 -1.0663 -1.1348  0.5900
  153DOPC   C3718380   6.932   8.669  15.400  0.0455 -0.5317  0.4198
  153DOPC   H7X18381   6.847   8.631  15.340  0.6605 -3.4238  1.2352
  153DOPC   H7Y18382   6.898   8.767  15.441 -0.3876  0.0566 -1.2545
  153DOPC   C3818383   7.051   8.695  15.305  0.2546  0.1802  0.2752
  153DOPC   H8X18384   7.138   8.739  15.358  0.3657  0.2043  0.0708
  153DOPC   H8Y18385   7.016   8.781  15.244  0.9525  1.7988  2.0438
  153DOPC   C3918386   7.092   8.577  15.216  0.4458  0.5015  0.2293
  153DOPC   H9X18387   7.165   8.508  15.261 -0.9481 -1.3065 -0.1637
  153DOPC  C31018388   7.068   8.553  15.087 -0.0596 -0.3791  0.7565
  153DOPC  H10X18389   7.112   8.470  15.030 -1.7291 -0.9929  0.3143
  153DOPC  C31118390   6.988   8.642  14.999 -0.8582  0.0407  0.1159
  153DOPC  H11X18391   7.057   8.709  14.943  0.4743  0.1872  1.8421
  153DOPC  H11Y18392   6.922   8.709  15.058 -0.1978  1.0320 -0.2358
  153DOPC  C31218393   6.892   8.577  14.898 -0.1977  0.6588 -0.0951
  153DOPC  H12X18394   6.838   8.502  14.960  1.8369  0.1497  1.1824
  153DOPC  H12Y18395   6.945   8.518  14.821  0.0226  1.9043 -0.9239
  153DOPC  C31318396   6.800   8.688  14.840 -0.0800 -0.1437  0.0199
  153DOPC  H13X18397   6.749   8.741  14.923 -2.3487 -0.2477 -1.2103
  153DOPC  H13Y18398   6.862   8.763  14.786 -1.5798  1.1383 -0.0010
  153DOPC  C31418399   6.690   8.621  14.744 -0.2164  0.0651  0.5877
  153DOPC  H14X18400   6.755   8.573  14.668 -0.0003  2.3560 -0.7623
  153DOPC  H14Y18401   6.642   8.547  14.811  0.2043 -0.3149  0.4734
  153DOPC  C31518402   6.603   8.731  14.676 -0.4923  0.7750  0.0131
  153DOPC  H15X18403   6.671   8.812  14.641  1.7423 -1.1418 -0.3142
  153DOPC  H15Y18404   6.543   8.776  14.758 -0.3195 -0.6007  0.9422
  153DOPC  C31618405   6.527   8.685  14.553  0.2239  0.1703 -0.9348
  153DOPC  H16X18406   6.489   8.771  14.495 -2.4278 -0.0782  0.2938
  153DOPC  H16Y18407   6.596   8.626  14.490 -0.5829 -1.5561 -0.2680
  153DOPC  C31718408   6.415   8.595  14.603 -0.1615  0.9985 -0.5742
  153DOPC  H17X18409   6.459   8.515  14.666  0.6645  1.3598 -0.6785
  153DOPC  H17Y18410   6.341   8.659  14.655 -0.8789  0.1194 -0.4882
  153DOPC  C31818411   6.346   8.528  14.489 -0.4867 -0.3220  0.5798
  153DOPC  H18X18412   6.262   8.590  14.450 -1.4099 -0.6210  2.0044
  153DOPC  H18Y18413   6.420   8.522  14.407 -0.2509 -1.3352  0.8525
  153DOPC  H18Z18414   6.319   8.424  14.516  0.1640 -0.1970  1.8232
  154DOPC     N18415   8.158   5.190  16.926 -0.7604  0.3590  0.8926
  154DOPC   C1218416   8.213   5.076  16.833 -0.1196  0.6541  0.2003
  154DOPC  H12A18417   8.177   4.983  16.875  0.3552  0.9022  1.1709
  154DOPC  H12B18418   8.321   5.075  16.837 -0.0356 -0.1921 -1.3997
  154DOPC   C1318419   8.029   5.154  16.983 -0.2421  0.0942 -1.2820
  154DOPC  H13A18420   8.029   5.055  17.025  1.0756 -0.9484 -3.5535
  154DOPC  H13B18421   7.999   5.224  17.060 -0.4422 -1.7491  0.3879
  154DOPC  H13C18422   7.947   5.150  16.913 -0.4628 -1.7750 -0.9491
  154DOPC   C1418423   8.172   5.324  16.871 -0.5759  0.5333  0.1992
  154DOPC  H14A18424   8.109   5.335  16.784  1.6139 -0.3618 -1.6023
  154DOPC  H14B18425   8.156   5.406  16.938 -0.4504  0.8594 -0.1648
  154DOPC  H14C18426   8.276   5.326  16.841  0.6950 -1.5339  3.8115
  154DOPC   C1518427   8.263   5.183  17.040 -0.4801  0.1580  0.4995
  154DOPC  H15A18428   8.364   5.202  17.007 -0.5291 -1.4310 -0.6224
  154DOPC  H15B18429   8.257   5.085  17.086  1.1549 -1.3784 -2.3214
  154DOPC  H15C18430   8.230   5.251  17.118 -3.5177 -1.5770  0.8885
  154DOPC   C1118431   8.173   5.074  16.683 -0.0445 -0.2557 -0.1137
  154DOPC  H11A18432   8.199   5.173  16.639  2.3564 -0.7126  0.1605
  154DOPC  H11B18433   8.227   4.996  16.625  1.8357  2.2549 -1.9948
  154DOPC     P18434   7.992   4.894  16.686 -0.3189  0.2217 -0.3525
  154DOPC   O1318435   7.850   4.894  16.709  0.2800 -0.0895  0.7915
  154DOPC   O1418436   8.065   4.830  16.798 -0.2279 -0.6390  0.4242
  154DOPC   O1218437   8.035   5.041  16.682 -0.7994 -0.5932  0.0531
  154DOPC   O1118438   8.032   4.836  16.546 -0.0445 -0.1646  0.5663
  154DOPC    C118439   7.958   4.843  16.428 -0.0202 -0.0610  0.0173
  154DOPC    HA18440   7.850   4.847  16.450 -0.2622 -0.6592 -0.9871
  154DOPC    HB18441   7.994   4.754  16.372 -0.7170 -0.4849  0.2342
  154DOPC    C218442   7.984   4.968  16.343 -0.4801 -0.8789  0.1439
  154DOPC    HS18443   7.949   5.057  16.400 -1.6998 -0.8996 -0.5255
  154DOPC   O2118444   7.905   4.956  16.224 -0.2683  0.3551 -0.4611
  154DOPC   C2118445   7.876   5.065  16.163  0.0451 -0.1237  0.2671
  154DOPC   O2218446   7.867   5.179  16.203 -1.1529  0.1030  0.7131
  154DOPC   C2218447   7.855   5.043  16.013 -0.2791  0.7076  1.0071
  154DOPC   H2R18448   7.823   4.937  16.000  1.6406  0.3623 -1.6506
  154DOPC   H2S18449   7.952   5.061  15.962 -0.5323 -0.7399 -0.0299
  154DOPC    C318450   8.138   4.970  16.308  0.0054 -0.0872  0.1163
  154DOPC    HX18451   8.167   4.867  16.278  0.2527 -1.0796  3.3956
  154DOPC    HY18452   8.202   4.995  16.396 -0.3385  0.3415  0.2547
  154DOPC   O3118453   8.172   5.072  16.208 -1.2811 -0.1835 -0.0485
  154DOPC   C3118454   8.167   5.198  16.244 -0.0430  0.0702  0.2072
  154DOPC   O3218455   8.141   5.237  16.358  0.8196 -0.0049  0.4996
  154DOPC   C3218456   8.194   5.285  16.127 -0.2854 -1.1084 -0.2330
  154DOPC   H2X18457   8.094   5.305  16.083 -0.8079  0.9139  1.6932
  154DOPC   H2Y18458   8.222   5.384  16.167 -2.8722 -0.4389  0.1316
  154DOPC   C2318459   7.755   5.147  15.954  0.2533  0.4754 -0.3294
  154DOPC   H3R18460   7.790   5.253  15.954  0.1600  0.5134  0.1915
  154DOPC   H3S18461   7.663   5.136  16.017  0.4557  2.3214  0.3501
  154DOPC   C2418462   7.704   5.102  15.813 -0.0010 -0.9682 -0.2406
  154DOPC   H4R18463   7.641   5.011  15.821  0.9271 -1.7051 -1.1333
  154DOPC   H4S18464   7.795   5.084  15.752  2.3736  1.5706  2.2683
  154DOPC   C2518465   7.609   5.213  15.752 -0.1224 -0.1115  0.0594
  154DOPC   H5R18466   7.665   5.306  15.728 -0.9024  0.3373 -0.0665
  154DOPC   H5S18467   7.526   5.232  15.823 -1.4837 -4.1310 -0.2153
  154DOPC   C2618468   7.550   5.154  15.619  0.6455  0.1063 -0.2108
  154DOPC   H6R18469   7.492   5.060  15.636 -1.3659  1.0861 -1.2873
  154DOPC   H6S18470   7.627   5.128  15.544  0.6517  0.6053 -0.3794
  154DOPC   C2718471   7.454   5.251  15.554  0.3665 -0.0610  0.2184
  154DOPC   H7R18472   7.427   5.215  15.452 -0.1661  1.8653 -0.3669
  154DOPC   H7S18473   7.515   5.344  15.546  1.2381 -0.6439 -0.0960
  154DOPC   C2818474   7.316   5.261  15.625 -0.4155  0.2993  0.1980
  154DOPC   H8R18475   7.335   5.315  15.720 -0.5177 -0.3854  0.6071
  154DOPC   H8S18476   7.274   5.161  15.645 -1.2099  0.0788 -2.1821
  154DOPC   C2918477   7.233   5.351  15.544  0.9064  0.9260 -0.1868
  154DOPC   H9R18478   7.280   5.451  15.537  0.9985  0.9336  0.5150
  154DOPC  C21018479   7.113   5.319  15.487 -1.0932 -0.2802 -0.0339
  154DOPC  H10R18480   7.059   5.400  15.435  0.7104  1.9530  1.3416
  154DOPC  C21118481   7.047   5.179  15.486 -0.5778  0.5864  0.0266
  154DOPC  H11R18482   6.964   5.175  15.559  0.5136  0.2968  1.2942
  154DOPC  H11S18483   7.117   5.102  15.526  0.1380 -0.5852 -3.1980
  154DOPC  C21218484   7.023   5.131  15.344  0.1299 -0.4276 -0.3759
  154DOPC  H12R18485   7.117   5.138  15.284  1.0958  0.5044  1.1792
  154DOPC  H12S18486   6.956   5.201  15.291 -0.4842 -0.2554  0.6024
  154DOPC  C21318487   6.953   4.993  15.344 -0.4086 -0.1121  0.4725
  154DOPC  H13R18488   6.910   4.978  15.446  3.7447 -2.9392  2.1027
  154DOPC  H13S18489   7.026   4.909  15.340 -0.2361  0.0432  0.3984
  154DOPC  C21418490   6.844   4.974  15.228 -0.0792  0.7134 -0.1943
  154DOPC  H14R18491   6.879   5.030  15.139 -0.5604 -2.3698 -2.4671
  154DOPC  H14S18492   6.754   5.017  15.277  0.7370  1.4641  0.6942
  154DOPC  C21518493   6.830   4.822  15.192 -0.3087  0.3183  0.0132
  154DOPC  H15R18494   6.731   4.811  15.143  0.2424 -0.8254 -0.9055
  154DOPC  H15S18495   6.826   4.763  15.286 -0.9526 -0.5174 -0.5199
  154DOPC  C21618496   6.936   4.774  15.091 -0.0320 -0.3529  0.1653
  154DOPC  H16R18497   7.035   4.773  15.143  0.3086 -0.7214 -0.4873
  154DOPC  H16S18498   6.947   4.845  15.006  0.0995  0.2789  0.7003
  154DOPC  C21718499   6.918   4.625  15.049  0.7225  0.2803  0.5622
  154DOPC  H17R18500   6.810   4.613  15.028  0.5131 -0.9707  2.1954
  154DOPC  H17S18501   6.943   4.570  15.142  1.7187 -0.7933 -0.3145
  154DOPC  C21818502   7.009   4.562  14.939  0.7282  0.6811 -0.1110
  154DOPC  H18R18503   6.975   4.600  14.841 -0.3487  0.4675  0.1678
  154DOPC  H18S18504   7.004   4.451  14.944 -0.1786  0.7681  2.7676
  154DOPC  H18T18505   7.112   4.604  14.950  0.8252  0.2852  0.5309
  154DOPC   C3318506   8.303   5.241  16.026 -0.4165  0.2069  0.5282
  154DOPC   H3X18507   8.287   5.134  16.001  0.6142 -0.0449  0.8821
  154DOPC   H3Y18508   8.405   5.255  16.067 -0.5024  0.4656  0.6542
  154DOPC   C3418509   8.276   5.315  15.886  0.0894 -0.9915 -0.4347
  154DOPC   H4X18510   8.280   5.426  15.892  0.5383 -0.9854 -0.8235
  154DOPC   H4Y18511   8.174   5.284  15.854 -0.0050 -1.5027  0.3125
  154DOPC   C3518512   8.381   5.279  15.779 -0.1653  0.5062 -0.5071
  154DOPC   H5X18513   8.385   5.168  15.775 -1.6094  0.4175  0.1859
  154DOPC   H5Y18514   8.480   5.321  15.805 -1.2101  2.0501  1.1719
  154DOPC   C3618515   8.348   5.324  15.635  0.2805 -0.4820 -0.0070
  154DOPC   H6X18516   8.426   5.287  15.565 -0.3756  0.3494 -1.2118
  154DOPC   H6Y18517   8.252   5.273  15.611  1.1164 -3.0026  1.5479
  154DOPC   C3718518   8.350   5.474  15.617 -0.3836 -0.4329  0.3079
  154DOPC   H7X18519   8.268   5.513  15.681  1.3785  1.0445  1.7818
  154DOPC   H7Y18520   8.448   5.505  15.660 -0.0304 -0.1190 -0.7018
  154DOPC   C3818521   8.325   5.529  15.468  0.0212 -0.6405  0.1601
  154DOPC   H8X18522   8.285   5.633  15.460  1.5467 -0.1021 -1.2807
  154DOPC   H8Y18523   8.248   5.472  15.413  0.3567  0.1225 -1.1511
  154DOPC   C3918524   8.460   5.542  15.393  0.0839  0.9094 -0.1591
  154DOPC   H9X18525   8.540   5.583  15.457 -0.3204  0.5794  0.5711
  154DOPC  C31018526   8.484   5.478  15.275 -0.6591  0.7936 -0.1595
  154DOPC  H10X18527   8.575   5.510  15.221 -0.8276  3.4729  1.0006
  154DOPC  C31118528   8.393   5.391  15.190  0.5930 -0.1690  0.0218
  154DOPC  H11X18529   8.302   5.365  15.249 -1.4011 -0.3910 -2.9204
  154DOPC  H11Y18530   8.428   5.289  15.164 -2.1907 -0.7733 -1.7653
  154DOPC  C31218531   8.367   5.458  15.051 -0.2017  0.3435 -0.6060
  154DOPC  H12X18532   8.337   5.563  15.069 -1.2721 -0.5119  4.1089
  154DOPC  H12Y18533   8.284   5.402  15.005 -0.1875 -0.0964 -0.1161
  154DOPC  C31318534   8.495   5.442  14.958 -0.0652 -0.5292 -0.0462
  154DOPC  H13X18535   8.589   5.472  15.010  1.0142  1.5127 -2.9425
  154DOPC  H13Y18536   8.509   5.334  14.939  0.6406 -0.0653 -2.4872
  154DOPC  C31418537   8.472   5.515  14.834  0.1070  0.8245  0.3072
  154DOPC  H14X18538   8.376   5.493  14.782  1.7739 -0.1975 -2.5551
  154DOPC  H14Y18539   8.472   5.625  14.851  2.6313  0.7070  1.4303
  154DOPC  C31518540   8.584   5.491  14.737 -0.6467 -0.8790 -0.4434
  154DOPC  H15X18541   8.606   5.385  14.713 -0.5620 -0.8557 -0.4709
  154DOPC  H15Y18542   8.678   5.543  14.765 -2.9427  3.0695  0.7724
  154DOPC  C31618543   8.572   5.566  14.607  0.3659 -0.8604  0.0780
  154DOPC  H16X18544   8.485   5.514  14.561 -0.0960  0.5840 -0.7233
  154DOPC  H16Y18545   8.541   5.670  14.630  0.3471 -0.3590 -1.9894
  154DOPC  C31718546   8.693   5.555  14.517 -0.5055 -0.3617  0.2924
  154DOPC  H17X18547   8.782   5.592  14.572 -0.2564 -1.0077  0.3336
  154DOPC  H17Y18548   8.706   5.446  14.497  0.2858  0.0984 -2.0733
  154DOPC  C31818549   8.696   5.628  14.378 -0.0318 -0.4447 -0.0566
  154DOPC  H18X18550   8.601   5.599  14.328  1.0440 -0.6654 -2.0511
  154DOPC  H18Y18551   8.687   5.738  14.392 -2.0260 -0.7653  1.7847
  154DOPC  H18Z18552   8.780   5.603  14.310 -0.4617  1.8526 -1.5515
  155DOPC     N18553   2.611   1.378  16.704  0.1073  0.0343  0.4195
  155DOPC   C1218554   2.490   1.369  16.615 -0.5073 -0.1702 -0.3520
  155DOPC  H12A18555   2.456   1.466  16.580 -3.6745 -0.8631  0.4215
  155DOPC  H12B18556   2.402   1.335  16.669  0.3842 -2.1430 -0.0419
  155DOPC   C1318557   2.738   1.385  16.623  0.1846 -0.0708 -0.2457
  155DOPC  H13A18558   2.730   1.303  16.553 -0.6866 -1.3741  1.3097
  155DOPC  H13B18559   2.746   1.484  16.582 -0.9182  0.0475 -0.1948
  155DOPC  H13C18560   2.826   1.371  16.685 -0.5658  0.5310  0.9903
  155DOPC   C1418561   2.612   1.264  16.797  0.0843  0.5667 -0.2910
  155DOPC  H14A18562   2.525   1.273  16.860 -0.9825 -0.4726 -1.5553
  155DOPC  H14B18563   2.612   1.174  16.739  0.2484  0.6134 -0.3620
  155DOPC  H14C18564   2.704   1.262  16.855 -0.0734  0.4953 -0.0405
  155DOPC   C1518565   2.603   1.507  16.778  0.3446  0.5849 -0.1724
  155DOPC  H15A18566   2.674   1.504  16.859 -0.3280  1.4337  0.4746
  155DOPC  H15B18567   2.504   1.523  16.819  0.1199  0.9639 -0.8488
  155DOPC  H15C18568   2.621   1.595  16.718 -2.2914  1.1425 -0.2865
  155DOPC   C1118569   2.498   1.270  16.493  0.3854 -0.1916 -0.7118
  155DOPC  H11A18570   2.391   1.261  16.465  0.0778  2.3918 -0.5856
  155DOPC  H11B18571   2.548   1.325  16.410 -0.7463  0.8099 -0.7476
  155DOPC     P18572   2.638   1.067  16.420 -0.4635  0.2084 -0.6461
  155DOPC   O1318573   2.623   0.921  16.453  0.4287  0.0721  0.2720
  155DOPC   O1418574   2.777   1.127  16.411  0.3835  0.3462  0.4140
  155DOPC   O1218575   2.548   1.142  16.527 -0.0704 -0.4462  0.1747
  155DOPC   O1118576   2.562   1.092  16.287  0.6464 -0.3975  0.4004
  155DOPC    C118577   2.425   1.050  16.264  0.0965 -0.4567  0.2776
  155DOPC    HA18578   2.355   1.133  16.240 -0.4200 -1.3215 -1.3405
  155DOPC    HB18579   2.380   0.995  16.349 -1.7552  0.1927 -0.2200
  155DOPC    C218580   2.419   0.957  16.139  0.5152 -0.5463  0.5053
  155DOPC    HS18581   2.501   0.882  16.146 -0.3540 -1.5289  0.5148
  155DOPC   O2118582   2.432   1.047  16.025  0.0771 -0.6394 -0.2876
  155DOPC   C2118583   2.457   0.971  15.920 -0.2504 -0.6901  0.5518
  155DOPC   O2218584   2.468   0.849  15.924  0.4799  0.0844  0.5073
  155DOPC   C2218585   2.491   1.055  15.793  0.4617  0.3264 -0.5532
  155DOPC   H2R18586   2.538   0.988  15.719  0.0787 -0.6163  0.0439
  155DOPC   H2S18587   2.564   1.136  15.820  0.8138  0.1643 -1.0005
  155DOPC    C318588   2.278   0.876  16.145  0.8701  0.9353  0.0733
  155DOPC    HX18589   2.265   0.813  16.236 -0.7704 -0.8895 -1.3310
  155DOPC    HY18590   2.264   0.805  16.061  0.7534  1.6285 -0.5026
  155DOPC   O3118591   2.167   0.969  16.141 -0.0307 -1.1615  0.0031
  155DOPC   C3118592   2.102   0.987  16.028  0.4862  0.1911 -0.0497
  155DOPC   O3218593   2.131   0.933  15.920 -0.0234 -0.2647 -0.5383
  155DOPC   C3218594   1.995   1.094  16.061  0.4244 -0.0840  0.6171
  155DOPC   H2X18595   1.926   1.069  16.144  1.3766 -0.0571  1.4344
  155DOPC   H2Y18596   2.058   1.179  16.098  1.4984 -1.1694  1.3532
  155DOPC   C2318597   2.362   1.119  15.746 -0.1157  0.5854 -0.4042
  155DOPC   H3R18598   2.268   1.060  15.750  0.0030  0.3375 -1.1460
  155DOPC   H3S18599   2.383   1.141  15.640 -0.9512 -0.0204 -0.7097
  155DOPC   C2418600   2.321   1.249  15.817 -0.9284 -0.1232 -0.1633
  155DOPC   H4R18601   2.413   1.303  15.850 -0.7175 -0.0247 -0.9020
  155DOPC   H4S18602   2.266   1.221  15.909  0.7088  0.9588  1.2241
  155DOPC   C2518603   2.234   1.342  15.727 -0.0442 -0.4159 -0.7244
  155DOPC   H5R18604   2.188   1.417  15.795  2.8583  2.3170 -1.5106
  155DOPC   H5S18605   2.150   1.276  15.697 -0.3208 -1.8382  2.6823
  155DOPC   C2618606   2.316   1.424  15.620 -0.6985  0.5182  0.3017
  155DOPC   H6R18607   2.362   1.370  15.535  0.9395  1.7126  0.3804
  155DOPC   H6S18608   2.411   1.449  15.672 -0.1103  0.3527 -0.6601
  155DOPC   C2718609   2.248   1.553  15.576  0.0096 -0.6559  0.2279
  155DOPC   H7R18610   2.151   1.530  15.527 -0.0162 -1.0090  0.4416
  155DOPC   H7S18611   2.306   1.599  15.493  1.2981 -1.4786  0.6341
  155DOPC   C2818612   2.227   1.649  15.690  0.6834  0.1733 -0.7446
  155DOPC   H8R18613   2.316   1.656  15.755 -0.3283 -2.2675  1.0346
  155DOPC   H8S18614   2.144   1.603  15.748  0.9431 -0.7324 -1.0810
  155DOPC   C2918615   2.175   1.778  15.645  0.7817  0.0617  0.7035
  155DOPC   H9R18616   2.065   1.777  15.644  0.7608 -1.4862  1.8300
  155DOPC  C21018617   2.241   1.880  15.587 -0.0145 -0.0351 -0.5260
  155DOPC  H10R18618   2.179   1.968  15.565 -1.6562 -0.8681  0.5615
  155DOPC  C21118619   2.389   1.884  15.546  0.2708 -0.4475  0.3834
  155DOPC  H11R18620   2.401   1.892  15.436 -1.6609 -2.4551 -0.0422
  155DOPC  H11S18621   2.446   1.797  15.585 -2.4562 -2.5883 -0.1130
  155DOPC  C21218622   2.463   2.006  15.608  0.3267  0.3044  0.5916
  155DOPC  H12R18623   2.567   2.001  15.569  1.0329 -2.0084  2.5034
  155DOPC  H12S18624   2.475   1.990  15.718 -0.1814  1.0931  0.7729
  155DOPC  C21318625   2.412   2.145  15.586 -0.8636  0.0101  0.1309
  155DOPC  H13R18626   2.469   2.225  15.637 -0.3339  2.0757 -3.3888
  155DOPC  H13S18627   2.305   2.160  15.612 -1.6213 -0.0569 -2.6091
  155DOPC  C21418628   2.429   2.188  15.442  0.0861  0.3099 -0.5025
  155DOPC  H14R18629   2.347   2.136  15.387 -1.5579 -1.0585  2.9736
  155DOPC  H14S18630   2.527   2.162  15.395  1.5260  2.9124  0.8511
  155DOPC  C21518631   2.402   2.336  15.421  0.1369 -0.4439  0.3312
  155DOPC  H15R18632   2.466   2.390  15.493 -0.7857  0.3826  0.5394
  155DOPC  H15S18633   2.298   2.352  15.457 -0.1010 -0.8517 -0.1542
  155DOPC  C21618634   2.436   2.382  15.285  0.1206 -0.7511 -0.0014
  155DOPC  H16R18635   2.372   2.343  15.203 -0.8829 -1.3542  1.0471
  155DOPC  H16S18636   2.542   2.359  15.257 -0.7161 -1.8457 -2.6702
  155DOPC  C21718637   2.409   2.536  15.273  0.6287  0.5877  0.6123
  155DOPC  H17R18638   2.471   2.590  15.347  1.9697  1.0571 -0.7921
  155DOPC  H17S18639   2.299   2.547  15.284  0.2555 -0.6572 -1.3143
  155DOPC  C21818640   2.449   2.598  15.133 -0.0030 -0.5642 -0.3189
  155DOPC  H18R18641   2.442   2.708  15.141 -0.9614 -0.5620 -0.9456
  155DOPC  H18S18642   2.390   2.557  15.048 -0.0082 -1.3933  0.0675
  155DOPC  H18T18643   2.556   2.574  15.114  1.1193  2.1084  2.0058
  155DOPC   C3318644   1.906   1.139  15.937 -0.6321 -0.3009  0.2556
  155DOPC   H3X18645   1.981   1.184  15.867  1.3078  0.5597  2.7129
  155DOPC   H3Y18646   1.835   1.214  15.978  0.4050  0.2890  1.0211
  155DOPC   C3418647   1.821   1.021  15.881  0.4828 -0.0243  0.6208
  155DOPC   H4X18648   1.750   0.994  15.961  1.0250  2.0883  1.8956
  155DOPC   H4Y18649   1.884   0.934  15.853 -1.1684 -1.5093  1.3869
  155DOPC   C3518650   1.753   1.059  15.741  1.0021 -0.2076 -1.2979
  155DOPC   H5X18651   1.679   1.141  15.760  1.3453 -0.2794  0.5641
  155DOPC   H5Y18652   1.700   0.963  15.723  1.5050 -0.5517 -0.9777
  155DOPC   C3618653   1.843   1.095  15.629 -0.3260 -0.0024 -0.4080
  155DOPC   H6X18654   1.885   1.195  15.655 -1.6008  0.2811  0.6889
  155DOPC   H6Y18655   1.929   1.026  15.621  0.7882  1.2238  0.4899
  155DOPC   C3718656   1.777   1.108  15.490  0.0126  0.6015 -0.0368
  155DOPC   H7X18657   1.730   1.010  15.467  0.1191  0.7429 -0.9176
  155DOPC   H7Y18658   1.702   1.190  15.491  0.8040  1.3283  0.2106
  155DOPC   C3818659   1.869   1.110  15.369 -0.3552 -0.5675 -0.2224
  155DOPC   H8X18660   1.812   1.101  15.274 -3.4145  1.0097  1.3103
  155DOPC   H8Y18661   1.925   1.014  15.382 -0.9479 -1.0602 -1.1639
  155DOPC   C3918662   1.953   1.237  15.374 -0.2059  0.0073  0.2669
  155DOPC   H9X18663   1.893   1.326  15.352 -1.9699 -1.3598 -0.7968
  155DOPC  C31018664   2.087   1.246  15.397  0.6138 -0.4849 -0.7490
  155DOPC  H10X18665   2.133   1.346  15.405  1.8759 -1.1931  4.4118
  155DOPC  C31118666   2.180   1.132  15.391 -0.0356  0.1958 -0.2946
  155DOPC  H11X18667   2.151   1.060  15.471 -0.6879 -2.0723 -2.4744
  155DOPC  H11Y18668   2.279   1.163  15.431  0.0762 -1.7592  1.1017
  155DOPC  C31218669   2.199   1.057  15.259 -0.1718  0.0952  0.4181
  155DOPC  H12X18670   2.260   1.116  15.187 -1.5139 -0.5390 -1.2895
  155DOPC  H12Y18671   2.097   1.044  15.218  0.3438 -3.4256 -0.0011
  155DOPC  C31318672   2.267   0.920  15.275 -0.2269  0.2027 -0.2312
  155DOPC  H13X18673   2.182   0.858  15.312 -0.5986  1.2527  0.7344
  155DOPC  H13Y18674   2.293   0.880  15.175 -1.5033 -1.2663 -0.0109
  155DOPC  C31418675   2.388   0.925  15.364 -0.1452 -0.0287  0.8415
  155DOPC  H14X18676   2.455   1.002  15.318 -0.4469 -0.7932 -0.9721
  155DOPC  H14Y18677   2.366   0.930  15.473  0.0842  0.4966  0.8686
  155DOPC  C31518678   2.479   0.800  15.348 -0.2174  0.2485  0.0315
  155DOPC  H15X18679   2.526   0.809  15.248  0.2728  0.2706  0.2609
  155DOPC  H15Y18680   2.405   0.717  15.347  1.0210 -0.9228 -2.5163
  155DOPC  C31618681   2.588   0.795  15.455 -0.7083  0.8342 -0.3567
  155DOPC  H16X18682   2.654   0.883  15.440  1.9853 -0.9336  0.3404
  155DOPC  H16Y18683   2.537   0.793  15.553  0.8907  0.2501  0.5068
  155DOPC  C31718684   2.684   0.670  15.448 -0.1244 -0.4473 -0.3988
  155DOPC  H17X18685   2.758   0.675  15.365 -1.1264  1.4938 -1.2324
  155DOPC  H17Y18686   2.748   0.680  15.538  1.2424 -0.8179 -1.3096
  155DOPC  C31818687   2.620   0.531  15.456  0.0918 -0.7217 -0.1749
  155DOPC  H18X18688   2.686   0.480  15.530  1.3039  2.5770  1.2471
  155DOPC  H18Y18689   2.518   0.537  15.500  0.5553 -0.9960  0.9927
  155DOPC  H18Z18690   2.617   0.487  15.354 -2.1821  3.0373 -1.9270
  156DOPC     N18691   6.463   6.486  16.219 -0.4394  0.5279 -0.1366
  156DOPC   C1218692   6.464   6.524  16.372  0.5061 -0.6924  0.2057
  156DOPC  H12A18693   6.462   6.434  16.433 -0.4959 -1.4750 -0.9319
  156DOPC  H12B18694   6.375   6.580  16.397 -0.1986 -1.2228 -0.9972
  156DOPC   C1318695   6.339   6.395  16.188 -0.7076  0.1325  0.0880
  156DOPC  H13A18696   6.251   6.457  16.199 -1.0400 -0.0592 -1.3097
  156DOPC  H13B18697   6.338   6.365  16.084 -1.9470  1.2847 -0.2591
  156DOPC  H13C18698   6.330   6.309  16.253  1.3740  0.2185  0.5723
  156DOPC   C1418699   6.583   6.408  16.179 -0.2930 -0.4031  0.1434
  156DOPC  H14A18700   6.581   6.373  16.077  0.3911 -1.7665  0.5802
  156DOPC  H14B18701   6.668   6.471  16.196  0.5590 -1.4413 -0.1800
  156DOPC  H14C18702   6.594   6.326  16.248 -0.4488 -1.6024 -1.2007
  156DOPC   C1518703   6.456   6.604  16.126  0.0292 -0.1651  0.5386
  156DOPC  H15A18704   6.359   6.650  16.118 -0.8089 -1.6219  1.8534
  156DOPC  H15B18705   6.482   6.584  16.023 -2.9701  1.0657 -0.5482
  156DOPC  H15C18706   6.525   6.680  16.161  0.0628  0.3649 -0.6435
  156DOPC   C1118707   6.583   6.612  16.415 -1.0015 -0.0920 -0.2722
  156DOPC  H11A18708   6.578   6.621  16.525  2.0743 -1.5159  0.0810
  156DOPC  H11B18709   6.669   6.549  16.381 -2.6311 -3.3347  1.2115
  156DOPC     P18710   6.716   6.823  16.349 -0.0782 -0.4604 -0.2872
  156DOPC   O1318711   6.803   6.792  16.468  0.1351 -0.0557  0.0029
  156DOPC   O1418712   6.692   6.965  16.310  0.2635 -0.4155  0.2622
  156DOPC   O1218713   6.580   6.745  16.359 -0.2127  0.2989  0.3144
  156DOPC   O1118714   6.793   6.754  16.232 -0.1321 -0.2703  0.1184
  156DOPC    C118715   6.895   6.812  16.150 -0.4103 -0.0404 -0.1924
  156DOPC    HA18716   6.992   6.759  16.159  0.1629  1.1092  0.7081
  156DOPC    HB18717   6.914   6.916  16.183  1.8668 -0.6968  0.7684
  156DOPC    C218718   6.845   6.804  16.002 -0.1538 -0.4223 -0.0707
  156DOPC    HS18719   6.739   6.836  16.010 -0.5334 -1.7601  0.4950
  156DOPC   O2118720   6.860   6.668  15.943 -0.5991 -0.1377  0.1956
  156DOPC   C2118721   6.758   6.626  15.864  0.0891 -0.3242  0.1087
  156DOPC   O2218722   6.649   6.678  15.852 -0.1433  0.1618  0.3756
  156DOPC   C2218723   6.804   6.494  15.792 -0.4649 -0.0870 -0.7741
  156DOPC   H2R18724   6.746   6.407  15.831  0.8839 -0.7213 -0.1329
  156DOPC   H2S18725   6.908   6.468  15.819 -1.1813 -1.2599  1.0919
  156DOPC    C318726   6.925   6.897  15.907 -0.2853 -0.1437 -0.0160
  156DOPC    HX18727   7.031   6.866  15.906 -0.4826 -0.9534  1.3952
  156DOPC    HY18728   6.930   7.000  15.948  0.1977 -0.4420  0.6749
  156DOPC   O3118729   6.872   6.890  15.776 -0.0181 -0.3348  0.9553
  156DOPC   C3118730   6.784   6.979  15.740 -0.2203  0.0898  0.5548
  156DOPC   O3218731   6.733   7.068  15.805  0.1446  0.0947 -0.2024
  156DOPC   C3218732   6.764   6.960  15.588  0.8154  0.4310  0.2057
  156DOPC   H2X18733   6.859   6.958  15.531 -0.2767  0.2377 -1.6710
  156DOPC   H2Y18734   6.716   6.860  15.581 -0.9407  1.2092  0.3850
  156DOPC   C2318735   6.798   6.505  15.638 -0.0045 -0.1112 -0.1947
  156DOPC   H3R18736   6.693   6.526  15.609 -1.0210 -0.1034  3.0730
  156DOPC   H3S18737   6.816   6.401  15.603 -3.4763 -0.8231 -0.2135
  156DOPC   C2418738   6.910   6.596  15.577  0.2876  0.8223 -0.2180
  156DOPC   H4R18739   7.004   6.554  15.616 -0.2690  0.2359  0.5248
  156DOPC   H4S18740   6.900   6.702  15.608 -1.7501  0.7683 -0.5303
  156DOPC   C2518741   6.892   6.596  15.421  0.0229  0.1240  0.2922
  156DOPC   H5R18742   6.790   6.621  15.383  0.4645 -0.4903 -1.3826
  156DOPC   H5S18743   6.915   6.492  15.390  1.2988  0.7953 -1.1218
  156DOPC   C2618744   7.002   6.671  15.356  0.5754  0.4799 -0.3213
  156DOPC   H6R18745   7.104   6.648  15.393  1.6641  1.6882 -2.3602
  156DOPC   H6S18746   6.995   6.781  15.371 -0.2830  0.2322  1.2871
  156DOPC   C2718747   7.005   6.634  15.203 -0.2858 -0.3188  0.3835
  156DOPC   H7R18748   6.906   6.628  15.153 -0.3299  1.4880  0.1995
  156DOPC   H7S18749   7.049   6.532  15.200 -0.3107 -0.3093 -1.1852
  156DOPC   C2818750   7.077   6.740  15.117 -0.6369 -0.3806  0.0308
  156DOPC   H8R18751   7.157   6.790  15.176 -0.7612  0.5273 -0.5650
  156DOPC   H8S18752   7.004   6.818  15.087  0.9522  1.2139  0.1168
  156DOPC   C2918753   7.128   6.667  14.995  0.3622 -0.4726  0.0032
  156DOPC   H9R18754   7.185   6.576  15.022  2.6030  1.1725  1.2278
  156DOPC  C21018755   7.087   6.691  14.869  0.1750  0.6457  0.1792
  156DOPC  H10R18756   7.115   6.617  14.793  2.5648  1.0867  0.5668
  156DOPC  C21118757   6.994   6.800  14.819 -0.5313  0.4911  0.0912
  156DOPC  H11R18758   7.004   6.817  14.709  4.9589 -1.7036 -0.0751
  156DOPC  H11S18759   7.018   6.895  14.871  2.3192 -0.0165 -0.1232
  156DOPC  C21218760   6.842   6.764  14.853  0.0958  0.1501  0.0667
  156DOPC  H12R18761   6.778   6.854  14.844  0.5651  0.5233  0.3921
  156DOPC  H12S18762   6.844   6.733  14.959 -1.2979 -3.3841 -0.8017
  156DOPC  C21318763   6.793   6.663  14.749  0.3345 -0.5220  0.1431
  156DOPC  H13R18764   6.850   6.569  14.769 -0.4172 -0.9772  0.1988
  156DOPC  H13S18765   6.805   6.701  14.645 -0.8466 -0.3102  0.0730
  156DOPC  C21418766   6.643   6.634  14.773  0.2931 -0.1803 -0.1039
  156DOPC  H14R18767   6.624   6.666  14.877 -2.6334  2.4140 -1.2947
  156DOPC  H14S18768   6.615   6.529  14.751 -0.5089  0.1531 -0.7219
  156DOPC  C21518769   6.551   6.722  14.683  0.0361 -0.0829 -0.0038
  156DOPC  H15R18770   6.580   6.828  14.671 -2.2253  0.3982 -2.0565
  156DOPC  H15S18771   6.450   6.719  14.731 -0.1691  0.9932 -0.3343
  156DOPC  C21618772   6.538   6.661  14.543  0.4234 -1.1213  0.6631
  156DOPC  H16R18773   6.524   6.551  14.547  0.8406 -1.1419  2.8899
  156DOPC  H16S18774   6.616   6.698  14.473 -0.9386  1.6430  0.4754
  156DOPC  C21718775   6.401   6.698  14.470 -0.0324 -0.2424  0.2656
  156DOPC  H17R18776   6.396   6.807  14.451  2.0249 -0.0066  0.8048
  156DOPC  H17S18777   6.328   6.663  14.547 -1.1048  1.3700  0.0314
  156DOPC  C21818778   6.381   6.619  14.334  0.2480 -0.2761 -0.4527
  156DOPC  H18R18779   6.452   6.534  14.322  0.6287 -0.4701  2.5727
  156DOPC  H18S18780   6.386   6.681  14.242 -0.3159  0.3611 -0.0651
  156DOPC  H18T18781   6.277   6.580  14.335  0.0069  0.0034 -3.7143
  156DOPC   C3318782   6.668   7.068  15.523  0.5197 -0.3955 -0.5383
  156DOPC   H3X18783   6.711   7.170  15.525  2.4618 -1.1639 -0.7181
  156DOPC   H3Y18784   6.582   7.068  15.593  0.9820  0.3931  0.0512
  156DOPC   C3418785   6.633   7.026  15.380  0.3764  0.5957  0.0775
  156DOPC   H4X18786   6.531   7.064  15.359 -0.0942 -0.0621  1.1004
  156DOPC   H4Y18787   6.622   6.916  15.369  0.5867  0.6460 -0.6664
  156DOPC   C3518788   6.745   7.089  15.291  0.3021 -0.1049 -0.3730
  156DOPC   H5X18789   6.830   7.046  15.348 -0.7027  1.1477  2.2201
  156DOPC   H5Y18790   6.749   7.199  15.310 -4.1660  0.1187  0.3980
  156DOPC   C3618791   6.736   7.059  15.140  0.2700  0.2032  0.2636
  156DOPC   H6X18792   6.754   6.950  15.123 -2.8433 -0.3261 -0.0815
  156DOPC   H6Y18793   6.638   7.086  15.097  1.0196  0.7397 -1.1760
  156DOPC   C3718794   6.849   7.125  15.055  1.1130 -0.2545 -0.8522
  156DOPC   H7X18795   6.941   7.084  15.101  1.5542 -0.0414 -1.5346
  156DOPC   H7Y18796   6.838   7.087  14.951  0.3183 -1.1481 -0.4562
  156DOPC   C3818797   6.838   7.281  15.041 -0.2953 -0.0811 -0.2111
  156DOPC   H8X18798   6.864   7.315  15.143 -0.4777 -0.8391  0.0907
  156DOPC   H8Y18799   6.739   7.323  15.012  0.3793  1.3752 -0.4970
  156DOPC   C3918800   6.943   7.329  14.949  0.1749  0.8156  0.3761
  156DOPC   H9X18801   7.044   7.300  14.983  0.1681  0.3420  0.0044
  156DOPC  C31018802   6.937   7.397  14.832 -0.3120  0.0637  0.0645
  156DOPC  H10X18803   7.026   7.410  14.769 -1.2425  0.6627 -1.1768
  156DOPC  C31118804   6.811   7.452  14.764 -0.1271  0.6208 -0.1723
  156DOPC  H11X18805   6.728   7.466  14.836 -0.0611 -2.1605  0.5668
  156DOPC  H11Y18806   6.778   7.374  14.692 -1.1343  0.8442  0.0335
  156DOPC  C31218807   6.836   7.577  14.680 -0.7383  0.4246  0.2138
  156DOPC  H12X18808   6.908   7.544  14.602 -0.4777  0.8629  0.2684
  156DOPC  H12Y18809   6.874   7.667  14.732 -1.3873  1.4351 -0.9992
  156DOPC  C31318810   6.709   7.624  14.609  0.4560 -0.0162 -0.3004
  156DOPC  H13X18811   6.661   7.535  14.562 -2.3494  1.5991 -0.6592
  156DOPC  H13Y18812   6.624   7.666  14.666 -1.2057  1.4096 -3.5636
  156DOPC  C31418813   6.737   7.725  14.495 -0.1694 -0.2206 -0.6056
  156DOPC  H14X18814   6.797   7.807  14.540 -1.1950  0.6136 -0.7010
  156DOPC  H14Y18815   6.796   7.684  14.411 -1.2437 -1.1702 -0.9248
  156DOPC  C31518816   6.610   7.786  14.430 -0.2373 -0.0522 -0.3189
  156DOPC  H15X18817   6.547   7.840  14.503 -0.5780  0.8928 -1.2773
  156DOPC  H15Y18818   6.556   7.708  14.372  1.6065 -0.8217 -1.1077
  156DOPC  C31618819   6.655   7.900  14.334  0.0032  0.5346  0.3017
  156DOPC  H16X18820   6.709   7.988  14.376 -1.6379  1.1669  1.1769
  156DOPC  H16Y18821   6.725   7.850  14.264 -1.3424 -0.7983 -0.1345
  156DOPC  C31718822   6.539   7.942  14.244  0.5111  0.0127  0.0050
  156DOPC  H17X18823   6.501   7.858  14.182  0.2249  1.4332 -1.8648
  156DOPC  H17Y18824   6.464   7.969  14.320  1.9578 -0.9890  1.8652
  156DOPC  C31818825   6.564   8.055  14.146  0.1794  0.4129 -0.6352
  156DOPC  H18X18826   6.632   8.127  14.197 -1.3533  2.4925 -1.3857
  156DOPC  H18Y18827   6.613   8.027  14.051  0.2417 -0.3815 -0.3722
  156DOPC  H18Z18828   6.470   8.110  14.123 -0.6690 -0.9829 -0.5857
  157DOPC     N18829   4.903   2.801  16.535  0.3202  0.2666  0.6873
  157DOPC   C1218830   4.918   2.883  16.665 -0.3818  0.4246 -0.0938
  157DOPC  H12A18831   4.916   2.812  16.746  0.6647 -1.2374 -1.4548
  157DOPC  H12B18832   4.829   2.941  16.683 -0.4497  0.2477  0.1327
  157DOPC   C1318833   5.021   2.714  16.511  0.2670  0.1542  0.7089
  157DOPC  H13A18834   5.011   2.634  16.582 -1.6495  1.8011  2.4265
  157DOPC  H13B18835   5.023   2.679  16.409  2.3085 -1.1719  1.1501
  157DOPC  H13C18836   5.107   2.780  16.521 -0.2961  1.2166 -1.0331
  157DOPC   C1418837   4.883   2.882  16.411  0.0559  0.1778  0.4082
  157DOPC  H14A18838   4.824   2.970  16.429 -0.0892  1.1118 -3.5981
  157DOPC  H14B18839   4.976   2.932  16.385 -1.0091  1.4438 -1.1269
  157DOPC  H14C18840   4.818   2.839  16.336 -2.1188 -0.3853  2.5105
  157DOPC   C1518841   4.785   2.719  16.534  0.5291  0.8251 -0.8211
  157DOPC  H15A18842   4.790   2.651  16.618  0.2365  1.0581 -0.6143
  157DOPC  H15B18843   4.780   2.664  16.441 -1.9986  1.5287 -1.1782
  157DOPC  H15C18844   4.695   2.776  16.545 -0.2992 -0.6309  0.3650
  157DOPC   C1118845   5.023   2.985  16.676  0.2996  0.0137 -0.1048
  157DOPC  H11A18846   5.004   3.076  16.615 -1.9655 -0.0260  0.4717
  157DOPC  H11B18847   5.024   3.024  16.780  0.1628  2.3382 -0.9159
  157DOPC     P18848   5.286   3.001  16.653  0.4204 -0.6324 -0.2766
  157DOPC   O1318849   5.390   2.900  16.619  0.0862  0.0910 -0.2033
  157DOPC   O1418850   5.303   3.074  16.782  0.2053 -0.6390  0.5671
  157DOPC   O1218851   5.149   2.924  16.649  0.0876  0.0862  0.0077
  157DOPC   O1118852   5.279   3.114  16.541 -0.3031 -0.0376  0.1923
  157DOPC    C118853   5.223   3.066  16.415 -0.6438 -0.5682  0.2504
  157DOPC    HA18854   5.130   3.124  16.393 -0.5354  0.0750  1.4130
  157DOPC    HB18855   5.180   2.964  16.422 -0.0297 -0.7303  1.9835
  157DOPC    C218856   5.322   3.074  16.298 -0.3285  0.0295 -0.1793
  157DOPC    HS18857   5.267   3.055  16.203 -0.7906  1.7651 -0.2972
  157DOPC   O2118858   5.429   2.980  16.308  0.0079 -0.0126 -0.0345
  157DOPC   C2118859   5.402   2.856  16.289 -0.4194 -0.2665 -0.0999
  157DOPC   O2218860   5.288   2.806  16.275 -0.5459  1.2312  0.5272
  157DOPC   C2218861   5.527   2.761  16.316 -0.0327 -0.4774  0.4915
  157DOPC   H2R18862   5.508   2.715  16.415 -3.9502 -0.4457 -0.1038
  157DOPC   H2S18863   5.617   2.824  16.294  0.0578 -1.3140 -1.7694
  157DOPC    C318864   5.383   3.217  16.297  0.3128 -0.4274  0.3240
  157DOPC    HX18865   5.430   3.231  16.397  0.2930  1.4694  0.1209
  157DOPC    HY18866   5.304   3.291  16.272  0.0561 -0.3960  1.2187
  157DOPC   O3118867   5.484   3.234  16.193 -0.2528  0.3999 -0.1180
  157DOPC   C3118868   5.450   3.257  16.074  0.2669  0.2698  0.3631
  157DOPC   O3218869   5.336   3.270  16.034 -0.0516 -0.0285  0.8101
  157DOPC   C3218870   5.568   3.237  15.967  0.1534  0.7023  0.2312
  157DOPC   H2X18871   5.507   3.216  15.876 -3.1015  0.1330  2.3887
  157DOPC   H2Y18872   5.618   3.333  15.941  2.6117 -0.4026  0.5436
  157DOPC   C2318873   5.524   2.651  16.208  0.0169 -0.1360  0.0853
  157DOPC   H3R18874   5.423   2.606  16.209 -0.1271  0.1820 -0.1335
  157DOPC   H3S18875   5.596   2.571  16.236  0.3743  0.7692  1.9233
  157DOPC   C2418876   5.555   2.699  16.063  0.6190  0.3335  0.6414
  157DOPC   H4R18877   5.654   2.746  16.079  0.5247  0.3443  1.2160
  157DOPC   H4S18878   5.484   2.780  16.035 -0.6349 -0.9330  0.0654
  157DOPC   C2518879   5.543   2.584  15.961 -0.4350 -0.2716  0.1113
  157DOPC   H5R18880   5.443   2.536  15.952 -0.0627 -0.9064 -0.7292
  157DOPC   H5S18881   5.604   2.501  16.003 -0.5744 -0.9618 -1.0113
  157DOPC   C2618882   5.604   2.628  15.827  0.6916  0.2988 -0.0303
  157DOPC   H6R18883   5.713   2.642  15.843  1.2660 -1.2901 -2.0663
  157DOPC   H6S18884   5.557   2.727  15.809 -0.5785  0.2088  2.3155
  157DOPC   C2718885   5.598   2.522  15.724 -0.0055 -0.4036  0.6988
  157DOPC   H7R18886   5.490   2.532  15.700 -0.1343  0.9064  1.7138
  157DOPC   H7S18887   5.617   2.418  15.758  1.1893 -0.8674 -1.2184
  157DOPC   C2818888   5.703   2.563  15.606  0.6024  0.7071 -1.3829
  157DOPC   H8R18889   5.788   2.609  15.660  0.5978  0.4630 -1.1650
  157DOPC   H8S18890   5.664   2.643  15.540 -0.2361 -1.4581 -3.6541
  157DOPC   C2918891   5.726   2.444  15.514  0.3812  0.7700 -0.0816
  157DOPC   H9R18892   5.639   2.378  15.496 -0.1238  0.8207  1.8529
  157DOPC  C21018893   5.844   2.398  15.470 -1.1977  0.1652 -0.2668
  157DOPC  H10R18894   5.855   2.316  15.398 -0.6709 -1.3777  1.4881
  157DOPC  C21118895   5.984   2.454  15.498  0.9690  0.1754 -0.0818
  157DOPC  H11R18896   5.981   2.539  15.569 -0.6204  1.4868 -1.6135
  157DOPC  H11S18897   6.029   2.496  15.405  0.8262  0.9986  0.2150
  157DOPC  C21218898   6.089   2.354  15.549 -0.0039  0.5938 -0.0371
  157DOPC  H12R18899   6.135   2.303  15.462 -1.3203  0.9122 -0.9505
  157DOPC  H12S18900   6.046   2.267  15.602 -0.0159 -1.2646 -2.8889
  157DOPC  C21318901   6.204   2.420  15.625  0.4312 -0.7957 -0.3381
  157DOPC  H13R18902   6.247   2.505  15.568  2.5141 -0.2197  1.8791
  157DOPC  H13S18903   6.277   2.340  15.651  1.7898  0.0271 -1.4531
  157DOPC  C21418904   6.148   2.473  15.762 -0.0935 -0.1981  0.0763
  157DOPC  H14R18905   6.071   2.552  15.747 -1.2368 -1.2030  0.5314
  157DOPC  H14S18906   6.233   2.522  15.815 -0.3520  0.6105 -0.2397
  157DOPC  C21518907   6.097   2.359  15.860  0.0790  0.6119  0.4176
  157DOPC  H15R18908   6.178   2.284  15.879 -0.8579 -1.3821 -2.7215
  157DOPC  H15S18909   6.014   2.296  15.822  0.2454  0.1851  0.7514
  157DOPC  C21618910   6.059   2.411  15.998  0.1698  0.5828 -0.6834
  157DOPC  H16R18911   6.149   2.460  16.041 -0.6952  0.4874  1.3863
  157DOPC  H16S18912   6.040   2.326  16.068  1.2402  0.7182 -0.2053
  157DOPC  C21718913   5.947   2.510  15.998 -0.4078  0.0826  0.0932
  157DOPC  H17R18914   5.860   2.476  15.937 -0.0372 -0.1763 -0.2956
  157DOPC  H17S18915   5.971   2.598  15.934 -0.5152 -0.3588 -0.5608
  157DOPC  C21818916   5.903   2.555  16.136  0.2167  0.4682 -0.4968
  157DOPC  H18R18917   5.806   2.610  16.133  1.3363  2.8154  2.0332
  157DOPC  H18S18918   5.974   2.618  16.193 -0.5757  2.1399 -1.2493
  157DOPC  H18T18919   5.888   2.465  16.198  0.7075 -1.2844 -2.7647
  157DOPC   C3318920   5.662   3.121  15.990  0.3646 -0.1377 -0.1360
  157DOPC   H3X18921   5.593   3.034  15.984 -0.3854  0.5336 -2.5903
  157DOPC   H3Y18922   5.708   3.143  16.089  0.9354 -0.3202 -0.3528
  157DOPC   C3418923   5.776   3.103  15.892  0.1465 -0.3831  0.1335
  157DOPC   H4X18924   5.795   2.994  15.889 -0.4489 -0.5042  0.6998
  157DOPC   H4Y18925   5.854   3.166  15.940 -0.7606  0.7908  0.1263
  157DOPC   C3518926   5.735   3.150  15.749 -0.3578  0.4298 -0.0031
  157DOPC   H5X18927   5.732   3.261  15.751  1.7200  0.5569 -0.8227
  157DOPC   H5Y18928   5.638   3.107  15.718 -0.1807 -0.8857  1.2147
  157DOPC   C3618929   5.847   3.123  15.648 -0.5312 -0.4681  0.4436
  157DOPC   H6X18930   5.812   3.189  15.566  1.4429  1.3205  0.9707
  157DOPC   H6Y18931   5.944   3.151  15.693 -1.0958  2.8157 -0.1579
  157DOPC   C3718932   5.847   2.979  15.592  0.4685 -0.4546 -0.2533
  157DOPC   H7X18933   5.871   2.913  15.678  2.3095  0.7984  0.2620
  157DOPC   H7Y18934   5.747   2.943  15.561 -0.2775  0.1750  1.3330
  157DOPC   C3818935   5.946   2.977  15.480  1.0137  0.5254  0.1870
  157DOPC   H8X18936   6.035   3.025  15.525  1.6744 -1.0608  0.6367
  157DOPC   H8Y18937   5.916   3.023  15.383  0.7232 -0.1135 -0.0341
  157DOPC   C3918938   5.994   2.838  15.456  0.4817  0.3759 -0.2517
  157DOPC   H9X18939   5.912   2.771  15.426 -1.5148  1.9376  1.3904
  157DOPC  C31018940   6.122   2.789  15.467 -0.3172 -0.7845 -0.1630
  157DOPC  H10X18941   6.141   2.684  15.444 -0.1713 -1.1568  1.5559
  157DOPC  C31118942   6.242   2.865  15.518  0.1709 -0.1821  0.3277
  157DOPC  H11X18943   6.229   2.975  15.515  1.4272 -0.0397 -1.0641
  157DOPC  H11Y18944   6.329   2.829  15.460 -0.8133 -0.8283 -0.7919
  157DOPC  C31218945   6.279   2.832  15.662  0.0182  0.5681 -0.2500
  157DOPC  H12X18946   6.378   2.874  15.692  1.6698 -2.2426 -1.3703
  157DOPC  H12Y18947   6.294   2.723  15.675  0.8004  0.6862 -0.0570
  157DOPC  C31318948   6.179   2.882  15.765 -0.0017  0.4947  0.4001
  157DOPC  H13X18949   6.154   2.987  15.736 -0.4455  0.3981  0.4206
  157DOPC  H13Y18950   6.097   2.808  15.756  1.7567 -1.6499  1.2204
  157DOPC  C31418951   6.238   2.881  15.910  0.4127  0.2327  0.5702
  157DOPC  H14X18952   6.252   2.772  15.928 -0.7603  0.2758  1.9170
  157DOPC  H14Y18953   6.331   2.941  15.909 -0.7838  2.2589 -1.3825
  157DOPC  C31518954   6.155   2.938  16.029 -0.0761  0.6585 -0.0612
  157DOPC  H15X18955   6.198   2.897  16.124 -2.3643  0.3783  0.9156
  157DOPC  H15Y18956   6.055   2.890  16.026 -0.7556  2.0214  0.1428
  157DOPC  C31618957   6.153   3.091  16.026  0.3434  0.7476 -0.8987
  157DOPC  H16X18958   6.257   3.129  16.032  0.9751 -1.0075 -0.0351
  157DOPC  H16Y18959   6.103   3.113  15.929 -0.8621  1.0053 -0.2433
  157DOPC  C31718960   6.066   3.156  16.139 -0.2475 -0.1350 -0.1535
  157DOPC  H17X18961   6.053   3.264  16.117  0.2158 -0.1232 -0.3826
  157DOPC  H17Y18962   5.969   3.104  16.134 -0.3754  0.1978 -1.3103
  157DOPC  C31818963   6.127   3.142  16.279 -0.0009 -0.3201 -0.0533
  157DOPC  H18X18964   6.205   3.221  16.282  0.3733 -0.6039 -1.6976
  157DOPC  H18Y18965   6.056   3.176  16.358  0.6440 -0.4948  0.6204
  157DOPC  H18Z18966   6.165   3.039  16.296  0.5729  0.2042  2.2285
  158DOPC     N18967   5.437   8.012  16.117 -0.0419  0.3725 -1.1703
  158DOPC   C1218968   5.486   8.071  15.988  0.0156  0.0042 -0.3859
  158DOPC  H12A18969   5.394   8.090  15.934  0.3203  1.3816 -0.4527
  158DOPC  H12B18970   5.538   7.994  15.933 -1.7862 -2.0432  0.5923
  158DOPC   C1318971   5.356   8.116  16.191 -0.1237 -0.2742  0.4226
  158DOPC  H13A18972   5.333   8.086  16.292 -0.7424 -1.7969 -0.1328
  158DOPC  H13B18973   5.411   8.209  16.195 -1.4300  0.5465 -0.2031
  158DOPC  H13C18974   5.264   8.130  16.136  0.1296 -0.3604 -0.0349
  158DOPC   C1418975   5.545   7.968  16.210 -0.5541 -0.0268 -0.0060
  158DOPC  H14A18976   5.615   8.049  16.226  0.8208 -1.3466  0.8823
  158DOPC  H14B18977   5.520   7.950  16.313  1.0145  0.6770  0.5235
  158DOPC  H14C18978   5.590   7.875  16.180 -1.5280 -0.3727 -0.4803
  158DOPC   C1518979   5.341   7.899  16.083 -0.6558 -0.0170  0.0025
  158DOPC  H15A18980   5.394   7.824  16.026 -1.3491 -0.2820 -0.2998
  158DOPC  H15B18981   5.256   7.939  16.030 -2.3013  0.1842  2.6199
  158DOPC  H15C18982   5.312   7.849  16.174 -0.6460 -3.0269 -1.5236
  158DOPC   C1118983   5.571   8.198  15.997 -0.9251  0.4072  0.5198
  158DOPC  H11A18984   5.671   8.185  16.044  0.2908  0.3604 -1.9005
  158DOPC  H11B18985   5.593   8.226  15.892 -0.6002 -0.2579  0.4073
  158DOPC     P18986   5.546   8.449  16.035 -0.3319 -0.2886  0.2001
  158DOPC   O1318987   5.696   8.463  16.035  0.1686 -0.5364 -0.2306
  158DOPC   O1418988   5.473   8.524  16.138  0.0671 -0.2632  0.4477
  158DOPC   O1218989   5.503   8.303  16.055  0.2939 -0.2232 -0.0335
  158DOPC   O1118990   5.485   8.501  15.895 -0.2726  0.0144 -0.2817
  158DOPC    C118991   5.495   8.630  15.850 -0.1129  0.0958 -1.0682
  158DOPC    HA18992   5.592   8.679  15.875  0.8502 -1.9124 -0.6286
  158DOPC    HB18993   5.422   8.699  15.897  1.4630  1.9867 -1.2696
  158DOPC    C218994   5.460   8.647  15.704 -0.2766  0.0663 -0.3735
  158DOPC    HS18995   5.481   8.749  15.664  1.3723 -0.8075 -1.8869
  158DOPC   O2118996   5.329   8.609  15.671 -0.1714  0.5072 -0.1903
  158DOPC   C2118997   5.246   8.705  15.670 -0.1302 -0.4575 -0.4637
  158DOPC   O2218998   5.270   8.821  15.695 -0.3083 -0.0194  0.0936
  158DOPC   C2218999   5.109   8.666  15.622 -0.9204  0.0766 -0.2694
  158DOPC   H2R19000   5.053   8.759  15.596 -3.3521 -1.0213  0.7180
  158DOPC   H2S19001   5.059   8.611  15.705  0.4774  0.3335  0.7674
  158DOPC    C319002   5.547   8.545  15.624 -0.3778  0.2625  0.1538
  158DOPC    HX19003   5.537   8.444  15.668  1.2522 -1.3474 -2.8454
  158DOPC    HY19004   5.653   8.567  15.648 -0.1344 -1.4823  0.8220
  158DOPC   O3119005   5.529   8.553  15.479 -0.4334 -0.1547  0.7160
  158DOPC   C3119006   5.442   8.464  15.438 -0.5410  0.6657 -0.3076
  158DOPC   O3219007   5.398   8.373  15.509  0.5011 -0.5222 -0.4015
  158DOPC   C3219008   5.403   8.480  15.293 -0.2874 -0.1706 -0.2027
  158DOPC   H2X19009   5.333   8.565  15.277  0.1079  0.0111 -1.0656
  158DOPC   H2Y19010   5.497   8.511  15.242 -0.8409 -0.9854 -1.8113
  158DOPC   C2319011   5.117   8.571  15.501 -0.1613  0.1885  0.2620
  158DOPC   H3R19012   5.190   8.488  15.516 -0.2192 -0.0534 -0.6896
  158DOPC   H3S19013   5.156   8.631  15.416 -0.5468 -1.0187 -0.8007
  158DOPC   C2419014   4.990   8.491  15.465  0.0114 -1.0732 -0.2693
  158DOPC   H4R19015   4.945   8.429  15.545 -1.2645 -1.3754 -1.1845
  158DOPC   H4S19016   5.010   8.434  15.371 -1.1745 -0.4955 -0.8971
  158DOPC   C2519017   4.886   8.594  15.408 -0.7251  0.3082  0.3858
  158DOPC   H5R19018   4.940   8.652  15.329 -1.5113 -0.6871 -0.9370
  158DOPC   H5S19019   4.871   8.659  15.497 -0.2670 -2.1809  2.3808
  158DOPC   C2619020   4.759   8.538  15.364 -0.1970  0.2296  0.2164
  158DOPC   H6R19021   4.774   8.459  15.287  2.3425  0.3053  0.5558
  158DOPC   H6S19022   4.698   8.617  15.315  0.9130  0.5394 -0.7118
  158DOPC   C2719023   4.676   8.475  15.475  0.6871  0.5002 -0.0837
  158DOPC   H7R19024   4.661   8.557  15.549  1.3469  0.1141  0.4906
  158DOPC   H7S19025   4.733   8.395  15.527 -0.9477 -0.0171  0.9655
  158DOPC   C2819026   4.537   8.430  15.429 -0.5247 -0.1525  0.0291
  158DOPC   H8R19027   4.559   8.345  15.360  0.4243 -1.8760  2.3163
  158DOPC   H8S19028   4.493   8.518  15.379 -0.6034 -0.1874  0.0363
  158DOPC   C2919029   4.461   8.382  15.544 -0.2056  0.1679 -0.2935
  158DOPC   H9R19030   4.507   8.310  15.613 -0.1918 -1.2584 -1.7362
  158DOPC  C21019031   4.342   8.423  15.585  0.8404  0.5118  0.4391
  158DOPC  H10R19032   4.319   8.388  15.686 -0.6667 -0.9994 -0.3708
  158DOPC  C21119033   4.252   8.511  15.503 -0.7010 -0.2753 -0.0765
  158DOPC  H11R19034   4.244   8.474  15.399  1.2171  0.1455 -0.4244
  158DOPC  H11S19035   4.286   8.617  15.492 -0.0702 -0.4658 -0.0032
  158DOPC  C21219036   4.117   8.513  15.576  0.4995  0.4161 -0.1815
  158DOPC  H12R19037   4.058   8.585  15.515 -0.5264  0.5581  0.9533
  158DOPC  H12S19038   4.128   8.541  15.683 -1.2225 -1.3066  0.4910
  158DOPC  C21319039   4.034   8.385  15.569  0.2542 -0.3688 -0.5058
  158DOPC  H13R19040   4.090   8.306  15.624  2.6454  0.1346 -2.0355
  158DOPC  H13S19041   4.019   8.341  15.468  2.1570  0.1705 -1.0673
  158DOPC  C21419042   3.897   8.401  15.641 -0.0590  0.5615 -0.6610
  158DOPC  H14R19043   3.845   8.487  15.593 -0.5947 -1.0655 -3.1928
  158DOPC  H14S19044   3.921   8.426  15.746  1.7879  0.4410 -1.0280
  158DOPC  C21519045   3.815   8.272  15.648 -0.0613 -0.0661  0.2109
  158DOPC  H15R19046   3.882   8.187  15.677  0.2738  0.2298  0.3084
  158DOPC  H15S19047   3.765   8.245  15.553 -2.1999 -1.2659  1.5992
  158DOPC  C21619048   3.689   8.286  15.741 -0.5411 -0.8480 -0.8128
  158DOPC  H16R19049   3.637   8.371  15.691 -0.0790  1.1103  1.7921
  158DOPC  H16S19050   3.729   8.322  15.839  0.0001 -3.1398 -0.1309
  158DOPC  C21719051   3.587   8.174  15.732 -0.2979 -0.9153 -0.3667
  158DOPC  H17R19052   3.639   8.081  15.761 -0.1884 -1.2280 -1.4989
  158DOPC  H17S19053   3.546   8.161  15.629 -3.9449  0.9965  0.6431
  158DOPC  C21819054   3.463   8.202  15.827  0.1307  0.1519  0.5374
  158DOPC  H18R19055   3.398   8.261  15.759 -0.0122 -1.4743 -0.7852
  158DOPC  H18S19056   3.486   8.252  15.924 -0.3122  0.8622  0.2799
  158DOPC  H18T19057   3.428   8.099  15.846  0.0933 -1.0821 -4.7289
  158DOPC   C3319058   5.345   8.353  15.229  0.0778 -0.1163 -0.1291
  158DOPC   H3X19059   5.251   8.329  15.283 -0.3224  1.6160  0.0207
  158DOPC   H3Y19060   5.423   8.274  15.239  0.9855  0.6505 -0.9586
  158DOPC   C3419061   5.307   8.374  15.085  0.2174  0.8193  0.3975
  158DOPC   H4X19062   5.382   8.424  15.019  2.3619 -1.8498  0.6292
  158DOPC   H4Y19063   5.214   8.434  15.076  0.0506  0.3204 -1.9450
  158DOPC   C3519064   5.272   8.236  15.009 -0.7358 -0.9770  0.4770
  158DOPC   H5X19065   5.191   8.251  14.934 -0.0763  0.5837  0.0293
  158DOPC   H5Y19066   5.246   8.166  15.091  1.4414  0.3546  2.4628
  158DOPC   C3619067   5.401   8.188  14.931  0.3048  0.3685 -0.2004
  158DOPC   H6X19068   5.451   8.259  14.863  2.2484 -0.7383 -0.0023
  158DOPC   H6Y19069   5.480   8.153  15.001  0.1627  2.2399  0.9502
  158DOPC   C3719070   5.372   8.061  14.838  0.3245  0.2272  0.2238
  158DOPC   H7X19071   5.286   8.094  14.776  1.1926  1.7124 -0.2256
  158DOPC   H7Y19072   5.460   8.032  14.776 -0.4801 -1.9129 -0.0234
  158DOPC   C3819073   5.346   7.928  14.920 -0.5465  0.2416 -0.2568
  158DOPC   H8X19074   5.320   7.849  14.846 -2.6773  1.1308 -0.5364
  158DOPC   H8Y19075   5.264   7.949  14.992 -0.4362  0.1619 -0.1079
  158DOPC   C3919076   5.473   7.888  14.984  0.2359  0.1827 -0.2338
  158DOPC   H9X19077   5.571   7.911  14.938  0.4214  0.6750  0.3988
  158DOPC  C31019078   5.476   7.820  15.097  0.0881 -0.6523  0.2337
  158DOPC  H10X19079   5.576   7.780  15.120  1.6871  1.9596 -1.6309
  158DOPC  C31119080   5.356   7.767  15.178  0.2290 -0.4317  0.0718
  158DOPC  H11X19081   5.388   7.671  15.224 -0.5915 -0.5781  0.3501
  158DOPC  H11Y19082   5.276   7.741  15.105 -0.4466  1.2026  0.2051
  158DOPC  C31219083   5.294   7.859  15.285 -0.3546  0.0981  0.4051
  158DOPC  H12X19084   5.202   7.813  15.328  0.2924 -3.3319 -1.4829
  158DOPC  H12Y19085   5.268   7.951  15.229 -1.1991 -0.3405  0.0531
  158DOPC  C31319086   5.396   7.896  15.395  0.5496 -0.5744  0.8752
  158DOPC  H13X19087   5.423   7.804  15.450  0.4893 -0.7708  0.5787
  158DOPC  H13Y19088   5.490   7.928  15.347 -0.1306  0.5499  0.2418
  158DOPC  C31419089   5.361   8.014  15.477 -0.5899 -0.5795  0.6688
  158DOPC  H14X19090   5.449   8.059  15.529  1.1883 -1.7521 -1.1531
  158DOPC  H14Y19091   5.340   8.093  15.401  0.3701 -1.6805 -0.7999
  158DOPC  C31519092   5.242   8.004  15.576  0.4718  0.1359  0.1939
  158DOPC  H15X19093   5.269   7.956  15.672 -1.2065  1.4215  1.3731
  158DOPC  H15Y19094   5.171   7.935  15.525 -0.6462  1.0339  0.4914
  158DOPC  C31619095   5.180   8.139  15.596 -0.2290  0.4028 -0.1467
  158DOPC  H16X19096   5.257   8.213  15.628  0.6560  0.0767 -1.4399
  158DOPC  H16Y19097   5.133   8.167  15.499  0.3298  0.4476 -0.4095
  158DOPC  C31719098   5.071   8.141  15.706 -0.0173 -0.3218 -0.2846
  158DOPC  H17X19099   5.045   8.246  15.732 -0.0385 -0.1313 -1.0512
  158DOPC  H17Y19100   4.987   8.092  15.652  0.6744 -0.9283 -0.8149
  158DOPC  C31819101   5.093   8.064  15.834  0.2881 -0.0101 -0.0173
  158DOPC  H18X19102   5.010   8.077  15.907  1.9769  0.8328  1.8589
  158DOPC  H18Y19103   5.112   7.959  15.803 -0.2359  0.1550 -0.9380
  158DOPC  H18Z19104   5.188   8.085  15.888  0.1834 -2.7109  1.4041
  159DOPC     N19105   7.107   3.306  16.383 -0.2508  0.2543  0.1314
  159DOPC   C1219106   7.254   3.269  16.340  0.1410 -0.0066 -0.6551
  159DOPC  H12A19107   7.320   3.338  16.390 -0.9945 -0.4582  1.6670
  159DOPC  H12B19108   7.258   3.284  16.234 -0.0401  2.0879 -0.4114
  159DOPC   C1319109   7.017   3.227  16.284  0.0942 -0.2584  0.6578
  159DOPC  H13A19110   7.043   3.122  16.293  0.9862 -0.2015 -0.9828
  159DOPC  H13B19111   6.911   3.233  16.304 -0.0689 -0.5102 -0.0954
  159DOPC  H13C19112   7.035   3.251  16.181 -1.7143 -0.3365  0.2786
  159DOPC   C1419113   7.087   3.450  16.355  0.0194 -0.2049  1.0737
  159DOPC  H14A19114   7.119   3.479  16.256  0.5598 -1.4211  0.8680
  159DOPC  H14B19115   6.981   3.467  16.369 -0.0394 -1.5198  2.4607
  159DOPC  H14C19116   7.128   3.507  16.436 -1.2078  0.7597  1.0508
  159DOPC   C1519117   7.080   3.265  16.522  0.2984  0.5038  0.4173
  159DOPC  H15A19118   6.973   3.253  16.534  0.5088 -2.8353  0.0799
  159DOPC  H15B19119   7.117   3.336  16.594 -0.2001  0.9948  0.1996
  159DOPC  H15C19120   7.130   3.172  16.545 -1.0382 -0.9126 -1.9343
  159DOPC   C1119121   7.311   3.125  16.375  0.5132 -0.6944  0.3662
  159DOPC  H11A19122   7.405   3.125  16.315 -2.1376  0.0221 -4.3586
  159DOPC  H11B19123   7.353   3.107  16.475  1.4815 -2.1868 -0.2874
  159DOPC     P19124   7.155   2.912  16.417  0.3580 -0.1483 -0.1076
  159DOPC   O1319125   7.024   2.887  16.358 -0.6612  0.5214  0.2416
  159DOPC   O1419126   7.147   2.972  16.555 -0.0751 -0.0313 -0.4578
  159DOPC   O1219127   7.229   3.018  16.320  0.3795 -0.1505 -0.3738
  159DOPC   O1119128   7.249   2.782  16.413  0.1005 -0.4540 -0.2804
  159DOPC    C119129   7.380   2.789  16.350 -0.2194  0.3258  0.4144
  159DOPC    HA19130   7.462   2.731  16.397  0.8339  1.2307 -0.2681
  159DOPC    HB19131   7.423   2.890  16.332  1.9260 -0.3973  1.1967
  159DOPC    C219132   7.376   2.721  16.203  0.3218 -0.1906 -0.2840
  159DOPC    HS19133   7.478   2.691  16.172 -0.1414 -0.6257 -1.4230
  159DOPC   O2119134   7.305   2.805  16.111  0.4148  0.3222 -0.5088
  159DOPC   C2119135   7.384   2.866  16.022  0.3203  0.2563  0.5197
  159DOPC   O2219136   7.506   2.849  16.020  0.1782  0.3578  0.6057
  159DOPC   C2219137   7.295   2.960  15.938  0.0091 -0.6767 -0.0790
  159DOPC   H2R19138   7.350   3.055  15.923  0.6605 -0.6893  1.9097
  159DOPC   H2S19139   7.210   2.981  16.006  1.3228 -0.8331  1.6882
  159DOPC    C319140   7.294   2.590  16.205 -0.2420 -0.4505 -0.1982
  159DOPC    HX19141   7.186   2.617  16.201 -0.6948 -2.2079 -1.1178
  159DOPC    HY19142   7.308   2.530  16.297 -0.3406 -1.1457 -0.6279
  159DOPC   O3119143   7.345   2.506  16.096  0.2401 -0.1373 -1.1455
  159DOPC   C3119144   7.267   2.410  16.060 -0.1942 -0.5975  0.2740
  159DOPC   O3219145   7.166   2.374  16.119 -0.2147  0.2617 -0.0885
  159DOPC   C3219146   7.334   2.355  15.934  0.1035  0.1710  0.0301
  159DOPC   H2X19147   7.369   2.440  15.872 -1.1527  0.6197 -0.0928
  159DOPC   H2Y19148   7.410   2.281  15.967 -0.4662 -0.7916 -0.7332
  159DOPC   C2319149   7.248   2.896  15.804  0.9229  0.0283  0.8532
  159DOPC   H3R19150   7.176   2.968  15.761  1.0559  0.4475  1.3231
  159DOPC   H3S19151   7.196   2.804  15.840  1.9723 -1.4281 -1.1462
  159DOPC   C2419152   7.352   2.859  15.697  0.2256  0.2506 -0.2527
  159DOPC   H4R19153   7.438   2.807  15.743 -0.4323 -3.4398 -2.7132
  159DOPC   H4S19154   7.394   2.947  15.644  1.1983 -0.8357 -1.3674
  159DOPC   C2519155   7.308   2.749  15.597  0.4639 -0.3164  0.5563
  159DOPC   H5R19156   7.298   2.653  15.653 -1.9978 -0.7376 -0.4666
  159DOPC   H5S19157   7.384   2.733  15.517 -1.3789 -1.6161 -1.0372
  159DOPC   C2619158   7.167   2.769  15.530 -0.5373 -0.4347  0.4338
  159DOPC   H6R19159   7.190   2.843  15.450  1.7802 -1.2271  0.2947
  159DOPC   H6S19160   7.084   2.800  15.597 -0.9439  2.0714 -1.1106
  159DOPC   C2719161   7.108   2.652  15.452 -0.3895  0.1398 -0.2107
  159DOPC   H7R19162   7.111   2.557  15.509  0.1061 -2.6825 -4.4842
  159DOPC   H7S19163   7.178   2.632  15.368  0.2935 -0.5176  0.5015
  159DOPC   C2819164   6.966   2.676  15.392  0.4187 -0.1426  0.3574
  159DOPC   H8R19165   6.881   2.660  15.461 -0.1981  0.9462 -0.1353
  159DOPC   H8S19166   6.956   2.599  15.312  0.5124 -0.8700  1.0278
  159DOPC   C2919167   6.952   2.812  15.318 -0.7404 -0.3033 -0.3570
  159DOPC   H9R19168   6.949   2.897  15.388  0.9393 -0.0789 -0.5120
  159DOPC  C21019169   6.973   2.841  15.187  0.2805  0.3277  0.1448
  159DOPC  H10R19170   6.957   2.942  15.147  0.5324  0.2917 -0.0536
  159DOPC  C21119171   6.996   2.740  15.078 -0.1722 -1.1039 -0.2383
  159DOPC  H11R19172   6.929   2.751  14.990  1.1188 -2.7538 -1.4920
  159DOPC  H11S19173   6.996   2.634  15.111  0.4109 -0.7307  1.0229
  159DOPC  C21219174   7.136   2.766  15.001 -0.0262  0.2172 -0.1460
  159DOPC  H12R19175   7.211   2.776  15.083 -0.1885  3.9998 -0.3036
  159DOPC  H12S19176   7.137   2.863  14.949 -2.9347 -0.7400 -2.2193
  159DOPC  C21319177   7.162   2.655  14.901 -0.3433 -0.6587 -0.7913
  159DOPC  H13R19178   7.068   2.638  14.845 -0.2915  0.8144 -1.3639
  159DOPC  H13S19179   7.180   2.558  14.953 -0.3465 -1.1500 -1.6927
  159DOPC  C21419180   7.283   2.673  14.807 -0.2639 -0.1844 -0.0612
  159DOPC  H14R19181   7.374   2.676  14.871  0.8800 -0.4685 -1.5816
  159DOPC  H14S19182   7.290   2.767  14.748  2.8304 -0.2646 -0.0232
  159DOPC  C21519183   7.311   2.560  14.709  0.6412 -0.0257 -0.0155
  159DOPC  H15R19184   7.387   2.593  14.635  0.4897  1.8886  0.6416
  159DOPC  H15S19185   7.216   2.521  14.666  0.2929  1.1428 -0.3525
  159DOPC  C21619186   7.378   2.444  14.782  0.5862  0.5584  0.3180
  159DOPC  H16R19187   7.324   2.417  14.876 -2.6975  0.3310 -1.4696
  159DOPC  H16S19188   7.475   2.484  14.816  0.2266  0.0303  2.0709
  159DOPC  C21719189   7.397   2.326  14.681 -0.3473 -0.1538 -0.1693
  159DOPC  H17R19190   7.463   2.366  14.601 -0.0723 -1.0270 -0.3944
  159DOPC  H17S19191   7.304   2.311  14.622 -0.4523  1.3486 -0.4273
  159DOPC  C21819192   7.463   2.202  14.737 -0.2074 -0.7606  0.4781
  159DOPC  H18R19193   7.404   2.166  14.824 -3.8918 -1.7070 -2.1709
  159DOPC  H18S19194   7.562   2.233  14.777 -0.1559  0.1014 -0.2732
  159DOPC  H18T19195   7.478   2.114  14.670  0.8437  0.1593 -0.5484
  159DOPC   C3319196   7.232   2.260  15.875  1.0321 -0.3770  0.4519
  159DOPC   H3X19197   7.196   2.188  15.952  1.2567  0.3496  1.2621
  159DOPC   H3Y19198   7.281   2.208  15.791 -0.5859  0.2058 -0.9065
  159DOPC   C3419199   7.105   2.323  15.816  0.5516  0.2603 -0.0165
  159DOPC   H4X19200   7.135   2.393  15.736 -1.0317  1.2695  0.2257
  159DOPC   H4Y19201   7.050   2.371  15.900  1.7264 -1.3798  1.7721
  159DOPC   C3519202   7.012   2.214  15.760 -0.0199 -0.1379  0.5567
  159DOPC   H5X19203   6.989   2.145  15.844  0.5485 -0.9050  0.0958
  159DOPC   H5Y19204   7.075   2.164  15.684 -0.6154 -1.4375  0.9004
  159DOPC   C3619205   6.890   2.269  15.683 -0.4319  0.2717  0.7290
  159DOPC   H6X19206   6.812   2.306  15.753  0.8078  0.9728  1.8062
  159DOPC   H6Y19207   6.917   2.347  15.608 -1.2080  0.4251  0.6070
  159DOPC   C3719208   6.838   2.139  15.608  0.1115 -0.0754  0.5102
  159DOPC   H7X19209   6.909   2.122  15.524 -1.1849 -0.0177 -0.6288
  159DOPC   H7Y19210   6.838   2.052  15.676  1.3447 -1.2994 -0.9697
  159DOPC   C3819211   6.689   2.147  15.551 -0.2276  0.1645 -1.2596
  159DOPC   H8X19212   6.681   2.241  15.492  0.3684  1.7451  1.0265
  159DOPC   H8Y19213   6.614   2.177  15.628 -0.8023 -0.7450 -1.4510
  159DOPC   C3919214   6.653   2.015  15.492 -0.6491 -0.5874 -0.0073
  159DOPC   H9X19215   6.682   1.935  15.561  0.1108  0.7595  1.2955
  159DOPC  C31019216   6.614   1.983  15.367 -0.2193 -0.1992  0.2586
  159DOPC  H10X19217   6.564   1.887  15.350 -0.5106 -0.3817  1.9479
  159DOPC  C31119218   6.587   2.092  15.256 -0.3086  0.2176 -0.0909
  159DOPC  H11X19219   6.647   2.085  15.163  0.4704 -2.2564  0.5298
  159DOPC  H11Y19220   6.605   2.197  15.289  2.4765 -0.8241  2.1186
  159DOPC  C31219221   6.442   2.070  15.212  0.6312 -0.7777 -0.0647
  159DOPC  H12X19222   6.389   2.074  15.309 -0.3800 -1.1839 -0.5915
  159DOPC  H12Y19223   6.417   1.970  15.170  1.7474  0.3510 -3.7242
  159DOPC  C31319224   6.397   2.189  15.135 -0.4598  0.0353  0.3853
  159DOPC  H13X19225   6.287   2.203  15.149 -0.6176 -0.6905 -0.0513
  159DOPC  H13Y19226   6.444   2.278  15.182 -1.2882 -0.5518  2.4693
  159DOPC  C31419227   6.453   2.184  14.989 -0.4262  0.0040 -0.6356
  159DOPC  H14X19228   6.559   2.150  14.987  0.7953  3.4071 -0.6682
  159DOPC  H14Y19229   6.393   2.105  14.939 -0.3208  0.0909 -0.9056
  159DOPC  C31519230   6.446   2.322  14.916  0.0775 -0.1517  0.0604
  159DOPC  H15X19231   6.488   2.318  14.813 -2.2569  0.6020 -0.9761
  159DOPC  H15Y19232   6.510   2.395  14.970  0.6373  0.0344 -0.8463
  159DOPC  C31619233   6.296   2.379  14.908 -1.0402 -0.2976 -0.4249
  159DOPC  H16X19234   6.224   2.298  14.885 -2.1342 -0.2777  2.4726
  159DOPC  H16Y19235   6.277   2.429  15.005  0.3073  2.3751 -1.4335
  159DOPC  C31719236   6.275   2.483  14.803 -0.5412  0.3731  0.3477
  159DOPC  H17X19237   6.317   2.578  14.842  1.1609 -0.3564  0.4126
  159DOPC  H17Y19238   6.323   2.445  14.710 -1.1794 -3.0972  1.2670
  159DOPC  C31819239   6.130   2.497  14.757  0.0902 -0.0366 -0.1333
  159DOPC  H18X19240   6.070   2.479  14.848  1.5860 -0.9174  0.7177
  159DOPC  H18Y19241   6.105   2.596  14.714  0.2827  0.3791  0.7068
  159DOPC  H18Z19242   6.092   2.428  14.677 -0.7424  0.4677 -0.1803
  160DOPC     N19243   0.184   7.807  16.330  0.5283  0.4489  0.0801
  160DOPC   C1219244   0.280   7.874  16.226  0.3161  0.4543 -0.1877
  160DOPC  H12A19245   0.372   7.911  16.270  0.0426  1.7955 -0.7069
  160DOPC  H12B19246   0.230   7.963  16.191  1.7675  1.8123  1.0063
  160DOPC   C1319247   0.050   7.766  16.274  0.5174  0.3000 -0.3123
  160DOPC  H13A19248   0.064   7.681  16.209  0.2762  0.0682 -0.0682
  160DOPC  H13B19249  -0.021   7.738  16.351  0.2921  2.5993  0.3982
  160DOPC  H13C19250   0.003   7.845  16.218 -2.2504 -2.9083 -2.9650
  160DOPC   C1419251   0.157   7.906  16.435 -0.6056 -0.7545 -0.0762
  160DOPC  H14A19252   0.096   7.981  16.386  0.6281 -1.8450 -3.5405
  160DOPC  H14B19253   0.101   7.864  16.518 -1.2512  1.3513  0.6241
  160DOPC  H14C19254   0.248   7.943  16.480  0.4605 -3.2613  0.0005
  160DOPC   C1519255   0.250   7.690  16.388 -0.5773 -0.4449 -0.4467
  160DOPC  H15A19256   0.179   7.632  16.445 -1.4687  0.5170 -0.5389
  160DOPC  H15B19257   0.327   7.722  16.456 -0.4892 -2.1155  0.3020
  160DOPC  H15C19258   0.307   7.629  16.320  2.3731  2.8255 -1.1907
  160DOPC   C1119259   0.324   7.782  16.106  0.2140 -0.2851 -0.8093
  160DOPC  H11A19260   0.227   7.738  16.076  0.8208 -2.7157  0.4916
  160DOPC  H11B19261   0.374   7.852  16.036  0.5357  0.3541  0.0371
  160DOPC     P19262   0.563   7.705  16.177 -0.0429  0.0697 -0.1319
  160DOPC   O1319263   0.627   7.590  16.245 -0.2120 -0.3020 -0.4719
  160DOPC   O1419264   0.588   7.831  16.245  0.0506 -0.2640 -0.8081
  160DOPC   O1219265   0.410   7.683  16.160 -0.1670 -1.1792 -0.3277
  160DOPC   O1119266   0.609   7.717  16.029 -0.5586 -0.5021  0.2770
  160DOPC    C119267   0.656   7.620  15.945  0.1407 -0.1469  0.2472
  160DOPC    HA19268   0.603   7.523  15.952 -1.3847  0.5360 -1.0400
  160DOPC    HB19269   0.763   7.606  15.970  0.7746 -0.5173 -2.3824
  160DOPC    C219270   0.641   7.659  15.796  0.3543 -0.3213  0.4819
  160DOPC    HS19271   0.640   7.565  15.737  0.5314 -0.2277  0.3284
  160DOPC   O2119272   0.748   7.748  15.749  0.2020 -0.2872  0.4279
  160DOPC   C2119273   0.858   7.688  15.721 -0.4474  0.1311  0.5686
  160DOPC   O2219274   0.880   7.570  15.724  0.5189 -0.5112 -0.3290
  160DOPC   C2219275   0.967   7.789  15.679  0.3751  0.3956  0.0973
  160DOPC   H2R19276   1.051   7.720  15.658 -0.4630 -1.0494  1.2618
  160DOPC   H2S19277   0.979   7.868  15.757 -0.8862  0.9908 -0.2760
  160DOPC    C319278   0.507   7.729  15.767 -0.1995 -0.2764 -0.5258
  160DOPC    HX19279   0.505   7.822  15.828 -1.0109  0.2706 -1.3453
  160DOPC    HY19280   0.425   7.667  15.808 -1.1667  1.1427 -0.2130
  160DOPC   O3119281   0.496   7.752  15.626 -0.4879  0.4687 -0.2123
  160DOPC   C3119282   0.524   7.876  15.581 -0.2495  0.3977  0.1301
  160DOPC   O3219283   0.553   7.964  15.654 -0.5256 -0.6106 -0.1373
  160DOPC   C3219284   0.494   7.890  15.429  0.8889  0.4575 -0.0723
  160DOPC   H2X19285   0.504   7.794  15.375  2.2880  0.4507  0.1542
  160DOPC   H2Y19286   0.386   7.914  15.424  1.5045  3.6541 -0.1975
  160DOPC   C2319287   0.927   7.858  15.550 -0.7279  0.6156 -0.4298
  160DOPC   H3R19288   0.858   7.940  15.578 -1.0911  0.6386 -1.3722
  160DOPC   H3S19289   0.876   7.780  15.490 -0.7095 -0.8681  1.3700
  160DOPC   C2419290   1.051   7.925  15.491 -0.1052  0.2514  0.1598
  160DOPC   H4R19291   1.135   7.852  15.483  1.7897  2.2578  0.6543
  160DOPC   H4S19292   1.083   8.005  15.561 -0.1441 -0.3717  0.8999
  160DOPC   C2519293   1.031   7.985  15.353  0.2543 -0.2723 -0.1389
  160DOPC   H5R19294   1.119   8.047  15.325  0.3920 -0.0468  0.7702
  160DOPC   H5S19295   0.940   8.047  15.367  1.0238  0.6936  0.7988
  160DOPC   C2619296   1.016   7.877  15.251  0.8247  0.0437 -0.0201
  160DOPC   H6R19297   0.924   7.818  15.274  0.5360 -0.1044 -1.4705
  160DOPC   H6S19298   1.109   7.818  15.239  0.4652 -0.5389 -0.0194
  160DOPC   C2719299   0.982   7.924  15.111 -0.1945 -0.4001  0.3091
  160DOPC   H7R19300   0.918   8.013  15.127  1.1701  0.7155 -0.2129
  160DOPC   H7S19301   0.914   7.859  15.052 -1.9510  1.5770  0.0262
  160DOPC   C2819302   1.113   7.971  15.043  0.3418  0.0694 -0.3728
  160DOPC   H8R19303   1.172   7.881  15.014 -0.0225 -1.2314  2.5908
  160DOPC   H8S19304   1.164   8.039  15.115 -2.2665  1.7457  0.0092
  160DOPC   C2919305   1.093   8.051  14.919 -0.0643 -0.0314  0.2162
  160DOPC   H9R19306   1.007   8.120  14.921  0.3122  0.4257  1.1822
  160DOPC  C21019307   1.153   8.042  14.803  0.6180  0.6432 -0.1138
  160DOPC  H10R19308   1.133   8.108  14.718  3.8532 -0.8761 -2.2610
  160DOPC  C21119309   1.263   7.945  14.765 -0.2080  0.8328  0.4247
  160DOPC  H11R19310   1.274   7.858  14.834  0.8369  0.5582 -0.0639
  160DOPC  H11S19311   1.364   7.990  14.766  0.2219 -0.0743  1.7903
  160DOPC  C21219312   1.247   7.873  14.628  0.0259 -0.1329  0.2129
  160DOPC  H12R19313   1.221   7.948  14.551  0.7836  0.6138  0.6678
  160DOPC  H12S19314   1.166   7.798  14.637 -0.0523 -0.3793 -1.8784
  160DOPC  C21319315   1.375   7.802  14.580 -0.4700  0.1238  0.2260
  160DOPC  H13R19316   1.410   7.723  14.650  3.1399  0.3489 -1.1393
  160DOPC  H13S19317   1.456   7.877  14.567  0.7811 -1.4977 -2.1820
  160DOPC  C21419318   1.360   7.734  14.444  0.2016  0.2966  0.2494
  160DOPC  H14R19319   1.466   7.706  14.427 -0.2112 -1.5153  0.4270
  160DOPC  H14S19320   1.307   7.795  14.368  0.4023  1.8660  1.3331
  160DOPC  C21519321   1.270   7.602  14.467 -0.6783 -0.1696  0.2524
  160DOPC  H15R19322   1.175   7.627  14.519 -0.7894  0.1061 -0.0777
  160DOPC  H15S19323   1.333   7.538  14.532  0.2635  1.9275  1.5085
  160DOPC  C21619324   1.248   7.528  14.344  0.6604 -0.6653 -0.3316
  160DOPC  H16R19325   1.341   7.519  14.285  0.6881  2.2854 -0.8774
  160DOPC  H16S19326   1.179   7.588  14.280 -1.2169  0.1354  2.2789
  160DOPC  C21719327   1.194   7.391  14.366 -0.1180  0.5860 -0.6208
  160DOPC  H17R19328   1.094   7.394  14.415  0.3726 -0.4041  0.4799
  160DOPC  H17S19329   1.261   7.332  14.431 -0.1983  0.8294 -0.3192
  160DOPC  C21819330   1.184   7.306  14.241  0.3894 -0.4190  0.3874
  160DOPC  H18R19331   1.141   7.369  14.160 -2.2046 -1.5309  0.7967
  160DOPC  H18S19332   1.118   7.221  14.270  1.6387 -0.4791  3.3860
  160DOPC  H18T19333   1.286   7.267  14.219  1.1920  0.6313  2.0876
  160DOPC   C3319334   0.585   7.994  15.363  0.1941  0.1193  0.5584
  160DOPC   H3X19335   0.690   7.959  15.367  0.3187  0.3862 -0.1606
  160DOPC   H3Y19336   0.587   8.086  15.425  0.2514  0.8049 -0.4215
  160DOPC   C3419337   0.544   8.022  15.218  0.0046 -1.1953 -0.2853
  160DOPC   H4X19338   0.626   8.084  15.176 -1.9066  1.9951  0.3966
  160DOPC   H4Y19339   0.451   8.082  15.218 -0.3874 -1.7935 -0.1452
  160DOPC   C3519340   0.530   7.899  15.136 -0.5725 -0.2516  0.3640
  160DOPC   H5X19341   0.455   7.832  15.183  0.8678 -0.1171  3.0192
  160DOPC   H5Y19342   0.626   7.846  15.122 -1.3684 -1.0357 -2.9463
  160DOPC   C3619343   0.486   7.928  14.989 -0.3944  0.5151 -0.3874
  160DOPC   H6X19344   0.515   7.834  14.938  0.4315 -0.1996  1.2796
  160DOPC   H6Y19345   0.375   7.924  14.990 -0.3771 -0.2062  0.1631
  160DOPC   C3719346   0.546   8.046  14.921  0.6734 -0.2336  0.9188
  160DOPC   H7X19347   0.539   8.125  14.999 -0.0864  0.0923  0.5285
  160DOPC   H7Y19348   0.657   8.044  14.909  0.6641  1.2858  0.3589
  160DOPC   C3819349   0.486   8.081  14.785  0.0264 -0.3475  0.1079
  160DOPC   H8X19350   0.385   8.035  14.794  0.1933 -0.7695 -0.1276
  160DOPC   H8Y19351   0.536   8.030  14.700 -1.4945 -1.6695 -0.0270
  160DOPC   C3919352   0.467   8.231  14.760  0.0419  0.1689  0.3110
  160DOPC   H9X19353   0.513   8.275  14.671  1.0127  1.4949  1.4397
  160DOPC  C31019354   0.392   8.315  14.826  0.1645  0.4190  0.4871
  160DOPC  H10X19355   0.390   8.421  14.795  1.1678 -0.4611 -2.9563
  160DOPC  C31119356   0.311   8.288  14.947  0.4917 -0.3013 -0.7124
  160DOPC  H11X19357   0.303   8.179  14.968 -0.3120 -0.1903 -0.3842
  160DOPC  H11Y19358   0.207   8.326  14.932  0.6682 -0.4107 -2.3802
  160DOPC  C31219359   0.369   8.358  15.073 -0.0665 -0.0814 -0.0282
  160DOPC  H12X19360   0.478   8.343  15.088  0.4101  3.2876  0.8455
  160DOPC  H12Y19361   0.323   8.320  15.166  0.0602  2.7617  1.3177
  160DOPC  C31319362   0.350   8.510  15.077  0.0045  0.3997 -0.1748
  160DOPC  H13X19363   0.387   8.565  14.988 -1.6372  1.8860  0.0045
  160DOPC  H13Y19364   0.241   8.534  15.075 -0.1645 -0.3474 -0.5076
  160DOPC  C31419365   0.421   8.573  15.201 -0.0189 -0.9779  0.0932
  160DOPC  H14X19366   0.402   8.528  15.301 -1.4140  0.8122  0.6809
  160DOPC  H14Y19367   0.531   8.568  15.181 -0.1118  4.0187 -3.4162
  160DOPC  C31519368   0.401   8.726  15.222  0.5032  0.0767 -0.0088
  160DOPC  H15X19369   0.462   8.771  15.303  1.1465 -0.2672 -0.2922
  160DOPC  H15Y19370   0.293   8.747  15.231  0.4075  0.1241 -1.1891
  160DOPC  C31619371   0.453   8.801  15.099  0.3969 -0.2356 -0.6556
  160DOPC  H16X19372   0.561   8.775  15.106 -0.0049 -1.5977  1.4994
  160DOPC  H16Y19373   0.415   8.747  15.009  3.0217 -1.5982 -1.0462
  160DOPC  C31719374   0.450   8.951  15.088  0.2399  0.1515  0.2281
  160DOPC  H17X19375   0.500   8.981  14.994 -1.3023 -0.0304 -0.6776
  160DOPC  H17Y19376   0.344   8.985  15.085 -0.1373 -0.7528  1.6947
  160DOPC  C31819377   0.521   9.031  15.200 -0.0883 -0.4089  0.3565
  160DOPC  H18X19378   0.529   9.140  15.179  3.8669 -0.7214 -0.5926
  160DOPC  H18Y19379   0.473   9.017  15.299  1.3241  3.8342  1.8914
  160DOPC  H18Z19380   0.628   9.003  15.201  0.6748  2.0661 -1.7095
  161DOPC     N19381   3.314   8.547  16.377 -0.2042 -0.4159  0.2589
  161DOPC   C1219382   3.228   8.588  16.262 -0.5353 -0.4185  0.6182
  161DOPC  H12A19383   3.162   8.507  16.237 -0.1341 -0.6576  0.3101
  161DOPC  H12B19384   3.288   8.623  16.179 -1.4312  0.3065  0.2605
  161DOPC   C1319385   3.423   8.652  16.422  0.5201  0.5071 -0.6159
  161DOPC  H13A19386   3.493   8.666  16.341  0.6426 -0.7750 -0.7545
  161DOPC  H13B19387   3.388   8.747  16.458 -0.2324 -0.8008  2.4306
  161DOPC  H13C19388   3.473   8.602  16.503  0.3485  1.9506  0.4137
  161DOPC   C1419389   3.380   8.422  16.351 -0.0988  0.2566  0.4633
  161DOPC  H14A19390   3.438   8.397  16.439  1.0472  4.1894  0.9907
  161DOPC  H14B19391   3.316   8.340  16.322  0.6437  0.0301 -0.6180
  161DOPC  H14C19392   3.452   8.436  16.272  2.2315  1.6828  2.6972
  161DOPC   C1519393   3.231   8.522  16.502 -0.4593  0.2290 -0.5763
  161DOPC  H15A19394   3.164   8.600  16.536 -2.0876 -1.5085  0.4285
  161DOPC  H15B19395   3.295   8.511  16.587  0.2835  2.1543 -0.8437
  161DOPC  H15C19396   3.164   8.438  16.490 -0.2831 -0.2161  1.2435
  161DOPC   C1119397   3.139   8.714  16.286 -0.0026 -0.3861 -0.2709
  161DOPC  H11A19398   3.062   8.727  16.207  0.0659 -2.5234 -0.7475
  161DOPC  H11B19399   3.082   8.702  16.381  3.7148  1.6179  2.4825
  161DOPC     P19400   3.271   8.913  16.171 -0.1210  0.2057  0.1457
  161DOPC   O1319401   3.391   8.985  16.208  0.3545  0.3472 -0.8104
  161DOPC   O1419402   3.159   8.993  16.125  0.5561  0.5222  0.5617
  161DOPC   O1219403   3.224   8.831  16.298 -0.0527  0.3248 -0.1599
  161DOPC   O1119404   3.305   8.801  16.060 -0.1720 -0.0021  0.5798
  161DOPC    C119405   3.439   8.759  16.038  0.3494  0.0379 -0.0795
  161DOPC    HA19406   3.429   8.661  15.987 -1.0052  0.2531 -0.2731
  161DOPC    HB19407   3.490   8.738  16.134 -2.0914  1.9016  1.7583
  161DOPC    C219408   3.516   8.852  15.933 -0.1005  0.2357  0.2280
  161DOPC    HS19409   3.543   8.951  15.976 -1.5088  0.3936  0.7973
  161DOPC   O2119410   3.438   8.861  15.813  0.0882  0.2081 -0.0580
  161DOPC   C2119411   3.401   8.975  15.782  0.1914 -0.9891  0.5807
  161DOPC   O2219412   3.410   9.073  15.850  0.3988  0.2254 -0.6216
  161DOPC   C2219413   3.337   8.975  15.642 -0.3534  0.3275 -0.5067
  161DOPC   H2R19414   3.293   9.075  15.622  1.5800  0.8867 -2.3402
  161DOPC   H2S19415   3.249   8.908  15.650  0.4113 -0.4812  1.7434
  161DOPC    C319416   3.654   8.784  15.911  0.1125  0.3978  0.1591
  161DOPC    HX19417   3.633   8.677  15.890  1.5214 -0.0091  0.7067
  161DOPC    HY19418   3.714   8.803  16.003 -0.6168  2.2028  0.2970
  161DOPC   O3119419   3.708   8.847  15.790  0.7809  0.4132 -0.1712
  161DOPC   C3119420   3.831   8.812  15.771 -0.4502 -0.3036 -0.9651
  161DOPC   O3219421   3.904   8.746  15.848  0.8329 -0.7175  0.0467
  161DOPC   C3219422   3.886   8.888  15.647 -0.8981 -0.0239  0.2094
  161DOPC   H2X19423   3.922   8.812  15.574 -0.4719  0.1191  0.2687
  161DOPC   H2Y19424   3.797   8.938  15.604 -1.7703 -1.3794  0.3855
  161DOPC   C2319425   3.431   8.935  15.531 -0.1439 -0.7275 -0.2303
  161DOPC   H3R19426   3.466   8.830  15.546  1.6717 -0.2968 -1.1401
  161DOPC   H3S19427   3.519   9.002  15.537 -0.7504 -0.0263  1.4829
  161DOPC   C2419428   3.380   8.955  15.383  0.6978 -0.1733 -0.7608
  161DOPC   H4R19429   3.304   8.875  15.374  1.6947 -1.3040  0.5955
  161DOPC   H4S19430   3.472   8.932  15.326 -0.4085 -0.6441 -2.4304
  161DOPC   C2519431   3.328   9.088  15.344  0.0763 -0.1350 -0.2131
  161DOPC   H5R19432   3.405   9.163  15.374  0.5856 -0.3449 -0.9527
  161DOPC   H5S19433   3.224   9.111  15.376 -0.6289 -1.5344 -1.3471
  161DOPC   C2619434   3.336   9.108  15.197 -0.0576  0.0404 -0.6214
  161DOPC   H6R19435   3.256   9.046  15.152  0.3393  0.3079 -1.7258
  161DOPC   H6S19436   3.431   9.074  15.150  1.3928  1.4577  1.1382
  161DOPC   C2719437   3.320   9.258  15.160  0.8274  0.2576  0.0512
  161DOPC   H7R19438   3.423   9.297  15.178  0.4690  0.8928  0.7490
  161DOPC   H7S19439   3.240   9.312  15.214 -0.3512 -0.0732 -1.3096
  161DOPC   C2819440   3.280   9.283  15.011 -0.9877 -0.1109 -0.0591
  161DOPC   H8R19441   3.183   9.229  14.999 -0.4435 -1.0921 -0.1412
  161DOPC   H8S19442   3.354   9.238  14.941 -1.0800 -0.2480 -0.0706
  161DOPC   C2919443   3.270   9.436  14.992 -0.1012  0.3087  0.8970
  161DOPC   H9R19444   3.335   9.489  15.063  0.8980 -0.5926  0.6838
  161DOPC  C21019445   3.199   9.504  14.903  0.1719  0.6591  0.8139
  161DOPC  H10R19446   3.211   9.613  14.894 -3.4415  1.4332  3.1604
  161DOPC  C21119447   3.110   9.427  14.794 -0.4454  0.5563  0.0135
  161DOPC  H11R19448   3.098   9.321  14.823 -0.4084 -0.0277 -1.9444
  161DOPC  H11S19449   3.181   9.415  14.709 -1.5035 -0.4200 -0.7540
  161DOPC  C21219450   2.980   9.482  14.748 -0.3838 -0.7891  0.0839
  161DOPC  H12R19451   2.913   9.508  14.833  0.3308  0.5313  0.2770
  161DOPC  H12S19452   2.935   9.400  14.689 -0.9166 -1.9481  2.0155
  161DOPC  C21319453   3.002   9.603  14.659 -0.3674  0.0509  0.1774
  161DOPC  H13R19454   3.055   9.583  14.563  0.8111  0.8725  0.6376
  161DOPC  H13S19455   3.073   9.677  14.699  0.0002 -0.0305 -0.3120
  161DOPC  C21419456   2.878   9.688  14.616  0.2522  0.3707 -0.4235
  161DOPC  H14R19457   2.850   9.775  14.680 -3.2626 -0.8075 -0.1117
  161DOPC  H14S19458   2.790   9.620  14.623  0.2076  0.5288  0.7237
  161DOPC  C21519459   2.874   9.739  14.470  0.5307 -0.4204  0.5461
  161DOPC  H15R19460   2.778   9.772  14.426  0.6983  0.0819  0.5516
  161DOPC  H15S19461   2.896   9.651  14.406 -0.3923  0.4917 -1.0755
  161DOPC  C21619462   2.974   9.851  14.433  0.4657  0.6308  0.2251
  161DOPC  H16R19463   3.071   9.814  14.472 -0.0959 -0.9770  0.1430
  161DOPC  H16S19464   2.948   9.937  14.499 -1.7890  0.8476 -0.8702
  161DOPC  C21719465   2.970   9.903  14.288  0.3559  0.8533  0.1255
  161DOPC  H17R19466   2.872   9.937  14.246  0.4958  0.6732 -0.3609
  161DOPC  H17S19467   3.001   9.818  14.223  3.6798  1.8152  0.2812
  161DOPC  C21819468   3.069  10.018  14.273  0.2063 -0.1720  0.2184
  161DOPC  H18R19469   3.071  10.046  14.166  0.3147  0.9960  0.5159
  161DOPC  H18S19470   3.167  10.000  14.322  1.0324  3.9875  0.4666
  161DOPC  H18T19471   3.018  10.099  14.330  1.3045  0.8288 -0.1882
  161DOPC   C3319472   4.006   8.980  15.692 -0.0288 -0.2043 -0.4729
  161DOPC   H3X19473   4.092   8.963  15.624  0.4107 -1.9446  0.4459
  161DOPC   H3Y19474   4.040   8.937  15.788  1.6082 -0.9601 -1.3546
  161DOPC   C3419475   3.963   9.122  15.715 -0.0736  0.9514 -0.0334
  161DOPC   H4X19476   3.888   9.132  15.796  0.0649  0.3745  0.1701
  161DOPC   H4Y19477   3.908   9.147  15.622  2.5604 -0.1190 -1.9907
  161DOPC   C3519478   4.074   9.222  15.757 -0.2578  0.7987 -0.1575
  161DOPC   H5X19479   4.128   9.171  15.840 -1.0656  0.1516 -0.0115
  161DOPC   H5Y19480   4.039   9.318  15.798  0.2519  1.6724 -1.6842
  161DOPC   C3619481   4.182   9.249  15.650 -0.7018 -0.0740 -0.4431
  161DOPC   H6X19482   4.258   9.319  15.691 -1.6622  0.4619  0.4655
  161DOPC   H6Y19483   4.229   9.152  15.626 -1.9988 -0.5980 -0.9995
  161DOPC   C3719484   4.132   9.290  15.514  0.4800  0.4188 -0.5252
  161DOPC   H7X19485   4.136   9.203  15.446  1.5739  1.2351 -1.5609
  161DOPC   H7Y19486   4.026   9.319  15.531  0.3084 -1.4075  1.9468
  161DOPC   C3819487   4.212   9.399  15.437  0.5045 -0.3543  0.3386
  161DOPC   H8X19488   4.209   9.495  15.493 -0.0742 -0.8854  1.2496
  161DOPC   H8Y19489   4.163   9.418  15.340  1.5530  1.8380  0.1727
  161DOPC   C3919490   4.359   9.358  15.414  0.0582 -0.8476 -0.2723
  161DOPC   H9X19491   4.424   9.369  15.502  3.5944  0.7774 -2.8514
  161DOPC  C31019492   4.420   9.312  15.302  0.0037  0.0515  0.0876
  161DOPC  H10X19493   4.528   9.298  15.314 -0.2570 -1.5561  0.7948
  161DOPC  C31119494   4.361   9.283  15.167 -0.4636  0.2524 -0.0227
  161DOPC  H11X19495   4.254   9.312  15.164 -1.4000 -2.7505  0.4720
  161DOPC  H11Y19496   4.359   9.174  15.145 -1.7848 -0.2180  2.0493
  161DOPC  C31219497   4.459   9.346  15.062  0.6377 -0.4472  0.3814
  161DOPC  H12X19498   4.565   9.316  15.073  1.1410  0.3822 -1.8128
  161DOPC  H12Y19499   4.451   9.454  15.085  0.7861 -0.3252 -0.1325
  161DOPC  C31319500   4.420   9.306  14.920 -0.0330 -0.0564 -0.3920
  161DOPC  H13X19501   4.445   9.200  14.899 -2.1041 -1.2326  2.4022
  161DOPC  H13Y19502   4.309   9.305  14.918 -0.0695 -0.7265  0.7363
  161DOPC  C31419503   4.487   9.396  14.819 -0.5495 -0.7778  0.2495
  161DOPC  H14X19504   4.440   9.496  14.826 -1.0605 -1.0657  1.0628
  161DOPC  H14Y19505   4.593   9.410  14.848 -0.6566  2.7478 -0.6079
  161DOPC  C31519506   4.463   9.349  14.667  0.0246 -0.2006 -0.2679
  161DOPC  H15X19507   4.522   9.256  14.647  0.3119  0.4392 -2.7108
  161DOPC  H15Y19508   4.508   9.434  14.612  2.2270 -0.2413  1.3102
  161DOPC  C31619509   4.313   9.330  14.635  0.2956  0.2584 -0.1936
  161DOPC  H16X19510   4.270   9.257  14.706  1.0914 -0.4709 -0.4320
  161DOPC  H16Y19511   4.270   9.431  14.651  1.7924  1.0419 -0.9199
  161DOPC  C31719512   4.288   9.297  14.486 -0.4765 -0.1362  0.0637
  161DOPC  H17X19513   4.355   9.368  14.434 -1.2533  1.1325  0.7600
  161DOPC  H17Y19514   4.326   9.195  14.464 -2.2101 -0.5147 -1.4665
  161DOPC  C31819515   4.141   9.318  14.443  0.4247  0.1452 -0.6085
  161DOPC  H18X19516   4.131   9.276  14.340 -0.1592  1.3860 -1.0813
  161DOPC  H18Y19517   4.083   9.253  14.512  0.2394  1.3479  0.3857
  161DOPC  H18Z19518   4.097   9.419  14.430 -0.6516 -0.4592 -2.0303
  162DOPC     N19519   1.245   6.547  16.242 -0.3830  0.2643  0.6194
  162DOPC   C1219520   1.362   6.496  16.159  0.0819 -0.7529 -1.1114
  162DOPC  H12A19521   1.366   6.389  16.173  0.5445 -0.5619  0.4340
  162DOPC  H12B19522   1.451   6.537  16.205  0.4936 -1.9859 -0.7884
  162DOPC   C1319523   1.256   6.691  16.270  0.1180 -0.3649 -0.3784
  162DOPC  H13A19524   1.243   6.759  16.187  0.0606 -1.1876 -1.0498
  162DOPC  H13B19525   1.183   6.714  16.347  0.3612 -1.7818  0.3051
  162DOPC  H13C19526   1.353   6.717  16.310  0.4521 -0.8120 -0.8842
  162DOPC   C1419527   1.267   6.477  16.375  1.0754  0.4484 -0.2310
  162DOPC  H14A19528   1.199   6.502  16.455  0.9483  1.2741 -0.5773
  162DOPC  H14B19529   1.269   6.372  16.352  0.7378  0.4173 -0.1236
  162DOPC  H14C19530   1.363   6.502  16.419  0.9426 -2.2596  1.8203
  162DOPC   C1519531   1.111   6.517  16.180  0.0989 -0.3276  0.2195
  162DOPC  H15A19532   1.107   6.410  16.166 -2.6851 -0.3519  0.7055
  162DOPC  H15B19533   1.094   6.583  16.096 -0.2024 -1.2938 -0.4870
  162DOPC  H15C19534   1.028   6.525  16.248 -0.5741 -0.0779 -0.6209
  162DOPC   C1119535   1.378   6.533  16.011 -0.4229 -0.7264  0.2580
  162DOPC  H11A19536   1.470   6.500  15.959 -0.6824 -0.7876 -0.1687
  162DOPC  H11B19537   1.295   6.492  15.949 -2.3303  3.2347 -0.1338
  162DOPC     P19538   1.495   6.770  16.025  0.1876 -0.2106  0.1450
  162DOPC   O1319539   1.591   6.688  16.105 -0.1463 -0.2384  0.1330
  162DOPC   O1419540   1.441   6.899  16.078  0.0541  0.1375  0.4032
  162DOPC   O1219541   1.375   6.669  15.990 -0.1928 -0.9829 -0.4986
  162DOPC   O1119542   1.571   6.793  15.893  0.1915  0.4647  0.8330
  162DOPC    C119543   1.556   6.716  15.774  0.0425  0.3077  0.1787
  162DOPC    HA19544   1.585   6.782  15.690  0.4636 -0.9891 -0.7136
  162DOPC    HB19545   1.455   6.679  15.748  1.1208 -1.9171 -1.0987
  162DOPC    C219546   1.678   6.610  15.759  0.1910 -0.7895  0.2136
  162DOPC    HS19547   1.668   6.535  15.840  0.6299 -1.7023 -0.5576
  162DOPC   O2119548   1.799   6.694  15.767 -0.1274  0.1006 -0.5037
  162DOPC   C2119549   1.902   6.638  15.826 -0.3804 -0.3548  0.3950
  162DOPC   O2219550   1.903   6.520  15.865  0.1203 -0.4835  0.1464
  162DOPC   C2219551   2.028   6.726  15.791 -0.3919 -0.2149  0.3860
  162DOPC   H2R19552   2.120   6.663  15.799 -0.8422 -0.7907  1.0558
  162DOPC   H2S19553   2.024   6.806  15.867  0.5743  0.1062  0.1178
  162DOPC    C319554   1.666   6.536  15.619 -0.0645 -0.2648 -0.0406
  162DOPC    HX19555   1.695   6.604  15.536 -0.1148 -0.9653 -0.6320
  162DOPC    HY19556   1.566   6.491  15.602  0.3943 -1.8336  1.2309
  162DOPC   O3119557   1.767   6.429  15.614  0.0199  0.2378  0.0107
  162DOPC   C3119558   1.732   6.319  15.675 -0.5164 -0.4318  0.2002
  162DOPC   O3219559   1.627   6.301  15.737  0.1151  0.2876  0.0010
  162DOPC   C3219560   1.843   6.221  15.668 -0.5139  0.2306 -0.2664
  162DOPC   H2X19561   1.898   6.233  15.572 -0.1475 -1.1088 -0.2537
  162DOPC   H2Y19562   1.911   6.260  15.746 -1.6020  1.5386  0.0406
  162DOPC   C2319563   2.035   6.791  15.647  0.1045  0.1593 -0.1490
  162DOPC   H3R19564   2.132   6.843  15.631 -0.0390  0.2489 -0.7444
  162DOPC   H3S19565   1.950   6.862  15.639 -0.2500 -0.0919  1.1684
  162DOPC   C2419566   2.022   6.692  15.525 -0.8538 -0.0707 -0.2385
  162DOPC   H4R19567   2.037   6.745  15.429 -3.1529  0.3391 -0.4199
  162DOPC   H4S19568   1.920   6.648  15.525  0.0421 -2.4970  2.5462
  162DOPC   C2519569   2.114   6.569  15.527  0.0019 -0.2439  0.3705
  162DOPC   H5R19570   2.092   6.511  15.620 -2.4896 -1.3930 -0.8451
  162DOPC   H5S19571   2.217   6.609  15.522 -0.2885  0.4707  0.0536
  162DOPC   C2619572   2.085   6.476  15.408  0.2424  0.2217  0.3703
  162DOPC   H6R19573   2.088   6.533  15.313 -2.2120 -0.9877 -0.5213
  162DOPC   H6S19574   1.981   6.439  15.417  0.1863  0.2868 -0.0210
  162DOPC   C2719575   2.175   6.352  15.395  0.4460 -0.9008  0.7451
  162DOPC   H7R19576   2.149   6.276  15.472 -3.5995 -0.6763 -0.1928
  162DOPC   H7S19577   2.278   6.388  15.417 -0.0556  1.7506 -0.8416
  162DOPC   C2819578   2.172   6.285  15.250  0.1936 -0.0160  0.6628
  162DOPC   H8R19579   2.222   6.358  15.183  1.6873 -1.5511  0.0309
  162DOPC   H8S19580   2.061   6.282  15.234 -0.2254  3.9687  1.7515
  162DOPC   C2919581   2.239   6.154  15.227  0.2970 -0.5480 -0.5972
  162DOPC   H9R19582   2.203   6.061  15.273  1.1274 -0.7650 -0.3675
  162DOPC  C21019583   2.351   6.137  15.154  0.0490 -0.1165 -0.5669
  162DOPC  H10R19584   2.384   6.033  15.158 -0.2476 -0.1830  0.4378
  162DOPC  C21119585   2.423   6.234  15.064 -0.4396  0.6842  0.2711
  162DOPC  H11R19586   2.534   6.228  15.073 -0.3432  0.5915 -0.8507
  162DOPC  H11S19587   2.393   6.341  15.073 -0.2539  0.8947 -1.3337
  162DOPC  C21219588   2.399   6.188  14.916 -0.4531  0.7361 -0.2195
  162DOPC  H12R19589   2.290   6.171  14.901 -0.4096 -2.1272  1.8454
  162DOPC  H12S19590   2.432   6.083  14.897 -1.0785  0.3039  0.9730
  162DOPC  C21319591   2.452   6.289  14.812 -0.9778 -0.1638  0.4033
  162DOPC  H13R19592   2.561   6.304  14.822 -1.1079  0.7746  0.4340
  162DOPC  H13S19593   2.424   6.388  14.854 -0.8895 -0.1087  0.3307
  162DOPC  C21419594   2.403   6.266  14.670 -0.2407 -0.4287  0.6930
  162DOPC  H14R19595   2.295   6.255  14.694 -0.2302  1.9515  2.1711
  162DOPC  H14S19596   2.442   6.177  14.616 -1.7642 -0.1427 -0.9577
  162DOPC  C21519597   2.421   6.390  14.583 -0.2146  0.5762 -0.2128
  162DOPC  H15R19598   2.530   6.407  14.572 -0.1133 -0.3934 -0.7727
  162DOPC  H15S19599   2.390   6.480  14.641  0.2574  0.4438  0.2579
  162DOPC  C21619600   2.358   6.381  14.448  0.8068 -0.4756 -0.0290
  162DOPC  H16R19601   2.372   6.280  14.405 -1.0891 -0.7429 -0.1193
  162DOPC  H16S19602   2.400   6.465  14.388  3.7033  0.1673  2.6382
  162DOPC  C21719603   2.204   6.392  14.450  0.6325  0.4580 -0.6206
  162DOPC  H17R19604   2.166   6.301  14.502 -1.6312  1.5244 -0.2428
  162DOPC  H17S19605   2.173   6.391  14.344  3.8583  1.2823 -1.6827
  162DOPC  C21819606   2.149   6.519  14.515 -0.4166 -0.0640 -0.9472
  162DOPC  H18R19607   2.146   6.509  14.625 -1.2400  1.7797 -0.7594
  162DOPC  H18S19608   2.046   6.535  14.477 -0.0707  0.7003 -1.6123
  162DOPC  H18T19609   2.205   6.611  14.489  0.3419  0.2146  1.4348
  162DOPC   C3319610   1.809   6.072  15.695 -0.2104 -0.4505  0.5077
  162DOPC   H3X19611   1.718   6.052  15.635  0.3263 -0.3401 -0.3661
  162DOPC   H3Y19612   1.777   6.071  15.801 -1.8531  0.6964  0.0501
  162DOPC   C3419613   1.928   5.983  15.657  0.2654 -0.2619  0.2710
  162DOPC   H4X19614   1.892   5.878  15.659  1.1838 -0.6520  4.2775
  162DOPC   H4Y19615   2.013   5.993  15.727  1.5495  3.4464 -1.5727
  162DOPC   C3519616   2.000   6.005  15.525  0.0860  0.2005 -0.6949
  162DOPC   H5X19617   2.076   6.081  15.551 -0.7512 -0.0743  3.2319
  162DOPC   H5Y19618   1.924   6.043  15.453 -1.5143 -0.6888  0.4553
  162DOPC   C3619619   2.070   5.890  15.459 -0.4701  0.1563 -0.1144
  162DOPC   H6X19620   2.175   5.920  15.436 -0.1341 -0.1444  0.9772
  162DOPC   H6Y19621   2.070   5.817  15.543 -1.8008 -0.4707 -0.6286
  162DOPC   C3719622   1.999   5.836  15.329 -0.2588  0.0574 -0.9094
  162DOPC   H7X19623   2.013   5.917  15.254  2.4024 -0.2775 -0.8819
  162DOPC   H7Y19624   2.056   5.745  15.301  0.9599 -0.7770  3.5161
  162DOPC   C3819625   1.849   5.799  15.338 -0.0683 -0.1389 -0.5975
  162DOPC   H8X19626   1.815   5.787  15.233 -0.7365  3.0627 -0.8329
  162DOPC   H8Y19627   1.797   5.890  15.373  0.3036  0.0378 -0.4984
  162DOPC   C3919628   1.831   5.673  15.426 -0.0170  0.1052 -0.2024
  162DOPC   H9X19629   1.866   5.684  15.529  0.4666  3.8412 -0.6133
  162DOPC  C31019630   1.760   5.564  15.400  0.9556 -0.0310  0.5968
  162DOPC  H10X19631   1.754   5.488  15.479  1.0511 -0.8905 -0.2082
  162DOPC  C31119632   1.684   5.542  15.271  0.3137 -0.2228 -0.3134
  162DOPC  H11X19633   1.747   5.557  15.181 -1.4372 -0.4315 -1.6403
  162DOPC  H11Y19634   1.591   5.602  15.268  0.2437 -0.3489 -2.0043
  162DOPC  C31219635   1.629   5.395  15.266 -0.3594 -0.8019  0.4037
  162DOPC  H12X19636   1.589   5.380  15.164  0.6550 -0.4804 -0.0586
  162DOPC  H12Y19637   1.558   5.376  15.349 -1.8705 -1.0770 -0.9024
  162DOPC  C31319638   1.745   5.296  15.277 -0.2828 -0.2631  0.1804
  162DOPC  H13X19639   1.823   5.333  15.206 -1.2647 -0.7744 -1.2094
  162DOPC  H13Y19640   1.782   5.294  15.381 -3.7008  0.8831  1.5474
  162DOPC  C31419641   1.705   5.156  15.240  0.1009  0.5742 -0.4067
  162DOPC  H14X19642   1.617   5.142  15.307  0.2459  0.4463 -0.2413
  162DOPC  H14Y19643   1.680   5.156  15.132  0.7040 -1.3043 -0.5870
  162DOPC  C31519644   1.822   5.057  15.252 -0.1800 -0.5145  0.3629
  162DOPC  H15X19645   1.872   5.073  15.350  0.9025  2.5796 -0.5793
  162DOPC  H15Y19646   1.902   5.076  15.177  0.3943 -3.4372  0.1300
  162DOPC  C31619647   1.778   4.912  15.216  0.5845 -0.1668 -0.0999
  162DOPC  H16X19648   1.860   4.841  15.240 -1.2169 -2.0425  0.7583
  162DOPC  H16Y19649   1.689   4.875  15.271  0.3276  0.0331 -0.3834
  162DOPC  C31719650   1.746   4.896  15.063  0.1066  0.1442  0.4745
  162DOPC  H17X19651   1.647   4.944  15.047 -0.4803 -0.9547  0.6975
  162DOPC  H17Y19652   1.826   4.949  15.006  1.2126 -0.9218  0.9860
  162DOPC  C31819653   1.749   4.750  15.023  0.2351  0.1640 -0.2193
  162DOPC  H18X19654   1.655   4.704  15.061 -0.2572 -1.9035 -3.4964
  162DOPC  H18Y19655   1.743   4.734  14.913  3.2145 -1.0432 -0.3185
  162DOPC  H18Z19656   1.831   4.695  15.074 -0.8911 -0.8467  0.5804
  163DOPC     N19657   7.177   1.980  16.661 -0.1995  0.2848 -0.5017
  163DOPC   C1219658   7.314   1.964  16.587  0.0289 -0.4786  0.9720
  163DOPC  H12A19659   7.329   1.857  16.592 -2.4775 -0.8638  2.1171
  163DOPC  H12B19660   7.386   2.012  16.651 -0.4505  2.3817 -0.4807
  163DOPC   C1319661   7.149   2.122  16.702 -0.5554 -0.1484 -0.0293
  163DOPC  H13A19662   7.170   2.191  16.622  1.3740  0.4213  0.9054
  163DOPC  H13B19663   7.047   2.126  16.737 -0.3567  0.6771  0.4925
  163DOPC  H13C19664   7.210   2.151  16.786  0.1897 -0.0367 -0.5999
  163DOPC   C1419665   7.165   1.903  16.793  0.7151 -0.1365 -0.4318
  163DOPC  H14A19666   7.232   1.939  16.869 -0.2658  0.2409  0.2696
  163DOPC  H14B19667   7.065   1.908  16.833  0.7591 -0.7174 -0.2340
  163DOPC  H14C19668   7.177   1.797  16.776  1.0620 -0.2557  0.5225
  163DOPC   C1519669   7.063   1.930  16.580 -1.3654 -0.4094 -0.7092
  163DOPC  H15A19670   7.089   1.830  16.547  0.0313 -0.1162 -0.5488
  163DOPC  H15B19671   7.047   1.985  16.488 -2.3343 -0.8102 -0.7904
  163DOPC  H15C19672   6.968   1.929  16.630 -1.7925  5.1617 -0.8065
  163DOPC   C1119673   7.336   2.023  16.450 -0.0599 -0.1940 -0.1777
  163DOPC  H11A19674   7.440   1.996  16.422  0.1871  1.0787 -0.5483
  163DOPC  H11B19675   7.265   1.982  16.375 -3.4928  1.1035  2.1373
  163DOPC     P19676   7.441   2.248  16.519  0.0480 -0.2710 -0.3230
  163DOPC   O1319677   7.495   2.192  16.645 -0.4980  0.3238 -0.5720
  163DOPC   O1419678   7.397   2.387  16.524 -0.1359 -0.5780 -0.7777
  163DOPC   O1219679   7.326   2.168  16.457  0.3184 -0.0660 -0.2053
  163DOPC   O1119680   7.554   2.226  16.411  0.2010 -0.4110 -1.1795
  163DOPC    C119681   7.546   2.304  16.293  0.1438 -0.4314 -0.0883
  163DOPC    HA19682   7.573   2.408  16.321  0.3847  0.2685 -2.6419
  163DOPC    HB19683   7.446   2.286  16.248  0.7048 -2.1239 -0.7399
  163DOPC    C219684   7.660   2.264  16.191 -0.5301  0.0650  0.6023
  163DOPC    HS19685   7.756   2.266  16.247 -0.3730  0.8100  0.3181
  163DOPC   O2119686   7.658   2.344  16.074  0.3415 -0.9206  0.7070
  163DOPC   C2119687   7.714   2.474  16.082 -0.3792 -0.2084  0.6146
  163DOPC   O2219688   7.756   2.511  16.187 -0.0966 -0.4287  0.3727
  163DOPC   C2219689   7.716   2.549  15.952  0.7202  0.2970 -0.3466
  163DOPC   H2R19690   7.693   2.656  15.973 -0.7617 -0.2861  1.3454
  163DOPC   H2S19691   7.639   2.501  15.888  0.6026  0.6168 -0.4473
  163DOPC    C319692   7.643   2.110  16.155 -0.1825 -0.3031  0.7226
  163DOPC    HX19693   7.663   2.049  16.246  0.0346  0.7295  1.3819
  163DOPC    HY19694   7.726   2.094  16.082 -0.1947  0.2888  0.5764
  163DOPC   O3119695   7.514   2.073  16.094 -0.4424  0.2735 -0.3611
  163DOPC   C3119696   7.484   1.949  16.091 -0.1247  0.0717  1.0777
  163DOPC   O3219697   7.551   1.857  16.135  0.2652  0.2838 -0.2877
  163DOPC   C3219698   7.346   1.931  16.023 -0.1778 -0.3980 -0.6091
  163DOPC   H2X19699   7.285   1.864  16.088  2.4541 -1.9256  0.4257
  163DOPC   H2Y19700   7.300   2.032  16.019  2.2004  0.7659 -0.1352
  163DOPC   C2319701   7.858   2.529  15.887 -0.6319  0.1087  0.2119
  163DOPC   H3R19702   7.929   2.563  15.966 -1.4437  1.4296  0.4014
  163DOPC   H3S19703   7.880   2.604  15.808 -0.5007  0.1139  0.2531
  163DOPC   C2419704   7.885   2.388  15.841  0.0478  0.2329  0.1147
  163DOPC   H4R19705   7.798   2.373  15.773  0.2886 -1.8568  0.2047
  163DOPC   H4S19706   7.862   2.322  15.928  0.7061  2.3114  1.9357
  163DOPC   C2519707   8.019   2.361  15.766  0.2472 -0.3071  0.4957
  163DOPC   H5R19708   8.104   2.356  15.838  0.7202 -1.6856 -0.1431
  163DOPC   H5S19709   8.039   2.438  15.688  1.4178 -2.3426 -1.2970
  163DOPC   C2619710   8.015   2.238  15.675 -0.3385  0.2266  0.5072
  163DOPC   H6R19711   7.939   2.255  15.596  0.1700 -1.3992 -0.3679
  163DOPC   H6S19712   7.994   2.153  15.743 -1.8806  1.4253  1.6033
  163DOPC   C2719713   8.148   2.218  15.615  0.0082  0.6525  0.0255
  163DOPC   H7R19714   8.226   2.213  15.694 -1.0863  0.7738  1.1443
  163DOPC   H7S19715   8.166   2.305  15.547 -1.1452 -0.0847 -1.2804
  163DOPC   C2819716   8.155   2.090  15.525  0.1447 -0.3747 -0.0674
  163DOPC   H8R19717   8.120   2.008  15.591 -0.1120 -0.2087  0.0017
  163DOPC   H8S19718   8.263   2.064  15.527  0.2863  0.2467  1.0149
  163DOPC   C2919719   8.085   2.087  15.391  0.5402  0.0921  0.1241
  163DOPC   H9R19720   7.981   2.051  15.391  0.4032  0.4072 -1.1586
  163DOPC  C21019721   8.150   2.098  15.268  0.5103 -0.4849 -0.5264
  163DOPC  H10R19722   8.099   2.057  15.179 -1.2752 -1.7980  1.0247
  163DOPC  C21119723   8.293   2.126  15.242 -0.6501 -0.4250  0.6592
  163DOPC  H11R19724   8.354   2.034  15.253  0.3458  0.4500  3.2749
  163DOPC  H11S19725   8.335   2.208  15.304 -1.4779  0.7697 -0.3300
  163DOPC  C21219726   8.312   2.177  15.100  0.4817 -0.4346 -0.0839
  163DOPC  H12R19727   8.418   2.208  15.090  0.7102 -0.5280  1.6707
  163DOPC  H12S19728   8.250   2.265  15.072 -0.9659 -1.7815 -1.2848
  163DOPC  C21319729   8.286   2.071  14.991 -0.7582 -0.5645  0.3088
  163DOPC  H13R19730   8.178   2.045  14.982 -0.4609 -1.3356 -1.5237
  163DOPC  H13S19731   8.340   1.981  15.027  0.1576  0.4795  1.6121
  163DOPC  C21419732   8.338   2.125  14.859  0.3232  0.6644  0.3913
  163DOPC  H14R19733   8.333   2.049  14.778 -1.0892  3.1111 -1.9897
  163DOPC  H14S19734   8.446   2.149  14.866  0.6328  0.0058 -1.4515
  163DOPC  C21519735   8.252   2.242  14.806 -0.4749  0.3987  0.5292
  163DOPC  H15R19736   8.270   2.336  14.863 -2.9030  0.4094  1.4037
  163DOPC  H15S19737   8.142   2.227  14.804 -0.7840  2.5103 -1.1668
  163DOPC  C21619738   8.307   2.270  14.665  0.6023 -0.2787  0.3718
  163DOPC  H16R19739   8.294   2.176  14.607  0.1806 -1.0902  1.7291
  163DOPC  H16S19740   8.417   2.286  14.671  0.8009 -1.7864  1.2479
  163DOPC  C21719741   8.249   2.392  14.588  0.3112 -0.3030  0.0644
  163DOPC  H17R19742   8.259   2.467  14.669  1.3675  1.8886 -1.9708
  163DOPC  H17S19743   8.143   2.368  14.568 -0.3102 -0.0217  2.6756
  163DOPC  C21819744   8.324   2.425  14.457 -0.1987  0.4421 -0.7232
  163DOPC  H18R19745   8.284   2.515  14.406  1.5032  1.7691  0.1581
  163DOPC  H18S19746   8.329   2.339  14.387 -0.1821  0.0169 -0.2067
  163DOPC  H18T19747   8.428   2.453  14.484 -0.0110 -1.3613  0.6056
  163DOPC   C3319748   7.347   1.855  15.893  0.3276  0.1617 -0.2701
  163DOPC   H3X19749   7.350   1.745  15.911  0.4116 -0.2746 -2.6399
  163DOPC   H3Y19750   7.428   1.888  15.825  0.3504  1.0237  0.1579
  163DOPC   C3419751   7.222   1.895  15.805 -0.2575 -0.2188 -0.1619
  163DOPC   H4X19752   7.231   1.999  15.768 -1.6315 -0.4996 -1.3761
  163DOPC   H4Y19753   7.133   1.883  15.870 -0.5059 -0.2401 -0.5005
  163DOPC   C3519754   7.192   1.799  15.691  0.3112 -0.1807  0.4555
  163DOPC   H5X19755   7.167   1.702  15.739 -0.6508  0.4475  1.2634
  163DOPC   H5Y19756   7.280   1.782  15.625  0.0928  0.3088  0.0296
  163DOPC   C3619757   7.075   1.835  15.597 -0.1324 -0.7973 -0.1467
  163DOPC   H6X19758   6.975   1.794  15.623 -0.9234  1.1599  0.0718
  163DOPC   H6Y19759   7.060   1.943  15.620 -2.3328 -0.6340 -1.9090
  163DOPC   C3719760   7.088   1.795  15.449 -0.0775 -0.3177 -1.0638
  163DOPC   H7X19761   7.185   1.825  15.404  0.7192 -2.2351 -0.7218
  163DOPC   H7Y19762   7.071   1.688  15.427 -0.3764 -0.0159 -2.3862
  163DOPC   C3819763   6.974   1.856  15.372  0.8691  0.1657 -0.1466
  163DOPC   H8X19764   6.953   1.960  15.404 -0.9574  0.1463 -1.1609
  163DOPC   H8Y19765   6.880   1.806  15.402  1.0433  2.0161  4.2218
  163DOPC   C3919766   6.982   1.855  15.222 -0.0562 -0.7677  0.1328
  163DOPC   H9X19767   6.960   1.756  15.180  0.5526 -0.6722 -0.4268
  163DOPC  C31019768   7.014   1.957  15.145 -0.5846 -0.2454  0.0920
  163DOPC  H10X19769   7.036   1.948  15.038 -0.5541 -0.2174  0.0955
  163DOPC  C31119770   7.049   2.097  15.193  0.0909 -0.4381 -0.1087
  163DOPC  H11X19771   7.050   2.107  15.304  0.5196 -1.1232 -0.0448
  163DOPC  H11Y19772   6.977   2.168  15.147 -0.4250 -0.9564 -0.1144
  163DOPC  C31219773   7.188   2.152  15.150 -0.1296 -0.0861  0.0537
  163DOPC  H12X19774   7.203   2.149  15.040 -1.4860  0.1381 -0.1467
  163DOPC  H12Y19775   7.266   2.087  15.196 -0.2306  1.2947  2.2953
  163DOPC  C31319776   7.219   2.296  15.189 -0.5098  0.2169  0.0119
  163DOPC  H13X19777   7.307   2.333  15.132 -0.9434 -0.6487 -1.2504
  163DOPC  H13Y19778   7.137   2.360  15.152 -0.6222 -0.6387 -1.2767
  163DOPC  C31419779   7.218   2.323  15.339 -0.0019 -0.2531 -0.2274
  163DOPC  H14X19780   7.239   2.432  15.346 -0.4823 -0.1612 -0.2019
  163DOPC  H14Y19781   7.116   2.309  15.382  0.1278 -1.6589 -0.3282
  163DOPC  C31519782   7.327   2.248  15.420 -0.0963 -0.4158 -0.5364
  163DOPC  H15X19783   7.403   2.211  15.348  1.1320 -1.6887  1.3031
  163DOPC  H15Y19784   7.272   2.162  15.463  2.2228 -1.5833  0.2739
  163DOPC  C31619785   7.394   2.325  15.533  0.6408  0.8564 -0.4655
  163DOPC  H16X19786   7.314   2.379  15.587 -1.1321 -0.5437 -1.5480
  163DOPC  H16Y19787   7.436   2.250  15.603  0.6661  0.0186 -1.3418
  163DOPC  C31719788   7.500   2.421  15.483  0.6161  0.5720  0.7261
  163DOPC  H17X19789   7.558   2.374  15.401 -0.5120  2.1308 -1.0511
  163DOPC  H17Y19790   7.456   2.508  15.430  3.2114  1.0282 -0.8816
  163DOPC  C31819791   7.598   2.472  15.588 -0.3172 -0.6618 -0.1168
  163DOPC  H18X19792   7.668   2.550  15.550  0.2014 -2.3708 -3.0262
  163DOPC  H18Y19793   7.542   2.521  15.670 -0.5016  2.5148 -1.9812
  163DOPC  H18Z19794   7.662   2.387  15.620 -0.1564  0.7686  3.9232
  164DOPC     N19795   0.791   8.975  16.270 -0.0052 -0.0648  0.0671
  164DOPC   C1219796   0.734   8.856  16.189  0.3020 -0.1567  0.7742
  164DOPC  H12A19797   0.627   8.850  16.197  0.1068 -2.0099 -2.1714
  164DOPC  H12B19798   0.763   8.771  16.249 -1.2015  0.3164  2.2689
  164DOPC   C1319799   0.937   8.984  16.257  0.5292  0.3903 -0.3951
  164DOPC  H13A19800   0.991   8.903  16.304 -1.0497 -1.5432 -1.7704
  164DOPC  H13B19801   0.956   8.988  16.151 -0.4561  1.3117 -0.5547
  164DOPC  H13C19802   0.979   9.073  16.303  1.3417  0.9039 -2.0331
  164DOPC   C1419803   0.747   8.966  16.412 -0.1519 -0.4109  0.3797
  164DOPC  H14A19804   0.789   9.053  16.460 -2.1914  0.7585  0.1576
  164DOPC  H14B19805   0.642   8.987  16.432  0.5743  1.9766  2.1094
  164DOPC  H14C19806   0.794   8.880  16.457  4.0854  0.1869 -2.4061
  164DOPC   C1519807   0.729   9.100  16.221  0.1770  0.4164  0.2298
  164DOPC  H15A19808   0.624   9.087  16.196  0.2901 -0.2535  0.0906
  164DOPC  H15B19809   0.772   9.131  16.127  0.0174 -1.1763 -0.3948
  164DOPC  H15C19810   0.731   9.179  16.295 -0.2013 -1.4855  2.3705
  164DOPC   C1119811   0.777   8.827  16.050 -0.3772  0.6877  0.1380
  164DOPC  H11A19812   0.742   8.907  15.981  2.8549  1.4826 -0.7919
  164DOPC  H11B19813   0.888   8.832  16.044 -0.3396  0.2771  0.5106
  164DOPC     P19814   0.571   8.664  16.004 -0.1120  0.0405  0.3252
  164DOPC   O1319815   0.494   8.720  16.114  0.1895  0.2457 -0.2642
  164DOPC   O1419816   0.552   8.518  15.996 -0.4114 -0.2712 -0.4928
  164DOPC   O1219817   0.727   8.702  16.004  0.4010  0.1794  0.0004
  164DOPC   O1119818   0.523   8.729  15.870  0.0277 -0.0272  0.1307
  164DOPC    C119819   0.560   8.695  15.734 -0.2490 -0.6954  0.2466
  164DOPC    HA19820   0.472   8.665  15.673 -1.0553 -0.0918  1.0900
  164DOPC    HB19821   0.622   8.603  15.732 -1.2649 -1.3903 -1.7543
  164DOPC    C219822   0.644   8.806  15.666  0.1573 -0.0461  0.5981
  164DOPC    HS19823   0.735   8.819  15.730  1.5452 -2.0943 -0.8340
  164DOPC   O2119824   0.567   8.914  15.630  0.0128 -0.0682 -0.3530
  164DOPC   C2119825   0.644   9.020  15.616  0.0897 -0.3077  0.0178
  164DOPC   O2219826   0.766   9.020  15.619  0.2053 -0.2800 -0.1221
  164DOPC   C2219827   0.551   9.138  15.576  0.3083  0.5824 -0.3076
  164DOPC   H2R19828   0.464   9.149  15.644  1.3463 -0.3370  1.2248
  164DOPC   H2S19829   0.530   9.114  15.470  0.7478 -0.0359 -0.2590
  164DOPC    C319830   0.692   8.727  15.535  0.6253 -0.5297  0.4315
  164DOPC    HX19831   0.598   8.695  15.483  1.2580 -0.0509 -1.0805
  164DOPC    HY19832   0.748   8.640  15.573  0.0497  0.0837  2.8320
  164DOPC   O3119833   0.763   8.812  15.440 -0.1251 -0.5891 -0.4083
  164DOPC   C3119834   0.895   8.805  15.441  0.2487  0.5567 -0.0163
  164DOPC   O3219835   0.960   8.745  15.530  0.4559 -0.8735 -0.1292
  164DOPC   C3219836   0.947   8.878  15.327 -0.0517 -0.1227  0.1399
  164DOPC   H2X19837   0.868   8.907  15.255  1.6595 -0.2015 -1.8966
  164DOPC   H2Y19838   1.006   8.961  15.370 -1.5065  1.2416 -0.4452
  164DOPC   C2319839   0.620   9.272  15.583 -0.5631  0.1719 -0.5131
  164DOPC   H3R19840   0.715   9.275  15.526 -0.1797 -0.1257  0.1042
  164DOPC   H3S19841   0.640   9.297  15.689  2.4626 -1.4215 -0.5989
  164DOPC   C2419842   0.529   9.383  15.529 -0.3380  0.1892  0.3306
  164DOPC   H4R19843   0.573   9.484  15.545 -1.3357  1.0490 -1.9080
  164DOPC   H4S19844   0.429   9.400  15.574  0.1463  1.2968  1.0193
  164DOPC   C2519845   0.510   9.373  15.379  0.3499  0.2734  0.7084
  164DOPC   H5R19846   0.412   9.327  15.354  0.6272  0.5392 -0.9662
  164DOPC   H5S19847   0.590   9.311  15.335  0.5553 -0.7725  2.4546
  164DOPC   C2619848   0.522   9.509  15.302 -0.2303 -0.7574 -0.6642
  164DOPC   H6R19849   0.613   9.563  15.334 -1.2342 -1.3661  3.8331
  164DOPC   H6S19850   0.435   9.567  15.339 -0.7371  0.1518 -3.0714
  164DOPC   C2719851   0.523   9.492  15.150  0.3971 -0.6314  0.3036
  164DOPC   H7R19852   0.454   9.405  15.140 -0.7260  0.0837  1.4680
  164DOPC   H7S19853   0.625   9.462  15.117  0.2898 -0.5699 -0.0813
  164DOPC   C2819854   0.459   9.616  15.082 -0.1350  0.0421  0.9650
  164DOPC   H8R19855   0.364   9.633  15.136  1.1290  1.9691  2.7625
  164DOPC   H8S19856   0.437   9.583  14.978  1.6927 -1.8341  1.0876
  164DOPC   C2919857   0.547   9.739  15.086  0.4316  0.0611  0.0423
  164DOPC   H9R19858   0.559   9.791  15.182  1.9300  1.2361 -0.7417
  164DOPC  C21019859   0.634   9.774  14.992 -0.8441  0.2728 -0.6635
  164DOPC  H10R19860   0.686   9.869  15.011 -2.5657  0.6888  2.7871
  164DOPC  C21119861   0.664   9.710  14.859 -0.1613  0.4232 -0.0641
  164DOPC  H11R19862   0.572   9.677  14.806 -0.6210  0.1353  0.8752
  164DOPC  H11S19863   0.711   9.610  14.873 -1.0451 -0.0118 -0.1063
  164DOPC  C21219864   0.750   9.789  14.753 -0.0843 -0.3422 -0.5073
  164DOPC  H12R19865   0.704   9.887  14.730 -0.3871  0.5180  3.1161
  164DOPC  H12S19866   0.750   9.713  14.671  0.1018 -1.3420  0.3936
  164DOPC  C21319867   0.893   9.811  14.782 -0.1091 -0.8851  1.0226
  164DOPC  H13R19868   0.950   9.716  14.767  0.7024 -0.1589 -0.7590
  164DOPC  H13S19869   0.916   9.852  14.882 -2.6754  2.8671  0.2627
  164DOPC  C21419870   0.943   9.903  14.667 -0.1948 -0.3971  0.3762
  164DOPC  H14R19871   0.922  10.009  14.694 -2.0196 -0.9762  1.4071
  164DOPC  H14S19872   0.897   9.890  14.567 -1.3546  0.0855  0.8247
  164DOPC  C21519873   1.098   9.902  14.660 -0.1556 -0.0856  0.0885
  164DOPC  H15R19874   1.135   9.934  14.560 -0.1325 -0.3044  0.0277
  164DOPC  H15S19875   1.123   9.795  14.674 -1.8028 -0.2711  2.0686
  164DOPC  C21619876   1.165   9.985  14.773  0.2211 -0.0400  0.3182
  164DOPC  H16R19877   1.128   9.955  14.873  2.2481 -0.4839  0.9717
  164DOPC  H16S19878   1.126  10.087  14.751 -0.8055 -0.5991 -0.5099
  164DOPC  C21719879   1.320   9.996  14.773 -0.2338 -0.4278 -0.3326
  164DOPC  H17R19880   1.371  10.033  14.682  0.1406 -0.1907 -0.0272
  164DOPC  H17S19881   1.359   9.892  14.781 -3.3155 -2.0600 -3.3621
  164DOPC  C21819882   1.366  10.073  14.894 -0.0885 -0.1703  0.2270
  164DOPC  H18R19883   1.477  10.080  14.894 -0.0682 -0.2904 -1.4462
  164DOPC  H18S19884   1.345  10.022  14.991  1.4992 -0.1550  0.6091
  164DOPC  H18T19885   1.319  10.174  14.888 -0.4360 -0.3970 -0.9711
  164DOPC   C3319886   1.049   8.790  15.251 -0.1208 -0.0520  0.3149
  164DOPC   H3X19887   1.000   8.693  15.232 -2.5043  1.0617  0.3433
  164DOPC   H3Y19888   1.140   8.772  15.312  0.3282 -0.4806 -0.4686
  164DOPC   C3419889   1.099   8.848  15.114  0.0324 -0.8948 -0.0638
  164DOPC   H4X19890   1.127   8.955  15.130 -2.9126 -0.3008  1.8264
  164DOPC   H4Y19891   1.007   8.847  15.053 -0.1020  0.8558  0.0499
  164DOPC   C3519892   1.210   8.765  15.047  0.3273  0.4923  0.2636
  164DOPC   H5X19893   1.171   8.663  15.032  0.6421  0.1620  1.5839
  164DOPC   H5Y19894   1.303   8.769  15.108  0.1845  2.4252  0.4431
  164DOPC   C3619895   1.234   8.811  14.896  0.1744  0.3210 -0.9106
  164DOPC   H6X19896   1.293   8.736  14.840  0.7179 -0.7013  0.9246
  164DOPC   H6Y19897   1.137   8.838  14.849  0.0525 -0.3203 -1.0297
  164DOPC   C3719898   1.315   8.938  14.885 -0.0065 -0.0704  0.0369
  164DOPC   H7X19899   1.265   9.031  14.918 -1.6032 -0.6166 -0.7496
  164DOPC   H7Y19900   1.411   8.930  14.941  1.2874 -0.3947 -2.1071
  164DOPC   C3819901   1.358   8.971  14.740 -0.8137  0.4551  0.9339
  164DOPC   H8X19902   1.264   8.971  14.681 -0.6130 -2.3161  0.4560
  164DOPC   H8Y19903   1.395   8.876  14.695 -2.2178  0.5393 -0.4997
  164DOPC   C3919904   1.454   9.085  14.712  1.0262 -0.6130  0.4801
  164DOPC   H9X19905   1.413   9.186  14.727 -1.8836 -1.1564 -2.4965
  164DOPC  C31019906   1.578   9.076  14.665  0.0618  0.1274  0.1815
  164DOPC  H10X19907   1.628   9.168  14.633  1.6048 -0.6249  0.3521
  164DOPC  C31119908   1.656   8.952  14.640  0.2755 -0.5696  0.1417
  164DOPC  H11X19909   1.607   8.862  14.684  0.8902 -1.4650 -0.9301
  164DOPC  H11Y19910   1.758   8.963  14.683  0.0588  2.2685  0.0855
  164DOPC  C31219911   1.682   8.915  14.498 -0.4188 -1.0198 -0.8050
  164DOPC  H12X19912   1.716   8.809  14.494  0.6223 -0.7242 -0.1078
  164DOPC  H12Y19913   1.741   8.992  14.444 -1.1279 -0.0105 -0.1599
  164DOPC  C31319914   1.553   8.896  14.424 -0.1239 -0.8941  0.2342
  164DOPC  H13X19915   1.495   8.814  14.472 -0.3404 -1.1775 -0.4900
  164DOPC  H13Y19916   1.496   8.992  14.424 -1.5582 -1.6998  1.8740
  164DOPC  C31419917   1.563   8.855  14.274 -0.2970  0.5067 -0.1048
  164DOPC  H14X19918   1.456   8.848  14.244 -0.0090 -2.8455 -0.6213
  164DOPC  H14Y19919   1.611   8.757  14.257  0.5523  0.8256  0.4160
  164DOPC  C31519920   1.623   8.955  14.172 -0.2765  0.4139  0.0222
  164DOPC  H15X19921   1.730   8.969  14.201 -0.2655  1.1303 -0.3509
  164DOPC  H15Y19922   1.574   9.053  14.187  1.1479  1.2010 -0.2357
  164DOPC  C31619923   1.606   8.911  14.030 -1.1499  0.2938  0.4301
  164DOPC  H16X19924   1.674   8.828  14.000 -1.4468  0.7059 -1.5465
  164DOPC  H16Y19925   1.506   8.862  14.031  0.1734 -2.6490  0.9233
  164DOPC  C31719926   1.617   9.030  13.925 -0.8171  0.1466 -0.5017
  164DOPC  H17X19927   1.563   9.005  13.831 -1.8463  0.7855 -0.0981
  164DOPC  H17Y19928   1.540   9.103  13.958  0.7422  1.0953  1.2078
  164DOPC  C31819929   1.762   9.084  13.904  0.1678 -0.5401  0.0200
  164DOPC  H18X19930   1.792   9.144  13.992  0.9347  0.2740 -0.7764
  164DOPC  H18Y19931   1.815   8.986  13.907 -0.1769 -0.8129 -1.7788
  164DOPC  H18Z19932   1.775   9.133  13.805 -0.3505  1.1046  0.7295
  165DOPC     N19933   5.986   0.834  16.960  0.0489 -0.1849  0.8524
  165DOPC   C1219934   5.935   0.979  16.949 -0.3312 -0.0380  0.5483
  165DOPC  H12A19935   5.902   1.014  17.045 -0.6174  0.6655  0.1964
  165DOPC  H12B19936   5.837   0.973  16.902 -1.2069 -0.3038  2.3176
  165DOPC   C1319937   5.892   0.748  17.041 -0.2232 -0.5664 -0.2073
  165DOPC  H13A19938   5.886   0.788  17.141  1.5221 -1.3325  0.2472
  165DOPC  H13B19939   5.793   0.739  17.001 -0.6099 -0.3538  0.6846
  165DOPC  H13C19940   5.925   0.648  17.063 -1.0986 -0.5697  1.2265
  165DOPC   C1419941   6.116   0.831  17.025 -0.7551 -0.5116  0.2181
  165DOPC  H14A19942   6.188   0.894  16.976  0.6884  0.0740  2.9145
  165DOPC  H14B19943   6.111   0.862  17.129 -1.1090  0.8767 -0.1840
  165DOPC  H14C19944   6.156   0.732  17.019  0.5293  0.0561 -1.1138
  165DOPC   C1519945   5.992   0.764  16.825 -0.0432 -0.3664 -0.2037
  165DOPC  H15A19946   6.065   0.819  16.768  0.0515  0.8672  1.0503
  165DOPC  H15B19947   5.893   0.769  16.783 -0.7975  1.4220  1.6106
  165DOPC  H15C19948   6.022   0.661  16.826  0.6874 -0.2225  2.5759
  165DOPC   C1119949   6.012   1.084  16.862  0.4595 -1.0084  0.3763
  165DOPC  H11A19950   6.114   1.100  16.905 -0.1473  1.1012  1.1826
  165DOPC  H11B19951   6.026   1.056  16.756 -2.1485 -1.1365  0.0171
  165DOPC     P19952   5.813   1.229  16.781  0.1412  0.3493  0.0319
  165DOPC   O1319953   5.742   1.346  16.823 -0.4302 -0.3674  0.1816
  165DOPC   O1419954   5.735   1.107  16.765  0.2536 -0.5753 -0.2808
  165DOPC   O1219955   5.939   1.205  16.872 -0.2579  0.1610  0.4810
  165DOPC   O1119956   5.894   1.255  16.652  0.0388  0.1142  0.3990
  165DOPC    C119957   6.001   1.347  16.650 -0.3870 -0.2384  0.5229
  165DOPC    HA19958   6.095   1.304  16.693  0.7195  2.8812  1.5246
  165DOPC    HB19959   5.969   1.434  16.711 -2.1949 -0.7904  0.4211
  165DOPC    C219960   6.019   1.422  16.513  0.3876 -0.1884  0.1565
  165DOPC    HS19961   6.054   1.524  16.537  2.2018 -0.2621 -1.8725
  165DOPC   O2119962   5.905   1.410  16.428 -0.2145 -0.3181 -0.0753
  165DOPC   C2119963   5.808   1.491  16.474  0.8658  0.1600  0.4122
  165DOPC   O2219964   5.820   1.570  16.563  0.2257 -0.4735 -0.2297
  165DOPC   C2219965   5.677   1.473  16.382  0.0055 -0.2925  0.2794
  165DOPC   H2R19966   5.594   1.423  16.437 -2.6360  1.5091 -1.8141
  165DOPC   H2S19967   5.707   1.399  16.304 -1.1323 -1.0780  0.5639
  165DOPC    C319968   6.149   1.368  16.440  0.1285  0.1101  0.2628
  165DOPC    HX19969   6.120   1.277  16.384  3.4472  0.2692 -1.9974
  165DOPC    HY19970   6.217   1.352  16.526 -0.0385 -0.1985  0.3339
  165DOPC   O3119971   6.194   1.459  16.336  0.2405  0.4871 -0.4691
  165DOPC   C3119972   6.268   1.567  16.366 -0.3328 -0.0547  0.4027
  165DOPC   O3219973   6.309   1.605  16.477 -0.6241 -0.3557 -0.0575
  165DOPC   C3219974   6.291   1.653  16.244 -1.3199 -0.2842 -0.0901
  165DOPC   H2X19975   6.191   1.674  16.200 -0.5123  0.7296 -1.5355
  165DOPC   H2Y19976   6.340   1.743  16.288 -1.3552 -1.5742  2.7810
  165DOPC   C2319977   5.630   1.600  16.308 -0.3607  0.1316 -0.4013
  165DOPC   H3R19978   5.626   1.684  16.380 -0.7960 -0.1699 -0.0681
  165DOPC   H3S19979   5.531   1.573  16.265  0.0931 -2.3715 -0.0323
  165DOPC   C2419980   5.719   1.650  16.188  0.3625  0.8918 -0.0330
  165DOPC   H4R19981   5.809   1.695  16.236 -0.1227  2.0799 -0.2132
  165DOPC   H4S19982   5.660   1.735  16.149 -1.1104  1.0922  2.4505
  165DOPC   C2519983   5.749   1.557  16.075 -0.7912 -0.3958 -0.3404
  165DOPC   H5R19984   5.649   1.542  16.029 -1.2481 -0.3172  0.5953
  165DOPC   H5S19985   5.776   1.457  16.116  0.7522  0.1133 -0.0676
  165DOPC   C2619986   5.853   1.603  15.972 -0.3676  0.2136 -0.3800
  165DOPC   H6R19987   5.956   1.566  15.993  0.2914  1.3004 -1.5522
  165DOPC   H6S19988   5.853   1.711  15.994  0.4251 -0.2458  2.3132
  165DOPC   C2719989   5.813   1.552  15.829 -0.3720  0.1893  0.4097
  165DOPC   H7R19990   5.712   1.591  15.804 -1.1903 -0.2924  2.6389
  165DOPC   H7S19991   5.799   1.442  15.823  1.2107  0.0459 -1.6057
  165DOPC   C2819992   5.928   1.580  15.733  0.4005  0.3135 -0.0921
  165DOPC   H8R19993   6.007   1.503  15.746 -0.2741 -0.0914  1.8618
  165DOPC   H8S19994   5.964   1.680  15.764 -0.9472  0.7395  0.1583
  165DOPC   C2919995   5.877   1.596  15.591 -0.3363  0.1638  0.1930
  165DOPC   H9R19996   5.806   1.680  15.584  1.1495  1.4626  0.0684
  165DOPC  C21019997   5.929   1.533  15.481 -0.0409  0.6997 -0.2170
  165DOPC  H10R19998   5.892   1.566  15.383 -0.8698  0.1073 -0.1109
  165DOPC  C21119999   6.038   1.432  15.477  0.1478  0.3409  0.3387
  165DOPC  H11R20000   6.032   1.375  15.572 -0.2923 -0.5314 -0.2004
  165DOPC  H11S20001   6.140   1.476  15.468 -0.0326  0.7033  0.0188
  165DOPC  C21220002   6.033   1.343  15.343  0.0724 -0.0512  0.3113
  165DOPC  H12R20003   5.927   1.347  15.310 -0.4181  0.0879  1.8430
  165DOPC  H12S20004   6.071   1.239  15.354  1.3613 -0.3875 -4.8552
  165DOPC  C21320005   6.110   1.412  15.232 -0.1446  0.0745  0.7142
  165DOPC  H13R20006   6.218   1.390  15.248 -0.1339  0.4126  1.1535
  165DOPC  H13S20007   6.098   1.522  15.242  0.3619  0.0733  1.4550
  165DOPC  C21420008   6.075   1.362  15.084  0.1540  0.0681 -0.0617
  165DOPC  H14R20009   5.968   1.385  15.069 -0.6990 -2.5898  1.3433
  165DOPC  H14S20010   6.076   1.251  15.079 -2.4381 -0.1304  1.7648
  165DOPC  C21520011   6.174   1.402  14.980  0.0669  0.3435 -0.5213
  165DOPC  H15R20012   6.276   1.371  15.013  0.0612 -0.3939 -1.1743
  165DOPC  H15S20013   6.167   1.513  14.978 -0.0409  0.3307 -0.9087
  165DOPC  C21620014   6.150   1.352  14.839  0.4892 -0.0432  0.5940
  165DOPC  H16R20015   6.045   1.366  14.806  0.4709 -0.7014  0.3592
  165DOPC  H16S20016   6.162   1.242  14.834  1.8495  0.1379 -3.2718
  165DOPC  C21720017   6.238   1.418  14.733  0.1267  0.5313 -0.1140
  165DOPC  H17R20018   6.344   1.422  14.768  0.0069 -1.3059  0.5421
  165DOPC  H17S20019   6.213   1.525  14.717 -2.3064 -0.0880 -0.8179
  165DOPC  C21820020   6.231   1.359  14.591 -0.0693 -0.5541 -0.2049
  165DOPC  H18R20021   6.259   1.436  14.517  0.0670 -0.7657 -0.3750
  165DOPC  H18S20022   6.126   1.337  14.563  0.0205 -0.0732 -0.9332
  165DOPC  H18T20023   6.292   1.267  14.579  1.0340 -0.2391  2.2145
  165DOPC   C3320024   6.389   1.585  16.138 -0.2445  0.4231  0.1487
  165DOPC   H3X20025   6.473   1.532  16.186 -0.6887 -0.0665  0.3931
  165DOPC   H3Y20026   6.430   1.666  16.074 -1.9968 -0.1854 -1.8921
  165DOPC   C3420027   6.308   1.487  16.045 -0.2957 -0.3399  0.5782
  165DOPC   H4X20028   6.210   1.532  16.017 -1.1243 -2.6969 -0.5187
  165DOPC   H4Y20029   6.282   1.394  16.100 -1.4359 -1.5459 -1.8606
  165DOPC   C3520030   6.414   1.438  15.936  0.2257 -0.8828 -0.9352
  165DOPC   H5X20031   6.509   1.424  15.992 -1.2242 -3.2855  1.1507
  165DOPC   H5Y20032   6.418   1.518  15.859  2.3926  0.7170  0.7178
  165DOPC   C3620033   6.376   1.296  15.876  0.0050 -0.5344 -0.6639
  165DOPC   H6X20034   6.468   1.235  15.865 -0.0401 -0.5848 -0.7542
  165DOPC   H6Y20035   6.317   1.239  15.951 -0.2437  1.7393  0.9685
  165DOPC   C3720036   6.321   1.313  15.732  0.7832 -0.3973 -0.8595
  165DOPC   H7X20037   6.399   1.348  15.661  2.1982  1.0965  1.3192
  165DOPC   H7Y20038   6.248   1.397  15.735 -1.9225 -2.5630  2.3594
  165DOPC   C3820039   6.252   1.185  15.681 -0.2044 -0.0635  0.0336
  165DOPC   H8X20040   6.214   1.207  15.579  0.7238  2.1805  0.1120
  165DOPC   H8Y20041   6.154   1.166  15.730  0.1537 -0.3032  0.6722
  165DOPC   C3920042   6.331   1.053  15.700 -0.7528 -0.0063  0.7100
  165DOPC   H9X20043   6.358   1.030  15.805 -2.1183  0.6670  1.2260
  165DOPC  C31020044   6.362   0.964  15.608 -0.7916 -0.6928  0.6615
  165DOPC  H10X20045   6.393   0.867  15.648  0.9678  0.1315  1.3894
  165DOPC  C31120046   6.345   0.977  15.459 -1.2260 -0.0139 -0.4463
  165DOPC  H11X20047   6.447   0.972  15.415 -0.1046 -1.6612  2.1320
  165DOPC  H11Y20048   6.311   1.079  15.428 -0.5826 -0.0419 -1.2790
  165DOPC  C31220049   6.264   0.871  15.381  0.1082 -0.5302  0.0909
  165DOPC  H12X20050   6.268   0.902  15.274 -2.8913 -0.2335 -0.0308
  165DOPC  H12Y20051   6.158   0.862  15.413  0.5031  0.7257  1.9135
  165DOPC  C31320052   6.329   0.737  15.391 -0.0599 -0.5868 -0.1784
  165DOPC  H13X20053   6.440   0.735  15.398 -0.1770 -1.1295  2.9015
  165DOPC  H13Y20054   6.304   0.678  15.482 -0.0112 -1.0968 -0.4942
  165DOPC  C31420055   6.285   0.641  15.281 -0.6971 -1.1895 -0.3704
  165DOPC  H14X20056   6.178   0.619  15.299 -0.7324 -0.6610  0.0981
  165DOPC  H14Y20057   6.300   0.700  15.188 -0.2628  2.5093  1.8474
  165DOPC  C31520058   6.360   0.503  15.273 -0.0059  0.1584 -0.2382
  165DOPC  H15X20059   6.380   0.456  15.371 -3.3646  1.0437  1.0208
  165DOPC  H15Y20060   6.464   0.524  15.241  1.3759 -0.4129  3.4589
  165DOPC  C31620061   6.294   0.400  15.178  0.2809 -0.1004 -0.7404
  165DOPC  H16X20062   6.188   0.385  15.209  0.4521 -0.9608 -0.5526
  165DOPC  H16Y20063   6.288   0.441  15.075  0.9467 -0.0836 -0.7818
  165DOPC  C31720064   6.360   0.260  15.185  0.5667 -1.3654  0.5675
  165DOPC  H17X20065   6.342   0.217  15.286  2.2892  1.4315  2.2000
  165DOPC  H17Y20066   6.316   0.193  15.109  1.5911 -1.1782 -0.2187
  165DOPC  C31820067   6.510   0.268  15.154  0.3126  0.7929 -0.3034
  165DOPC  H18X20068   6.528   0.297  15.048 -3.1682 -1.3847 -1.6708
  165DOPC  H18Y20069   6.567   0.339  15.218  1.1460  1.2075 -1.4562
  165DOPC  H18Z20070   6.553   0.166  15.158  0.7430  0.9253 -1.2753
  166DOPC     N20071   8.235   1.276  16.394 -0.1051  0.4908 -0.0669
  166DOPC   C1220072   8.113   1.222  16.315  0.3269 -0.3616 -0.2895
  166DOPC  H12A20073   8.068   1.138  16.367  1.0066 -1.4094 -1.3629
  166DOPC  H12B20074   8.142   1.190  16.216 -2.6296  0.5384 -1.5847
  166DOPC   C1320075   8.294   1.385  16.304  0.0371  0.3722 -0.1536
  166DOPC  H13A20076   8.391   1.408  16.346 -0.8139  0.1312  2.0429
  166DOPC  H13B20077   8.309   1.343  16.205 -1.5983 -3.4069  0.9976
  166DOPC  H13C20078   8.239   1.478  16.301  1.0887  1.0800  1.2383
  166DOPC   C1420079   8.330   1.166  16.422 -0.3495 -0.4312  0.1704
  166DOPC  H14A20080   8.339   1.102  16.336 -1.1711  0.8376 -0.9110
  166DOPC  H14B20081   8.431   1.202  16.435 -0.4795 -0.2869  0.8108
  166DOPC  H14C20082   8.306   1.116  16.515 -0.1174  1.0956  1.0934
  166DOPC   C1520083   8.191   1.331  16.524 -1.0520 -0.3818 -0.2605
  166DOPC  H15A20084   8.158   1.257  16.596 -3.0441 -0.3643 -1.1036
  166DOPC  H15B20085   8.118   1.410  16.516 -1.0864 -0.3894 -0.0168
  166DOPC  H15C20086   8.275   1.373  16.577 -1.3675 -0.2141  0.1149
  166DOPC   C1120087   8.007   1.322  16.270 -0.1399  0.3722  0.6092
  166DOPC  H11A20088   8.053   1.393  16.197 -2.1525  1.3424  0.2195
  166DOPC  H11B20089   7.931   1.270  16.208 -1.7670  0.6895  2.2488
  166DOPC     P20090   7.828   1.348  16.462  0.0989  0.0668 -0.0788
  166DOPC   O1320091   7.787   1.458  16.556  0.2861  0.3361 -0.0722
  166DOPC   O1420092   7.861   1.216  16.519 -0.0664  0.5660 -0.4525
  166DOPC   O1220093   7.946   1.393  16.371  0.6168 -0.4369 -0.3183
  166DOPC   O1120094   7.708   1.336  16.361 -0.1622 -0.4165  0.7515
  166DOPC    C120095   7.664   1.452  16.282  0.8636 -0.5753 -0.4711
  166DOPC    HA20096   7.738   1.475  16.202  0.5026 -3.0823 -1.6432
  166DOPC    HB20097   7.641   1.543  16.342 -1.6775 -0.3423 -1.6707
  166DOPC    C220098   7.537   1.410  16.204 -0.0270 -0.1906  0.5531
  166DOPC    HS20099   7.461   1.368  16.273 -1.1137  0.4711 -0.2033
  166DOPC   O2120100   7.576   1.323  16.098 -0.0995  0.2153 -0.3466
  166DOPC   C2120101   7.487   1.257  16.027  1.3672 -0.0772 -0.3718
  166DOPC   O2220102   7.375   1.237  16.062  0.4481 -0.5531  0.4925
  166DOPC   C2220103   7.539   1.218  15.887  0.4052 -0.0937 -0.0624
  166DOPC   H2R20104   7.650   1.221  15.893  0.4695  2.7659 -1.3395
  166DOPC   H2S20105   7.500   1.291  15.813  0.7421  1.3756  1.1556
  166DOPC    C320106   7.474   1.541  16.142 -0.0761 -0.3209  0.0194
  166DOPC    HX20107   7.546   1.576  16.065 -0.9434  0.0113 -0.6663
  166DOPC    HY20108   7.480   1.625  16.214 -0.3397 -0.5897  0.3615
  166DOPC   O3120109   7.338   1.529  16.083 -0.1020  0.7185  0.1095
  166DOPC   C3120110   7.242   1.518  16.174 -0.5598  0.3280  0.0104
  166DOPC   O3220111   7.260   1.503  16.296 -0.7997 -0.1991  0.5703
  166DOPC   C3220112   7.099   1.535  16.123 -0.0034 -0.2594 -0.3073
  166DOPC   H2X20113   7.037   1.541  16.216  1.0938 -1.2553  0.5220
  166DOPC   H2Y20114   7.097   1.630  16.065  0.1491 -0.8732 -1.3391
  166DOPC   C2320115   7.496   1.084  15.821  0.5253  0.2687 -0.1994
  166DOPC   H3R20116   7.387   1.063  15.818  0.6598 -0.5941  0.4216
  166DOPC   H3S20117   7.539   1.002  15.884  0.5813  1.4249  1.3377
  166DOPC   C2420118   7.549   1.080  15.678 -0.2879 -0.6584 -0.4277
  166DOPC   H4R20119   7.655   1.114  15.686 -0.3694 -0.7959  2.6424
  166DOPC   H4S20120   7.491   1.153  15.617  0.3507  1.0165  0.9017
  166DOPC   C2520121   7.552   0.944  15.607 -0.3158 -0.2158 -0.2022
  166DOPC   H5R20122   7.447   0.910  15.591 -1.1844  1.8494  0.7582
  166DOPC   H5S20123   7.594   0.869  15.677  0.1303 -0.4990 -0.7639
  166DOPC   C2620124   7.631   0.948  15.471  0.2975 -0.5269  0.8196
  166DOPC   H6R20125   7.740   0.946  15.494  0.4808  0.9835  0.1917
  166DOPC   H6S20126   7.600   1.038  15.413  1.7844 -0.3660  0.2220
  166DOPC   C2720127   7.611   0.818  15.391 -0.3491  0.1384 -0.3787
  166DOPC   H7R20128   7.517   0.772  15.427 -1.0414  1.5509 -0.3288
  166DOPC   H7S20129   7.687   0.747  15.430  0.2599  1.2846  0.6145
  166DOPC   C2820130   7.600   0.831  15.233 -0.7793  0.0250 -0.3867
  166DOPC   H8R20131   7.688   0.891  15.199 -1.0748  0.1527 -0.9553
  166DOPC   H8S20132   7.508   0.881  15.196 -0.2392 -0.4537 -2.5634
  166DOPC   C2920133   7.609   0.686  15.180  0.1756 -0.2672 -0.1709
  166DOPC   H9R20134   7.520   0.626  15.159  0.8236 -1.3167 -0.0127
  166DOPC  C21020135   7.723   0.624  15.160 -0.2822  0.4329  0.3672
  166DOPC  H10R20136   7.724   0.521  15.121  1.5251  0.8556 -0.7962
  166DOPC  C21120137   7.867   0.671  15.169  0.0514 -0.8969 -0.7686
  166DOPC  H11R20138   7.859   0.743  15.254 -1.5510 -2.2659  0.3114
  166DOPC  H11S20139   7.910   0.726  15.083  0.9528  1.8710  1.2832
  166DOPC  C21220140   7.960   0.554  15.214 -0.0676  0.8625  0.6328
  166DOPC  H12R20141   7.905   0.485  15.281 -2.4133 -0.7246 -2.6131
  166DOPC  H12S20142   8.048   0.597  15.267 -0.3922  1.5151  0.6462
  166DOPC  C21320143   8.015   0.485  15.088 -0.1912  0.3908 -0.0442
  166DOPC  H13R20144   8.048   0.562  15.015  0.9839 -1.5361 -1.6474
  166DOPC  H13S20145   7.932   0.431  15.038 -0.1360  0.7529 -0.5297
  166DOPC  C21420146   8.134   0.386  15.102 -0.1551 -0.7380  0.4409
  166DOPC  H14R20147   8.209   0.432  15.170  1.0544  0.1389 -1.3836
  166DOPC  H14S20148   8.181   0.357  15.005  1.1453 -1.6278  1.3061
  166DOPC  C21520149   8.088   0.251  15.161 -1.4404  0.3557  0.2187
  166DOPC  H15R20150   8.038   0.194  15.080  1.1308 -0.4701 -0.8937
  166DOPC  H15S20151   8.019   0.270  15.246 -1.5366 -2.2625  0.7929
  166DOPC  C21620152   8.204   0.161  15.202 -0.3372 -0.4438 -0.0051
  166DOPC  H16R20153   8.268   0.219  15.271  0.3779 -0.8863 -0.2840
  166DOPC  H16S20154   8.264   0.132  15.113  0.6211 -1.1309  0.8460
  166DOPC  C21720155   8.164   0.039  15.287 -0.2340  0.0332 -0.2991
  166DOPC  H17R20156   8.080  -0.012  15.237 -0.3016  1.6794 -1.9808
  166DOPC  H17S20157   8.135   0.072  15.389 -1.8332  0.7188 -0.9524
  166DOPC  C21820158   8.294  -0.048  15.297 -0.2810  0.0050 -0.5547
  166DOPC  H18R20159   8.337  -0.039  15.399 -1.1363  0.1039 -0.1912
  166DOPC  H18S20160   8.378  -0.027  15.227  0.0449 -1.6517 -0.6920
  166DOPC  H18T20161   8.256  -0.151  15.278 -2.8148  0.6177  0.6645
  166DOPC   C3320162   7.044   1.410  16.051  0.0221 -0.4476 -0.4299
  166DOPC   H3X20163   7.044   1.323  16.120 -1.4109 -0.8954 -0.9676
  166DOPC   H3Y20164   7.107   1.384  15.963  1.4466 -2.8000  1.1779
  166DOPC   C3420165   6.894   1.434  16.013 -0.7997  0.3582 -1.1686
  166DOPC   H4X20166   6.834   1.439  16.107  1.8548 -0.2180  0.6689
  166DOPC   H4Y20167   6.860   1.340  15.964  0.8196  0.3462 -2.3470
  166DOPC   C3520168   6.869   1.570  15.935 -0.0137  0.3267 -0.4548
  166DOPC   H5X20169   6.925   1.566  15.839 -1.1209  0.2742 -1.1157
  166DOPC   H5Y20170   6.899   1.667  15.981  0.8858  0.5287 -1.4199
  166DOPC   C3620171   6.722   1.587  15.910  1.1168  0.0219 -0.3173
  166DOPC   H6X20172   6.689   1.498  15.853  2.1168  0.8417 -2.2491
  166DOPC   H6Y20173   6.663   1.582  16.004 -0.5750  1.8555 -1.1978
  166DOPC   C3720174   6.694   1.713  15.829 -0.1636  0.3325  0.9069
  166DOPC   H7X20175   6.757   1.712  15.737 -2.6208 -1.0371 -0.8882
  166DOPC   H7Y20176   6.591   1.700  15.790 -0.0508 -1.3009  1.0627
  166DOPC   C3820177   6.698   1.848  15.890 -0.3343  0.5917  0.6373
  166DOPC   H8X20178   6.681   1.922  15.809  1.2087  1.3648  0.9738
  166DOPC   H8Y20179   6.805   1.852  15.920 -0.3657 -0.8532  1.0325
  166DOPC   C3920180   6.607   1.882  16.004 -0.2727 -0.2386 -0.0779
  166DOPC   H9X20181   6.593   1.800  16.075 -2.1349 -0.5794 -0.7809
  166DOPC  C31020182   6.521   1.987  16.011 -0.4328  0.6175 -0.5346
  166DOPC  H10X20183   6.470   2.023  16.102  0.5892  3.5184 -0.9888
  166DOPC  C31120184   6.510   2.093  15.897  0.1935  0.5370  0.0671
  166DOPC  H11X20185   6.408   2.102  15.852  0.4810  1.7114 -0.3746
  166DOPC  H11Y20186   6.586   2.085  15.817  0.1388  1.1057 -0.0433
  166DOPC  C31220187   6.527   2.234  15.959  0.0948  0.0307  0.3087
  166DOPC  H12X20188   6.624   2.236  16.012  1.9409 -0.0683 -2.8339
  166DOPC  H12Y20189   6.448   2.250  16.036  1.3085  2.8591  1.0888
  166DOPC  C31320190   6.518   2.350  15.867 -0.5304 -0.0967 -0.3554
  166DOPC  H13X20191   6.616   2.351  15.814  1.0570  0.2666  2.3957
  166DOPC  H13Y20192   6.430   2.337  15.801 -0.7669  0.2824 -0.1147
  166DOPC  C31420193   6.519   2.493  15.943 -0.1659  0.2892 -0.0654
  166DOPC  H14X20194   6.425   2.490  16.002 -1.3525  1.2243 -1.8234
  166DOPC  H14Y20195   6.608   2.512  16.007  0.6239 -3.7600  0.3446
  166DOPC  C31520196   6.515   2.615  15.839 -0.0829  0.2513 -0.0005
  166DOPC  H15X20197   6.504   2.712  15.892 -0.7777 -0.4232  1.1529
  166DOPC  H15Y20198   6.420   2.595  15.785  0.0217  0.1793 -0.1604
  166DOPC  C31620199   6.626   2.607  15.742 -0.4082 -0.5229  0.4957
  166DOPC  H16X20200   6.626   2.509  15.690  2.6585 -0.7242  0.6554
  166DOPC  H16Y20201   6.600   2.687  15.669  0.7679 -2.1492 -1.8613
  166DOPC  C31720202   6.775   2.641  15.785  0.7287  0.3825  0.1026
  166DOPC  H17X20203   6.807   2.587  15.877 -1.0748  0.2360  0.6856
  166DOPC  H17Y20204   6.834   2.611  15.695  0.3146 -2.0096  0.5423
  166DOPC  C31820205   6.793   2.789  15.809 -0.1236 -0.3741  0.4574
  166DOPC  H18X20206   6.895   2.805  15.851  0.7405 -1.0747 -1.2906
  166DOPC  H18Y20207   6.795   2.844  15.713 -0.5258  0.9837  1.1919
  166DOPC  H18Z20208   6.720   2.823  15.887 -0.2401  0.3754  0.0347
  167DOPC     N20209   5.727   2.820  16.913 -0.2901 -0.1993 -0.5687
  167DOPC   C1220210   5.786   2.703  16.828 -0.1993 -0.2952 -0.1904
  167DOPC  H12A20211   5.777   2.608  16.879  0.5119 -0.5686 -0.5680
  167DOPC  H12B20212   5.890   2.730  16.826 -0.4018  0.8361  1.7522
  167DOPC   C1320213   5.581   2.803  16.923  0.3058 -0.0755  0.1457
  167DOPC  H13A20214   5.529   2.877  16.983  0.4778 -0.4397  0.7548
  167DOPC  H13B20215   5.526   2.787  16.832 -0.5483  2.3130  0.1816
  167DOPC  H13C20216   5.565   2.710  16.976  1.6394 -0.5331 -0.2074
  167DOPC   C1420217   5.744   2.952  16.840 -0.3706 -0.3882 -0.0401
  167DOPC  H14A20218   5.668   3.024  16.867  1.1770  1.5569 -0.6608
  167DOPC  H14B20219   5.843   2.985  16.868 -0.1755 -1.0077  0.0139
  167DOPC  H14C20220   5.718   2.942  16.735 -1.9896  1.0101  0.1840
  167DOPC   C1520221   5.783   2.812  17.055  0.0702 -0.0444  0.4360
  167DOPC  H15A20222   5.715   2.875  17.111 -0.3578  0.9187 -1.0832
  167DOPC  H15B20223   5.876   2.862  17.076  0.0369 -0.5666  1.9744
  167DOPC  H15C20224   5.775   2.718  17.107 -3.1446 -1.0719 -1.6012
  167DOPC   C1120225   5.730   2.688  16.682  0.4391 -0.6643 -0.0379
  167DOPC  H11A20226   5.685   2.780  16.639 -0.4121  1.1328  4.2065
  167DOPC  H11B20227   5.810   2.647  16.616  0.2167 -1.2988  0.0734
  167DOPC     P20228   5.654   2.438  16.697 -0.2973 -0.1785  0.0468
  167DOPC   O1320229   5.531   2.355  16.689  0.2330 -0.2806 -0.1874
  167DOPC   O1420230   5.739   2.423  16.819  0.4533 -0.0782 -0.2221
  167DOPC   O1220231   5.617   2.586  16.680  0.3560  0.4003  0.1390
  167DOPC   O1120232   5.745   2.411  16.574  0.0020  0.4464  0.1675
  167DOPC    C120233   5.696   2.382  16.438 -0.2200  0.0526  0.1401
  167DOPC    HA20234   5.778   2.393  16.364  1.1112  0.9348  1.6593
  167DOPC    HB20235   5.609   2.449  16.416 -1.9609 -1.7451  1.2129
  167DOPC    C220236   5.645   2.232  16.423  0.3260  0.2761  0.4231
  167DOPC    HS20237   5.591   2.196  16.513  1.4617  2.1155  1.9041
  167DOPC   O2120238   5.762   2.148  16.395 -0.2695  0.2883 -0.6770
  167DOPC   C2120239   5.750   2.014  16.419 -1.3571  0.5172  0.7246
  167DOPC   O2220240   5.654   1.957  16.463  0.0558  0.4422 -0.5088
  167DOPC   C2220241   5.887   1.953  16.369  0.0892 -0.3947  0.0933
  167DOPC   H2R20242   5.883   1.846  16.399 -1.3586  0.0952  1.7821
  167DOPC   H2S20243   5.964   2.005  16.431 -0.6326  1.4277 -0.4855
  167DOPC    C320244   5.554   2.220  16.296  0.1922 -0.0905  0.0133
  167DOPC    HX20245   5.480   2.300  16.317 -1.1489 -1.1775 -0.3700
  167DOPC    HY20246   5.491   2.128  16.293 -1.6424  1.1190 -0.8259
  167DOPC   O3120247   5.623   2.248  16.174 -0.1352  0.0227 -0.5003
  167DOPC   C3120248   5.612   2.159  16.073  0.4169 -0.0159  0.0455
  167DOPC   O3220249   5.536   2.062  16.076 -0.3737  0.0367  0.1329
  167DOPC   C3220250   5.710   2.190  15.964 -0.0526 -0.8054  1.2268
  167DOPC   H2X20251   5.683   2.280  15.904  2.6587 -0.6698  0.0355
  167DOPC   H2Y20252   5.810   2.214  16.006  0.3790  4.7798 -1.9536
  167DOPC   C2320253   5.909   1.985  16.214 -0.0407  0.5009 -0.8020
  167DOPC   H3R20254   5.919   2.096  16.207  0.7932  0.4331 -0.7840
  167DOPC   H3S20255   5.819   1.948  16.161 -0.0511  1.2161 -1.2914
  167DOPC   C2420256   6.045   1.939  16.158 -0.5778 -0.0269  0.2057
  167DOPC   H4R20257   6.051   1.828  16.170 -1.0645  0.0592  1.3761
  167DOPC   H4S20258   6.130   1.980  16.217  0.0774 -0.6941 -0.2402
  167DOPC   C2520259   6.058   1.959  16.009  0.1714 -1.2697  0.9573
  167DOPC   H5R20260   6.067   2.066  15.979  4.6947 -2.2947 -2.4682
  167DOPC   H5S20261   5.955   1.928  15.982 -0.2536  1.5976 -1.2844
  167DOPC   C2620262   6.160   1.880  15.929  0.5982 -0.4777 -0.0239
  167DOPC   H6R20263   6.133   1.773  15.936  2.4024 -0.8889  1.5797
  167DOPC   H6S20264   6.252   1.889  15.992 -0.5296 -0.9831  1.7745
  167DOPC   C2720265   6.180   1.920  15.783  0.5148  0.1769 -0.0018
  167DOPC   H7R20266   6.182   2.031  15.776 -1.6395  0.3196  0.9362
  167DOPC   H7S20267   6.088   1.888  15.730  1.6841  1.7688 -3.3130
  167DOPC   C2820268   6.311   1.869  15.721 -0.0097 -0.2417 -0.1533
  167DOPC   H8R20269   6.309   1.759  15.714  0.6348 -0.2441 -0.3798
  167DOPC   H8S20270   6.402   1.893  15.779  0.6403  0.8831 -1.5579
  167DOPC   C2920271   6.327   1.918  15.581  0.2226  0.0593  0.0230
  167DOPC   H9R20272   6.338   2.027  15.572 -1.2031  0.1018 -2.0569
  167DOPC  C21020273   6.324   1.846  15.468  0.1787  0.1554  0.0788
  167DOPC  H10R20274   6.330   1.907  15.377  1.3468  1.2894  0.8794
  167DOPC  C21120275   6.318   1.702  15.444 -0.5331 -0.4287  0.2679
  167DOPC  H11R20276   6.223   1.684  15.389 -0.5399 -1.0198  0.4639
  167DOPC  H11S20277   6.312   1.635  15.532 -0.9351  1.2137  1.5250
  167DOPC  C21220278   6.429   1.637  15.346 -0.0828 -0.2866  0.2667
  167DOPC  H12R20279   6.530   1.658  15.387  0.7033 -2.3921 -0.4757
  167DOPC  H12S20280   6.407   1.528  15.356  1.8704 -0.8532 -1.1799
  167DOPC  C21320281   6.413   1.672  15.201  0.0327 -0.3667  0.1301
  167DOPC  H13R20282   6.428   1.780  15.182  1.8164 -0.8816 -1.7718
  167DOPC  H13S20283   6.314   1.636  15.167 -0.3816  1.1262 -0.3125
  167DOPC  C21420284   6.525   1.598  15.136  0.6533  0.4390  0.5331
  167DOPC  H14R20285   6.494   1.492  15.139  1.6259  0.0594 -1.3744
  167DOPC  H14S20286   6.617   1.616  15.196  1.3646  1.5692 -0.8255
  167DOPC  C21520287   6.559   1.635  14.988 -0.9305  0.1064 -0.5067
  167DOPC  H15R20288   6.469   1.626  14.923 -1.1977  0.2437 -0.1598
  167DOPC  H15S20289   6.644   1.574  14.951  0.4514  2.2614 -1.0750
  167DOPC  C21620290   6.607   1.779  14.965  0.5084  0.1513 -0.5212
  167DOPC  H16R20291   6.709   1.775  15.009  0.4063 -2.0574 -0.3810
  167DOPC  H16S20292   6.553   1.864  15.010  0.0472 -0.7342  0.6366
  167DOPC  C21720293   6.610   1.810  14.816 -0.5007 -0.1935  0.6045
  167DOPC  H17R20294   6.613   1.920  14.802 -0.8616 -0.0263  1.7632
  167DOPC  H17S20295   6.519   1.776  14.762 -0.3064  1.1227 -0.6040
  167DOPC  C21820296   6.741   1.757  14.749  0.0517  0.0266  0.2017
  167DOPC  H18R20297   6.749   1.799  14.646 -2.9644  1.1064  0.2887
  167DOPC  H18S20298   6.739   1.646  14.753 -1.0601  0.0510  0.7737
  167DOPC  H18T20299   6.827   1.796  14.808 -0.7465 -0.2305  1.5728
  167DOPC   C3320300   5.714   2.081  15.853  0.4393  0.5363 -0.1104
  167DOPC   H3X20301   5.613   2.051  15.817  0.5844  0.3020 -0.3256
  167DOPC   H3Y20302   5.756   1.993  15.906 -1.6755  0.7849  2.1870
  167DOPC   C3420303   5.799   2.104  15.737  0.0736 -0.4394 -0.6364
  167DOPC   H4X20304   5.898   2.124  15.784 -0.7178 -1.8449  1.8528
  167DOPC   H4Y20305   5.773   2.188  15.670  1.1297  0.8190  0.4752
  167DOPC   C3520306   5.821   1.984  15.646 -0.3581 -0.5314  0.2252
  167DOPC   H5X20307   5.720   1.956  15.609 -0.5764  0.8978 -0.3119
  167DOPC   H5Y20308   5.871   1.902  15.702  0.3550 -1.6492 -1.9281
  167DOPC   C3620309   5.905   2.015  15.520 -0.0031 -0.0195  0.0657
  167DOPC   H6X20310   5.841   2.090  15.469 -1.5236 -0.9980  0.4720
  167DOPC   H6Y20311   5.998   2.065  15.553 -1.1853  2.0228  0.4491
  167DOPC   C3720312   5.920   1.890  15.424 -0.5968  0.5843 -0.0132
  167DOPC   H7X20313   5.995   1.830  15.480  0.1244  0.2885 -1.2595
  167DOPC   H7Y20314   5.826   1.832  15.420  0.8220 -2.0247  1.4460
  167DOPC   C3820315   5.965   1.937  15.285  1.0160 -0.2371  0.3149
  167DOPC   H8X20316   6.060   1.994  15.293 -1.7330  4.8376  0.6943
  167DOPC   H8Y20317   5.883   2.002  15.250  1.4997  0.2544  0.0806
  167DOPC   C3920318   5.986   1.818  15.197 -0.1033 -0.0787 -0.4034
  167DOPC   H9X20319   5.942   1.724  15.233  2.3125 -1.1131  0.0133
  167DOPC  C31020320   6.053   1.822  15.077 -0.2605 -0.0829  0.4742
  167DOPC  H10X20321   6.071   1.732  15.016 -1.0521  0.3454 -0.4107
  167DOPC  C31120322   6.135   1.937  15.022  0.2688  0.3658  0.0562
  167DOPC  H11X20323   6.242   1.911  15.037  0.3374  0.0279 -0.9173
  167DOPC  H11Y20324   6.106   2.033  15.069 -0.1284  1.1158 -1.6391
  167DOPC  C31220325   6.115   1.942  14.873 -0.0836 -0.2980  0.0023
  167DOPC  H12X20326   6.155   2.039  14.836 -1.7977  0.5183  0.1873
  167DOPC  H12Y20327   6.009   1.941  14.841  0.0437 -0.0583 -0.4362
  167DOPC  C31320328   6.199   1.837  14.787  0.3670 -0.1479  0.0390
  167DOPC  H13X20329   6.306   1.858  14.806  0.2204  2.7897 -1.8143
  167DOPC  H13Y20330   6.167   1.737  14.824 -2.2628  0.5263 -0.2162
  167DOPC  C31420331   6.162   1.846  14.646 -0.5210 -0.1455 -0.2290
  167DOPC  H14X20332   6.064   1.795  14.634 -0.7699 -0.0563  1.2631
  167DOPC  H14Y20333   6.159   1.951  14.609  0.9645  0.5729  1.5442
  167DOPC  C31520334   6.254   1.771  14.542 -0.4695 -0.8745  0.1739
  167DOPC  H15X20335   6.267   1.668  14.580  2.1343 -0.2614  1.1180
  167DOPC  H15Y20336   6.356   1.812  14.551 -1.2792  0.6533  4.5717
  167DOPC  C31620337   6.208   1.794  14.399  0.4314  0.4088  0.7420
  167DOPC  H16X20338   6.103   1.759  14.388  1.1018 -1.2424 -0.8782
  167DOPC  H16Y20339   6.213   1.904  14.385  1.6204 -0.0023 -3.1540
  167DOPC  C31720340   6.291   1.730  14.285  0.0811 -1.4746 -0.0906
  167DOPC  H17X20341   6.398   1.748  14.310 -0.9952  4.8706  1.7571
  167DOPC  H17Y20342   6.267   1.622  14.277  1.7408 -1.8334 -0.5760
  167DOPC  C31820343   6.271   1.796  14.149 -0.7909 -0.1188  0.1059
  167DOPC  H18X20344   6.166   1.824  14.126 -0.3040  0.4629 -1.6023
  167DOPC  H18Y20345   6.331   1.888  14.136  1.7343 -1.7968 -1.0975
  167DOPC  H18Z20346   6.299   1.725  14.068  1.2118  1.2413 -0.4659
  168DOPC     N20347   1.892   0.097  16.414  0.7318  0.5215  0.2890
  168DOPC   C1220348   1.969   0.221  16.382  0.0384  0.2972 -0.2865
  168DOPC  H12A20349   2.072   0.193  16.362  1.3121  4.3659 -0.5327
  168DOPC  H12B20350   1.974   0.287  16.467  0.2788  1.2720 -1.0246
  168DOPC   C1320351   1.933   0.027  16.532 -0.5844  0.5744  0.3169
  168DOPC  H13A20352   2.034  -0.013  16.533 -1.3582 -1.5042  1.4763
  168DOPC  H13B20353   1.929   0.089  16.621 -0.3709  1.7208 -0.4438
  168DOPC  H13C20354   1.867  -0.054  16.560  1.5293 -0.8654  1.4124
  168DOPC   C1420355   1.888  -0.008  16.304  0.1649  0.6118 -0.7526
  168DOPC  H14A20356   1.984  -0.043  16.269  0.2336  1.9342 -1.9911
  168DOPC  H14B20357   1.834  -0.095  16.337  0.1497  0.8105 -0.2424
  168DOPC  H14C20358   1.835   0.028  16.217 -2.9978  0.8948  1.1372
  168DOPC   C1520359   1.749   0.129  16.455  0.2947 -0.2783  0.5569
  168DOPC  H15A20360   1.739   0.225  16.503  0.0659  1.4859 -2.7596
  168DOPC  H15B20361   1.703   0.048  16.511  0.9292 -1.4096 -0.5053
  168DOPC  H15C20362   1.689   0.144  16.367  0.0187  2.0172  1.0801
  168DOPC   C1120363   1.912   0.317  16.273 -0.7632 -0.3671 -0.0053
  168DOPC  H11A20364   1.976   0.406  16.261 -1.7664  0.0862 -2.7196
  168DOPC  H11B20365   1.908   0.268  16.173 -0.1373 -0.6028  0.0823
  168DOPC     P20366   1.752   0.490  16.393  0.0691 -0.1124 -0.0151
  168DOPC   O1320367   1.870   0.575  16.404  0.1447 -0.4314  0.4752
  168DOPC   O1420368   1.687   0.447  16.523 -0.1164 -0.0920 -0.7569
  168DOPC   O1220369   1.780   0.365  16.300  0.0381  0.2364 -0.3882
  168DOPC   O1120370   1.647   0.551  16.302  0.8520  0.3706  1.1824
  168DOPC    C120371   1.662   0.674  16.233  0.2288  0.2276  0.1155
  168DOPC    HA20372   1.746   0.734  16.273 -0.7393  1.3969  0.4663
  168DOPC    HB20373   1.567   0.731  16.241  0.0908  0.2974 -1.5403
  168DOPC    C220374   1.686   0.665  16.077 -0.5657 -0.2626 -0.8997
  168DOPC    HS20375   1.686   0.771  16.042 -2.2368  0.3612  0.7923
  168DOPC   O2120376   1.586   0.582  16.013  0.0608 -0.2869  0.1914
  168DOPC   C2120377   1.468   0.622  15.994  0.4200 -0.1906 -0.0842
  168DOPC   O2220378   1.416   0.714  16.048  0.4554 -0.0298 -0.9249
  168DOPC   C2220379   1.406   0.540  15.884 -0.0612 -0.3380 -0.4276
  168DOPC   H2R20380   1.461   0.444  15.869  2.4219  1.0090 -0.4304
  168DOPC   H2S20381   1.424   0.602  15.793 -1.5585  2.3989  1.0479
  168DOPC    C320382   1.836   0.616  16.046  0.3569  0.2101 -0.8831
  168DOPC    HX20383   1.823   0.506  16.049 -0.5347  0.3234 -0.1127
  168DOPC    HY20384   1.907   0.648  16.126  0.7812  1.0699 -1.5869
  168DOPC   O3120385   1.887   0.658  15.920 -0.1811  0.1646 -0.3433
  168DOPC   C3120386   2.015   0.626  15.900 -0.4086 -0.6287 -0.7165
  168DOPC   O3220387   2.093   0.574  15.980  0.2488 -0.2061  0.4942
  168DOPC   C3220388   2.052   0.663  15.758 -0.2592  0.0423  0.2019
  168DOPC   H2X20389   1.992   0.595  15.694  1.5763  0.5696 -2.2250
  168DOPC   H2Y20390   2.016   0.766  15.734 -2.3399 -0.9495 -1.2099
  168DOPC   C2320391   1.255   0.522  15.905  0.3032 -0.2002 -0.4135
  168DOPC   H3R20392   1.195   0.615  15.907  0.6158 -0.0096  0.2419
  168DOPC   H3S20393   1.241   0.481  16.007  2.4174 -0.3166 -0.1282
  168DOPC   C2420394   1.195   0.427  15.795 -0.4118 -0.0842  0.0915
  168DOPC   H4R20395   1.196   0.483  15.699  1.7801  1.6437  1.0366
  168DOPC   H4S20396   1.091   0.391  15.811 -1.4908  1.9426 -1.7538
  168DOPC   C2520397   1.267   0.296  15.771  0.5058 -0.1936 -0.5714
  168DOPC   H5R20398   1.267   0.243  15.869  0.5483 -0.2437 -0.5992
  168DOPC   H5S20399   1.374   0.312  15.745  1.0029  1.1970  1.9142
  168DOPC   C2620400   1.201   0.215  15.657 -0.0363  0.3962  0.3165
  168DOPC   H6R20401   1.223   0.262  15.559 -0.4127 -1.8883 -0.9307
  168DOPC   H6S20402   1.092   0.202  15.676  0.4005 -4.3544  0.6727
  168DOPC   C2720403   1.258   0.077  15.646 -0.0571 -0.4416 -0.5655
  168DOPC   H7R20404   1.243   0.031  15.747  0.3357 -1.6275 -1.0285
  168DOPC   H7S20405   1.364   0.069  15.614  0.1044 -0.7818  0.0345
  168DOPC   C2820406   1.185  -0.007  15.538  0.5561  0.1187  0.2123
  168DOPC   H8R20407   1.188   0.035  15.436 -0.2507  0.2411  0.2322
  168DOPC   H8S20408   1.078  -0.020  15.565  0.2888 -4.6237 -2.1628
  168DOPC   C2920409   1.233  -0.151  15.544 -0.5005  0.4185  0.8968
  168DOPC   H9R20410   1.206  -0.221  15.623  1.8047 -0.2623  1.1536
  168DOPC  C21020411   1.327  -0.191  15.448  0.1272  0.7441  0.2254
  168DOPC  H10R20412   1.323  -0.299  15.426  0.0326  0.3673  1.9236
  168DOPC  C21120413   1.389  -0.110  15.335  0.5971 -0.0999  0.5126
  168DOPC  H11R20414   1.343  -0.012  15.309  2.5653  0.4088 -1.2966
  168DOPC  H11S20415   1.381  -0.173  15.244  0.6277  0.2486  0.2668
  168DOPC  C21220416   1.536  -0.080  15.352  0.4662 -0.2162  0.5268
  168DOPC  H12R20417   1.591  -0.169  15.389  0.7327  0.4642  1.7951
  168DOPC  H12S20418   1.542  -0.004  15.433  3.4331  0.2782 -0.0328
  168DOPC  C21320419   1.592  -0.012  15.225  0.3027  0.2831 -0.2882
  168DOPC  H13R20420   1.519   0.060  15.180 -0.9516 -0.7037  0.0969
  168DOPC  H13S20421   1.604  -0.092  15.149 -1.4679 -0.7765  0.4792
  168DOPC  C21420422   1.727   0.055  15.250  0.4939 -0.6941 -0.5689
  168DOPC  H14R20423   1.797  -0.015  15.300  1.1603  0.4314  0.1150
  168DOPC  H14S20424   1.727   0.142  15.318 -2.0472  1.8575 -3.5193
  168DOPC  C21520425   1.795   0.108  15.118 -0.3563 -1.2487 -0.6977
  168DOPC  H15R20426   1.900   0.139  15.137 -0.8795  0.5879 -0.6266
  168DOPC  H15S20427   1.736   0.196  15.085 -2.3537 -2.5164 -0.6899
  168DOPC  C21620428   1.801  -0.009  15.006  0.0727  0.1878 -0.2715
  168DOPC  H16R20429   1.695  -0.003  14.972 -0.0664  1.1798  0.3080
  168DOPC  H16S20430   1.825  -0.101  15.063 -0.6385 -0.0582 -0.3617
  168DOPC  C21720431   1.892   0.009  14.886 -0.4767 -0.3658  0.7681
  168DOPC  H17R20432   1.898  -0.079  14.818  0.9828 -0.1924  0.6397
  168DOPC  H17S20433   1.996   0.010  14.925  0.0814 -2.3120 -0.5196
  168DOPC  C21820434   1.853   0.128  14.800  0.0563  0.0870 -0.2019
  168DOPC  H18R20435   1.893   0.220  14.848  0.1095 -0.4716  0.8478
  168DOPC  H18S20436   1.742   0.130  14.796 -0.0820 -2.5860  0.3626
  168DOPC  H18T20437   1.895   0.120  14.697  2.2915  0.7459  0.5979
  168DOPC   C3320438   2.202   0.641  15.734  0.0313 -0.3049 -0.2488
  168DOPC   H3X20439   2.248   0.544  15.760  1.9523  0.4016 -0.8727
  168DOPC   H3Y20440   2.268   0.720  15.776  0.9442  0.5145 -2.9889
  168DOPC   C3420441   2.227   0.638  15.578 -0.5930  0.1164 -0.6156
  168DOPC   H4X20442   2.335   0.625  15.561 -0.6198 -2.2700  0.6157
  168DOPC   H4Y20443   2.201   0.739  15.538 -1.5224  0.9005  1.7456
  168DOPC   C3520444   2.157   0.522  15.501  0.5143 -0.1642  0.2295
  168DOPC   H5X20445   2.048   0.543  15.495  0.1302 -0.8618  3.4232
  168DOPC   H5Y20446   2.178   0.426  15.553  2.5004 -0.1843 -0.5097
  168DOPC   C3620447   2.206   0.502  15.354  0.5047 -0.2291  0.4215
  168DOPC   H6X20448   2.188   0.591  15.291  0.1167  0.2112  1.1438
  168DOPC   H6Y20449   2.317   0.492  15.356  0.8882  1.4396 -3.5535
  168DOPC   C3720450   2.149   0.381  15.281  0.4307 -0.5056  0.7081
  168DOPC   H7X20451   2.177   0.294  15.345 -2.2797 -0.5918  1.9631
  168DOPC   H7Y20452   2.039   0.379  15.296  0.7381 -1.1753  3.3009
  168DOPC   C3820453   2.206   0.360  15.139 -0.5070  0.3811  0.3415
  168DOPC   H8X20454   2.214   0.452  15.077  0.2046 -0.7264 -1.2865
  168DOPC   H8Y20455   2.135   0.292  15.087 -1.7365  1.8950 -0.0617
  168DOPC   C3920456   2.341   0.293  15.146 -0.1679  0.1411  0.3003
  168DOPC   H9X20457   2.410   0.324  15.225 -0.2141  1.7193 -0.2343
  168DOPC  C31020458   2.395   0.222  15.038  0.1764 -0.5105 -0.0814
  168DOPC  H10X20459   2.494   0.174  15.049  1.1114  1.0215 -1.3403
  168DOPC  C31120460   2.332   0.193  14.906  0.3016  0.0014 -0.2984
  168DOPC  H11X20461   2.229   0.152  14.912 -0.8169  2.3120 -2.0198
  168DOPC  H11Y20462   2.380   0.113  14.846 -0.5630 -0.3930 -0.4751
  168DOPC  C31220463   2.312   0.318  14.813 -0.4426 -0.0530  0.0810
  168DOPC  H12X20464   2.416   0.339  14.780 -0.2184  1.1599  1.4410
  168DOPC  H12Y20465   2.269   0.405  14.868 -1.1778  0.2131 -0.8895
  168DOPC  C31320466   2.221   0.300  14.688 -0.2047 -0.5458  0.2985
  168DOPC  H13X20467   2.264   0.219  14.625 -0.5284 -0.9213  0.5494
  168DOPC  H13Y20468   2.122   0.261  14.722 -0.6429  2.3618  2.8585
  168DOPC  C31420469   2.197   0.420  14.594  0.5354  0.1741 -0.3568
  168DOPC  H14X20470   2.134   0.492  14.649 -1.8765 -0.3956 -2.2207
  168DOPC  H14Y20471   2.295   0.460  14.560  1.1273  0.3880  1.5144
  168DOPC  C31520472   2.119   0.366  14.472  0.2535  0.0327 -0.5669
  168DOPC  H15X20473   2.027   0.309  14.495  0.0256  1.1487  1.5531
  168DOPC  H15Y20474   2.188   0.297  14.420 -0.3087  1.5085 -3.4935
  168DOPC  C31620475   2.092   0.480  14.369  0.1429  0.0959 -0.7770
  168DOPC  H16X20476   2.010   0.552  14.390 -0.1094 -0.0518 -1.2406
  168DOPC  H16Y20477   2.189   0.532  14.357  1.5009 -2.2329 -0.6290
  168DOPC  C31720478   2.049   0.425  14.231  0.3255 -0.4572  0.2370
  168DOPC  H17X20479   2.125   0.348  14.207  0.5879 -0.2643  0.4548
  168DOPC  H17Y20480   1.949   0.376  14.236 -1.1514  2.3443  0.2602
  168DOPC  C31820481   2.044   0.531  14.123  0.2411 -0.0885  0.5216
  168DOPC  H18X20482   2.123   0.608  14.138  0.0344  0.4750 -1.0590
  168DOPC  H18Y20483   2.044   0.481  14.024 -4.1138 -0.4451  0.4751
  168DOPC  H18Z20484   1.948   0.588  14.117  0.6668  0.4827 -2.4174
  169DOPC     N20485   8.520   0.389  16.423 -0.0961  0.3926 -0.6383
  169DOPC   C1220486   8.567   0.282  16.331 -0.0825  0.4364 -0.0384
  169DOPC  H12A20487   8.546   0.181  16.361 -1.4988  0.5570 -0.5728
  169DOPC  H12B20488   8.675   0.287  16.321 -0.1701 -0.5585 -2.0542
  169DOPC   C1320489   8.370   0.391  16.441 -0.2194 -0.0473  0.2491
  169DOPC  H13A20490   8.346   0.468  16.511 -2.3019  1.7943 -2.2976
  169DOPC  H13B20491   8.314   0.416  16.351  1.4415 -0.6912 -1.0262
  169DOPC  H13C20492   8.327   0.297  16.472 -0.8113  0.1416  0.0090
  169DOPC   C1420493   8.550   0.532  16.370  0.2821 -0.3628 -0.5959
  169DOPC  H14A20494   8.503   0.605  16.434  0.9890 -0.8735  0.5284
  169DOPC  H14B20495   8.654   0.559  16.364  0.1632  0.8095  1.5299
  169DOPC  H14C20496   8.511   0.535  16.269 -0.6608 -1.7730 -0.2968
  169DOPC   C1520497   8.585   0.362  16.562  0.5492  0.0457 -0.2624
  169DOPC  H15A20498   8.550   0.434  16.636 -0.3179 -0.8003  0.1654
  169DOPC  H15B20499   8.692   0.368  16.548  0.1844  0.9908 -3.1974
  169DOPC  H15C20500   8.561   0.260  16.587  0.1397  0.3368  0.5637
  169DOPC   C1120501   8.502   0.277  16.191  0.0553  0.0937 -0.1785
  169DOPC  H11A20502   8.395   0.249  16.197 -0.0626  0.4744 -0.4672
  169DOPC  H11B20503   8.514   0.381  16.153  0.6494  0.7249  1.6203
  169DOPC     P20504   8.715   0.218  16.053  0.2543  0.3606  0.3706
  169DOPC   O1320505   8.781   0.087  16.041 -0.1051  0.2141 -0.2247
  169DOPC   O1420506   8.782   0.316  16.144 -0.0609 -0.1742  0.2551
  169DOPC   O1220507   8.564   0.191  16.106 -0.1343  0.3213  0.0435
  169DOPC   O1120508   8.698   0.288  15.910 -0.3156  0.0321 -0.4949
  169DOPC    C120509   8.571   0.314  15.850 -0.0953  0.8954 -0.3340
  169DOPC    HA20510   8.582   0.403  15.785  0.7703  2.5850  1.9762
  169DOPC    HB20511   8.502   0.359  15.924  0.5653  2.4981 -0.6501
  169DOPC    C220512   8.513   0.201  15.761 -0.0002  0.8810  0.2207
  169DOPC    HS20513   8.527   0.113  15.827 -1.3482 -0.1222 -0.7986
  169DOPC   O2120514   8.603   0.192  15.649 -0.5268 -0.3274 -0.0501
  169DOPC   C2120515   8.604   0.082  15.579 -0.5811  0.2140 -0.0640
  169DOPC   O2220516   8.549  -0.025  15.610  0.8121 -0.4502 -0.2111
  169DOPC   C2220517   8.670   0.107  15.441 -0.2961 -0.0108 -0.0983
  169DOPC   H2R20518   8.756   0.175  15.462 -0.7873  0.0625  1.8729
  169DOPC   H2S20519   8.595   0.147  15.369 -0.5280  2.6458  1.4951
  169DOPC    C320520   8.358   0.204  15.728  0.1300  0.8194  0.1903
  169DOPC    HX20521   8.317   0.200  15.831  0.6649  1.4267  0.4341
  169DOPC    HY20522   8.350   0.112  15.667 -0.0890  0.0891  1.2938
  169DOPC   O3120523   8.304   0.318  15.651 -0.3395  0.4775 -0.0337
  169DOPC   C3120524   8.236   0.409  15.725  0.2146  0.4759 -0.0194
  169DOPC   O3220525   8.216   0.403  15.848 -0.2522 -0.0731 -0.6402
  169DOPC   C3220526   8.174   0.512  15.627  0.1939 -0.0205 -0.9475
  169DOPC   H2X20527   8.251   0.515  15.546  0.5705  1.8589 -0.5667
  169DOPC   H2Y20528   8.076   0.469  15.597 -0.2123 -0.8206  1.2968
  169DOPC   C2320529   8.735  -0.024  15.384 -0.3317  0.0666 -0.2556
  169DOPC   H3R20530   8.792  -0.081  15.460  1.6622 -0.0300 -1.7192
  169DOPC   H3S20531   8.816   0.009  15.315  1.4616 -2.0282  0.7380
  169DOPC   C2420532   8.642  -0.126  15.311 -0.5516 -0.1790 -0.5300
  169DOPC   H4R20533   8.609  -0.084  15.214 -2.7071  0.4117  0.3890
  169DOPC   H4S20534   8.545  -0.148  15.362  0.8568 -2.0346  1.5600
  169DOPC   C2520535   8.707  -0.267  15.302  1.3041 -0.3856  0.6214
  169DOPC   H5R20536   8.697  -0.303  15.406  1.8599  0.6867  1.0598
  169DOPC   H5S20537   8.815  -0.247  15.282  0.7961  0.9386 -1.1255
  169DOPC   C2620538   8.627  -0.358  15.203 -0.5507 -0.4746 -0.4337
  169DOPC   H6R20539   8.529  -0.347  15.253 -0.7556  2.4018 -1.2717
  169DOPC   H6S20540   8.663  -0.463  15.210  4.2282  0.7930 -1.7896
  169DOPC   C2720541   8.623  -0.315  15.054  0.3625  0.0662  0.1349
  169DOPC   H7R20542   8.717  -0.352  15.009 -0.0135  0.0857 -0.6843
  169DOPC   H7S20543   8.631  -0.205  15.045 -0.7959  0.2208  0.7567
  169DOPC   C2820544   8.503  -0.357  14.981  0.5775 -0.2642  0.6304
  169DOPC   H8R20545   8.521  -0.336  14.873  1.1801 -1.7046  0.4213
  169DOPC   H8S20546   8.414  -0.300  15.015 -0.5306 -1.3114 -0.4067
  169DOPC   C2920547   8.468  -0.505  14.994  0.4503  0.7238 -0.0254
  169DOPC   H9R20548   8.474  -0.537  15.099 -1.9083 -1.2089 -0.4159
  169DOPC  C21020549   8.401  -0.574  14.900 -0.1535  0.3673  0.7814
  169DOPC  H10R20550   8.384  -0.681  14.920 -2.3109  0.5002  0.0141
  169DOPC  C21120551   8.345  -0.539  14.763 -0.7185  0.3981 -0.6634
  169DOPC  H11R20552   8.358  -0.431  14.743  1.2126 -0.0097 -1.8529
  169DOPC  H11S20553   8.235  -0.558  14.768 -0.7384  0.8617  1.4725
  169DOPC  C21220554   8.407  -0.616  14.643  0.2853  0.2046 -0.1519
  169DOPC  H12R20555   8.372  -0.582  14.543  1.0343  0.5911 -0.2848
  169DOPC  H12S20556   8.377  -0.722  14.650  2.1946 -0.3324  0.5251
  169DOPC  C21320557   8.558  -0.592  14.629 -0.6924  0.2074  0.0765
  169DOPC  H13R20558   8.598  -0.642  14.720 -1.4110 -0.9829 -0.2438
  169DOPC  H13S20559   8.595  -0.487  14.631  1.8229 -0.6242  0.5115
  169DOPC  C21420560   8.615  -0.672  14.510 -0.0571 -0.5195  0.7077
  169DOPC  H14R20561   8.557  -0.765  14.495 -2.2664  0.8505  0.2759
  169DOPC  H14S20562   8.719  -0.702  14.535 -0.2464 -2.0428 -0.2569
  169DOPC  C21520563   8.629  -0.589  14.386 -0.9520 -0.0671 -0.3610
  169DOPC  H15R20564   8.713  -0.517  14.398  1.7808 -3.0343 -0.3642
  169DOPC  H15S20565   8.539  -0.526  14.367 -0.5561  0.7032  0.2329
  169DOPC  C21620566   8.665  -0.670  14.261  1.1902 -0.6063 -0.8450
  169DOPC  H16R20567   8.763  -0.717  14.280  1.3776  0.4241  1.0576
  169DOPC  H16S20568   8.670  -0.596  14.179  2.0192 -1.4217 -1.5513
  169DOPC  C21720569   8.574  -0.790  14.231 -0.1467  0.1673 -0.1907
  169DOPC  H17R20570   8.590  -0.876  14.300  0.4893 -0.5598 -1.2119
  169DOPC  H17S20571   8.606  -0.822  14.129  0.7320  1.9318 -0.5217
  169DOPC  C21820572   8.417  -0.757  14.225  0.3331 -0.3427 -0.1040
  169DOPC  H18R20573   8.381  -0.732  14.327  0.0979  0.2729 -0.3296
  169DOPC  H18S20574   8.357  -0.847  14.196 -2.1183  1.1550  0.0381
  169DOPC  H18T20575   8.392  -0.681  14.147  0.4525  0.9213  1.0665
  169DOPC   C3320576   8.160   0.651  15.702 -0.8081 -0.2434  0.4072
  169DOPC   H3X20577   8.256   0.689  15.743 -0.3603  0.4719 -1.2646
  169DOPC   H3Y20578   8.091   0.643  15.789 -1.7311 -2.9762 -0.4792
  169DOPC   C3420579   8.089   0.753  15.605 -0.0968  0.0400  0.5312
  169DOPC   H4X20580   8.047   0.831  15.673 -0.9975  0.9527 -1.0249
  169DOPC   H4Y20581   8.021   0.697  15.538  0.6867  0.3115 -0.5181
  169DOPC   C3520582   8.196   0.820  15.506  0.0840 -0.3132 -0.2639
  169DOPC   H5X20583   8.255   0.747  15.447 -1.5307 -0.6047 -1.6129
  169DOPC   H5Y20584   8.254   0.885  15.575  2.0412  0.2319 -2.3047
  169DOPC   C3620585   8.108   0.906  15.405 -0.2152 -0.8633 -0.3520
  169DOPC   H6X20586   8.165   0.944  15.317 -1.9093  1.9549 -0.3568
  169DOPC   H6Y20587   8.024   0.853  15.355 -0.6169 -0.3944 -0.1844
  169DOPC   C3720588   8.070   1.040  15.468 -0.5260 -0.6612  0.2436
  169DOPC   H7X20589   8.009   1.011  15.557  0.9427 -1.1499  1.1286
  169DOPC   H7Y20590   8.157   1.099  15.503 -1.9977  1.1110  1.1139
  169DOPC   C3820591   8.006   1.142  15.373  0.1306  0.8697  0.1964
  169DOPC   H8X20592   7.982   1.237  15.426 -0.4285 -0.0451  1.6288
  169DOPC   H8Y20593   7.908   1.102  15.338  0.0253 -0.2943  1.7242
  169DOPC   C3920594   8.094   1.184  15.256  0.6716 -0.8059  0.2194
  169DOPC   H9X20595   8.193   1.224  15.284  0.8281 -0.8742 -0.2184
  169DOPC  C31020596   8.080   1.161  15.128 -0.2775  0.2394  0.3443
  169DOPC  H10X20597   8.155   1.203  15.059  0.2229 -0.4180  0.4762
  169DOPC  C31120598   7.976   1.086  15.059  1.0261  0.4206 -0.3264
  169DOPC  H11X20599   7.907   1.034  15.129  0.4664  1.6551  0.0554
  169DOPC  H11Y20600   8.024   1.007  14.997 -1.3136 -1.5754  0.2422
  169DOPC  C31220601   7.880   1.155  14.967 -0.0206  0.2857 -0.3604
  169DOPC  H12X20602   7.945   1.216  14.900  0.5973 -0.5145 -0.4967
  169DOPC  H12Y20603   7.826   1.228  15.032  0.4615 -0.7301  1.2294
  169DOPC  C31320604   7.801   1.063  14.868 -0.6695 -0.8958  0.6082
  169DOPC  H13X20605   7.882   1.016  14.808 -1.3759 -0.7670 -0.4584
  169DOPC  H13Y20606   7.757   0.976  14.923  1.0529 -1.0038  1.9276
  169DOPC  C31420607   7.703   1.137  14.781  0.2554 -0.3785  0.9648
  169DOPC  H14X20608   7.634   1.070  14.726 -0.7405  0.2742  1.3923
  169DOPC  H14Y20609   7.639   1.183  14.860  1.0615 -0.9914  2.0029
  169DOPC  C31520610   7.739   1.258  14.697 -0.4300  0.9830 -0.3008
  169DOPC  H15X20611   7.808   1.228  14.615 -0.0300 -1.1404  0.7473
  169DOPC  H15Y20612   7.805   1.322  14.760 -1.2751  0.5523  1.0705
  169DOPC  C31620613   7.627   1.331  14.615  0.4786  0.3502 -0.7898
  169DOPC  H16X20614   7.555   1.264  14.564  0.6928 -0.8052  0.3841
  169DOPC  H16Y20615   7.564   1.382  14.691 -0.2578 -1.7535  0.0880
  169DOPC  C31720616   7.685   1.430  14.516  0.3557 -0.5388 -0.0866
  169DOPC  H17X20617   7.761   1.501  14.555  0.2712 -0.0829 -0.7240
  169DOPC  H17Y20618   7.735   1.368  14.439  0.7138  0.8540 -1.0191
  169DOPC  C31820619   7.568   1.497  14.446  0.0805  0.0938  0.2174
  169DOPC  H18X20620   7.608   1.564  14.367 -1.6263  0.5815 -0.2755
  169DOPC  H18Y20621   7.501   1.432  14.386  0.0436  1.3947 -1.2140
  169DOPC  H18Z20622   7.510   1.564  14.512  0.7116  1.7813 -0.8778
  170DOPC     N20623   7.293   9.014  16.283 -0.3601 -0.4113 -0.4853
  170DOPC   C1220624   7.139   9.026  16.311  0.1371  0.2311  1.0661
  170DOPC  H12A20625   7.115   9.091  16.394 -2.4700  1.8373 -0.8034
  170DOPC  H12B20626   7.097   8.929  16.334 -3.8738  1.4761 -0.1472
  170DOPC   C1320627   7.337   9.153  16.273 -0.3609  0.5067 -0.1151
  170DOPC  H13A20628   7.441   9.169  16.249 -1.1222  2.5681 -2.4317
  170DOPC  H13B20629   7.291   9.205  16.190  0.9054  1.6067 -0.1674
  170DOPC  H13C20630   7.301   9.211  16.357  1.9327  2.5987 -0.4365
  170DOPC   C1420631   7.307   8.952  16.148  0.2021 -0.1998  0.1011
  170DOPC  H14A20632   7.266   8.852  16.149  1.6989 -0.9063 -1.9842
  170DOPC  H14B20633   7.244   8.999  16.074  0.7488 -0.0977 -0.3062
  170DOPC  H14C20634   7.410   8.934  16.122  0.2203 -1.0556  0.7118
  170DOPC   C1520635   7.367   8.935  16.382  0.0385 -0.5127 -0.0269
  170DOPC  H15A20636   7.473   8.941  16.363  0.0279  0.2995  0.1417
  170DOPC  H15B20637   7.347   8.829  16.375 -1.4483 -0.2988  0.4744
  170DOPC  H15C20638   7.345   8.960  16.485  2.9654 -2.2862  1.1549
  170DOPC   C1120639   7.049   9.073  16.197 -0.3779  0.6719  0.2496
  170DOPC  H11A20640   6.957   9.122  16.235 -0.9489 -0.0808 -0.1443
  170DOPC  H11B20641   7.103   9.152  16.139  0.6353 -1.6480 -2.1823
  170DOPC     P20642   6.914   8.862  16.130 -0.4446  0.2372 -0.5407
  170DOPC   O1320643   6.852   8.895  16.260  0.3237 -0.1388  0.4107
  170DOPC   O1420644   6.970   8.721  16.109 -0.2044  0.1228 -0.9101
  170DOPC   O1220645   7.026   8.966  16.107  0.2413 -0.4284  0.0983
  170DOPC   O1120646   6.813   8.883  16.014  0.3625  0.4511 -0.5248
  170DOPC    C120647   6.831   8.861  15.877 -0.6926  0.4902 -0.2936
  170DOPC    HA20648   6.737   8.827  15.829 -0.3346  0.5358 -1.0397
  170DOPC    HB20649   6.908   8.782  15.864  0.5970  1.4983  0.8859
  170DOPC    C220650   6.888   8.979  15.802 -0.5496 -0.3105  0.2443
  170DOPC    HS20651   6.958   9.029  15.872 -1.2725  0.1320  0.6617
  170DOPC   O2120652   6.776   9.057  15.774  0.6187  0.5065  0.1780
  170DOPC   C2120653   6.806   9.190  15.749 -0.1988 -0.4187 -0.3483
  170DOPC   O2220654   6.915   9.239  15.757 -0.0048 -0.6587 -0.8768
  170DOPC   C2220655   6.671   9.259  15.726 -0.5836 -0.3652  0.6562
  170DOPC   H2R20656   6.629   9.263  15.829  0.4626 -0.0731  1.0937
  170DOPC   H2S20657   6.599   9.198  15.669  0.9543 -0.8838 -0.8046
  170DOPC    C320658   6.959   8.952  15.663  0.1118 -0.0653 -0.2736
  170DOPC    HX20659   7.010   9.046  15.631  0.1263  0.4743  1.2359
  170DOPC    HY20660   6.877   8.926  15.594  0.2969 -1.5845  0.0440
  170DOPC   O3120661   7.041   8.836  15.672 -0.6304  0.6344 -0.1964
  170DOPC   C3120662   7.165   8.860  15.706 -0.0473  0.3218 -0.5082
  170DOPC   O3220663   7.222   8.966  15.724 -0.4449 -0.2577 -0.0873
  170DOPC   C3220664   7.226   8.722  15.747 -0.3823  0.1534 -0.4883
  170DOPC   H2X20665   7.290   8.735  15.838 -0.8681 -1.4494  0.1111
  170DOPC   H2Y20666   7.143   8.656  15.778  0.1240  0.7351  2.4091
  170DOPC   C2320667   6.667   9.403  15.671 -0.2287 -0.1248 -0.2274
  170DOPC   H3R20668   6.743   9.460  15.729 -0.7087 -1.3518  1.6963
  170DOPC   H3S20669   6.563   9.431  15.695 -0.2981 -0.5723  0.0215
  170DOPC   C2420670   6.680   9.415  15.519 -0.1381  0.2552  0.4666
  170DOPC   H4R20671   6.616   9.502  15.492  0.6631 -0.0085 -2.6152
  170DOPC   H4S20672   6.642   9.325  15.465 -0.3534  0.4801  0.2390
  170DOPC   C2520673   6.817   9.454  15.466 -0.0821 -0.0465  0.4726
  170DOPC   H5R20674   6.861   9.535  15.527 -2.0986  1.3019  0.2424
  170DOPC   H5S20675   6.795   9.483  15.361 -1.4490 -2.3445  0.0349
  170DOPC   C2620676   6.927   9.341  15.444 -0.3457 -0.6373 -0.1183
  170DOPC   H6R20677   6.883   9.252  15.394  1.6681 -0.5823 -2.1119
  170DOPC   H6S20678   6.966   9.322  15.547  0.3336  1.5450  0.0726
  170DOPC   C2720679   7.036   9.390  15.362 -1.1360  0.8164 -0.3111
  170DOPC   H7R20680   7.105   9.458  15.417  1.4276 -1.1171 -0.9551
  170DOPC   H7S20681   6.997   9.452  15.278 -0.0738  0.3569 -1.1640
  170DOPC   C2820682   7.123   9.279  15.289  0.1608  0.6174  0.1064
  170DOPC   H8R20683   7.186   9.216  15.356  2.8624  1.0659 -1.8332
  170DOPC   H8S20684   7.208   9.333  15.243  0.6335 -0.4801 -0.3367
  170DOPC   C2920685   7.063   9.194  15.179  0.5299  0.1942  0.0359
  170DOPC   H9R20686   6.953   9.187  15.171  0.5924 -0.0796 -0.6467
  170DOPC  C21020687   7.127   9.102  15.101  0.0495 -0.4209 -0.3237
  170DOPC  H10R20688   7.079   9.055  15.014  2.2398 -1.1158 -1.2128
  170DOPC  C21120689   7.274   9.080  15.115  0.0380  0.3431 -0.1406
  170DOPC  H11R20690   7.324   9.171  15.155  1.2804 -0.7368  0.8440
  170DOPC  H11S20691   7.314   9.068  15.013 -1.9015 -1.3586 -0.7706
  170DOPC  C21220692   7.314   8.959  15.197 -0.0436  0.3764 -0.0778
  170DOPC  H12R20693   7.284   8.875  15.131  2.4405 -2.1433  1.7139
  170DOPC  H12S20694   7.256   8.964  15.292 -0.2116  2.2892 -0.2518
  170DOPC  C21320695   7.464   8.956  15.234  0.4439 -0.4560  0.0709
  170DOPC  H13R20696   7.478   9.027  15.318 -1.7419 -0.6238  0.6463
  170DOPC  H13S20697   7.533   8.976  15.149  0.2587 -1.4295 -0.3236
  170DOPC  C21420698   7.504   8.817  15.282 -0.8672  0.1464 -0.1907
  170DOPC  H14R20699   7.464   8.750  15.203 -0.5819  0.3845 -0.5417
  170DOPC  H14S20700   7.447   8.802  15.376 -1.4766  2.1123 -0.2076
  170DOPC  C21520701   7.661   8.801  15.297  0.7545  0.5304 -0.3893
  170DOPC  H15R20702   7.699   8.893  15.345  0.9290 -0.5420  1.6432
  170DOPC  H15S20703   7.699   8.808  15.193 -0.9171  1.5741 -0.9757
  170DOPC  C21620704   7.704   8.673  15.374  0.1978  0.6192  0.4848
  170DOPC  H16R20705   7.658   8.692  15.473 -1.5584 -1.2703  0.1073
  170DOPC  H16S20706   7.814   8.680  15.388  0.2141 -0.4175  0.9686
  170DOPC  C21720707   7.661   8.537  15.310 -0.3615 -0.4473 -0.1500
  170DOPC  H17R20708   7.550   8.534  15.316 -0.3045 -0.1791  1.7309
  170DOPC  H17S20709   7.672   8.448  15.375 -3.0284 -1.0873 -0.4423
  170DOPC  C21820710   7.696   8.510  15.166  0.5488 -0.2349  0.2796
  170DOPC  H18R20711   7.645   8.585  15.102  0.0759 -2.1601 -1.7395
  170DOPC  H18S20712   7.665   8.408  15.133  2.4631 -0.3089 -1.5257
  170DOPC  H18T20713   7.803   8.520  15.138  0.7351  0.4031  1.1766
  170DOPC   C3320714   7.304   8.643  15.637 -0.4530  0.0007 -0.4175
  170DOPC   H3X20715   7.401   8.690  15.607 -0.7164  1.1231  0.4226
  170DOPC   H3Y20716   7.245   8.635  15.544 -0.2458 -2.5515 -0.3938
  170DOPC   C3420717   7.333   8.501  15.694  0.2540  0.1099  0.8274
  170DOPC   H4X20718   7.244   8.452  15.738 -1.0812 -1.2886 -3.0656
  170DOPC   H4Y20719   7.405   8.515  15.778  0.8236  2.9004 -0.0111
  170DOPC   C3520720   7.394   8.411  15.591 -0.0024  0.0548 -0.2866
  170DOPC   H5X20721   7.418   8.330  15.662  0.7903  1.3248  0.9386
  170DOPC   H5Y20722   7.491   8.450  15.555  0.1586 -0.8121 -0.8203
  170DOPC   C3620723   7.305   8.369  15.480  0.1381 -0.8822 -0.6259
  170DOPC   H6X20724   7.209   8.343  15.531  0.6054  1.4606  1.6724
  170DOPC   H6Y20725   7.284   8.454  15.412 -1.9584 -2.5853 -2.2309
  170DOPC   C3720726   7.373   8.261  15.395 -0.3772  0.1797  0.2472
  170DOPC   H7X20727   7.484   8.271  15.390 -0.3749 -0.1676 -0.5161
  170DOPC   H7Y20728   7.349   8.161  15.438 -3.6430  0.4897 -0.6172
  170DOPC   C3820729   7.324   8.260  15.247 -0.2285  0.4101  0.1663
  170DOPC   H8X20730   7.318   8.361  15.200 -1.7014 -0.2389 -1.1481
  170DOPC   H8Y20731   7.220   8.220  15.244 -0.5003  1.0995  0.2812
  170DOPC   C3920732   7.411   8.172  15.157 -0.4215  0.4114 -0.4944
  170DOPC   H9X20733   7.438   8.074  15.197 -0.8051 -0.0143 -1.2448
  170DOPC  C31020734   7.445   8.196  15.028 -0.4233 -0.0485  0.4151
  170DOPC  H10X20735   7.514   8.126  14.978  0.1825 -1.4135  2.9789
  170DOPC  C31120736   7.392   8.309  14.941 -0.5573  0.0873 -0.6505
  170DOPC  H11X20737   7.451   8.400  14.961  2.5488 -1.6776 -1.1291
  170DOPC  H11Y20738   7.284   8.323  14.966 -0.5765 -1.9358  0.5720
  170DOPC  C31220739   7.376   8.281  14.789 -0.0523  0.0145 -0.5797
  170DOPC  H12X20740   7.334   8.180  14.775 -0.4458  0.1833 -0.6280
  170DOPC  H12Y20741   7.478   8.270  14.745  0.3517  0.3080  0.2662
  170DOPC  C31320742   7.282   8.384  14.715 -0.1269 -0.0304  0.6896
  170DOPC  H13X20743   7.269   8.342  14.613  0.2949  3.6186 -1.0329
  170DOPC  H13Y20744   7.178   8.379  14.753 -0.5622  1.4460 -0.2224
  170DOPC  C31420745   7.326   8.531  14.703  0.6617 -0.7725  0.2507
  170DOPC  H14X20746   7.324   8.586  14.800 -1.1981  2.4944 -1.4426
  170DOPC  H14Y20747   7.423   8.535  14.650  1.4591  0.4110  1.7498
  170DOPC  C31520748   7.217   8.611  14.622 -0.7414  0.5188  0.7030
  170DOPC  H15X20749   7.118   8.598  14.671 -0.0733 -0.6139  1.8243
  170DOPC  H15Y20750   7.220   8.571  14.519 -1.8351  4.1480 -0.8701
  170DOPC  C31620751   7.251   8.754  14.603  0.3071 -0.8521 -0.6816
  170DOPC  H16X20752   7.246   8.799  14.704 -1.0334 -2.8073  0.1805
  170DOPC  H16Y20753   7.351   8.767  14.557  0.1401  0.6231 -0.6834
  170DOPC  C31720754   7.151   8.827  14.510 -0.4385  0.0885 -0.6601
  170DOPC  H17X20755   7.190   8.814  14.407 -0.9934 -1.9203 -0.6632
  170DOPC  H17Y20756   7.057   8.767  14.512 -1.0731  1.0573  1.6306
  170DOPC  C31820757   7.120   8.977  14.540 -0.4974  0.8417  0.1562
  170DOPC  H18X20758   7.086   9.003  14.642  2.0059 -0.2647  1.3495
  170DOPC  H18Y20759   7.202   9.042  14.503  1.1774  0.2114  2.5435
  170DOPC  H18Z20760   7.030   9.003  14.480  0.9955 -1.5608 -3.5784
  171DOPC     N20761   4.528   3.837  13.291 -0.1360 -0.0872  0.4509
  171DOPC   C1220762   4.493   3.705  13.361  0.0068  0.0015  0.3539
  171DOPC  H12A20763   4.520   3.616  13.306  0.3372  0.4733 -0.2639
  171DOPC  H12B20764   4.385   3.702  13.354  0.0546  0.2758 -0.6793
  171DOPC   C1320765   4.470   3.952  13.359 -0.4359 -1.0397 -0.5703
  171DOPC  H13A20766   4.504   3.962  13.461  0.1392 -0.2353 -0.8299
  171DOPC  H13B20767   4.499   4.043  13.309 -1.7314 -0.3928 -0.1977
  171DOPC  H13C20768   4.362   3.948  13.355 -0.4344 -1.4045 -0.2967
  171DOPC   C1420769   4.476   3.852  13.153 -0.2172  0.2349 -0.4961
  171DOPC  H14A20770   4.493   3.953  13.119  1.0576  0.5540  0.9611
  171DOPC  H14B20771   4.530   3.786  13.087  0.0007  0.4257 -0.5104
  171DOPC  H14C20772   4.371   3.826  13.151  0.4281 -2.6858  0.1441
  171DOPC   C1520773   4.679   3.856  13.283 -0.1772 -0.1531  0.4943
  171DOPC  H15A20774   4.728   3.772  13.236 -1.1202 -1.7680  2.3118
  171DOPC  H15B20775   4.714   3.848  13.384 -3.6384  0.8534  1.9142
  171DOPC  H15C20776   4.710   3.951  13.240  0.7850  0.0359  1.5437
  171DOPC   C1120777   4.550   3.677  13.504 -0.3882  0.1102 -0.4751
  171DOPC  H11A20778   4.523   3.757  13.576  0.3471  0.1216 -0.2020
  171DOPC  H11B20779   4.497   3.588  13.546  2.4355 -0.6964  1.7271
  171DOPC     P20780   4.770   3.545  13.456 -0.1204 -0.0744  0.1639
  171DOPC   O1320781   4.911   3.583  13.441 -0.8063  0.4660  0.3948
  171DOPC   O1420782   4.696   3.493  13.338 -0.6022 -0.5338  0.1989
  171DOPC   O1220783   4.699   3.670  13.513  0.4826 -0.0856  0.2386
  171DOPC   O1120784   4.751   3.451  13.577 -0.6419  0.0291 -0.5336
  171DOPC    C120785   4.754   3.493  13.716 -0.1272 -0.1806  0.7633
  171DOPC    HA20786   4.688   3.422  13.771 -0.5059  0.3433  0.9838
  171DOPC    HB20787   4.705   3.592  13.728 -0.3812  0.1509 -2.1926
  171DOPC    C220788   4.899   3.497  13.779  0.5429  0.4882  0.1007
  171DOPC    HS20789   4.948   3.577  13.720  0.4682  0.6333  0.2364
  171DOPC   O2120790   4.958   3.367  13.753  0.0322 -0.6464  0.5340
  171DOPC   C2120791   5.090   3.374  13.734  0.0448 -0.3724 -0.5510
  171DOPC   O2220792   5.159   3.478  13.725 -0.6964  0.2588  0.5882
  171DOPC   C2220793   5.145   3.231  13.747 -0.2351  0.2378 -0.4661
  171DOPC   H2R20794   5.099   3.169  13.668 -0.6466  0.9496 -0.7952
  171DOPC   H2S20795   5.122   3.198  13.851 -0.3055  0.0284 -0.5485
  171DOPC    C320796   4.889   3.533  13.930  0.2184 -1.2326 -0.0634
  171DOPC    HX20797   4.837   3.445  13.973 -1.8700  0.1991  0.5138
  171DOPC    HY20798   4.823   3.622  13.940  0.7689 -0.7561 -0.5791
  171DOPC   O3120799   5.015   3.553  13.991  0.4398 -0.3770  0.1012
  171DOPC   C3120800   5.063   3.675  13.962 -0.1106 -0.1462 -0.5760
  171DOPC   O3220801   5.010   3.773  13.918  0.8708 -0.1953  1.0140
  171DOPC   C3220802   5.207   3.674  13.999  0.2997  0.1052  0.1555
  171DOPC   H2X20803   5.273   3.670  13.910 -1.9819  1.2686 -1.6760
  171DOPC   H2Y20804   5.227   3.778  14.033 -0.0297 -0.5953  2.7459
  171DOPC   C2320805   5.299   3.230  13.740 -0.3099 -0.5438  0.0487
  171DOPC   H3R20806   5.324   3.252  13.634  0.5573  1.9930  0.7101
  171DOPC   H3S20807   5.322   3.122  13.753  0.7123 -0.5133 -1.2374
  171DOPC   C2420808   5.381   3.309  13.844 -0.0022 -0.0448  0.1366
  171DOPC   H4R20809   5.330   3.315  13.943 -1.1951  1.4973 -0.5528
  171DOPC   H4S20810   5.391   3.414  13.809 -0.2205  0.5043  1.6424
  171DOPC   C2520811   5.524   3.253  13.858  0.0888  0.4252 -0.0063
  171DOPC   H5R20812   5.564   3.255  13.754  0.9773  2.6065  0.3327
  171DOPC   H5S20813   5.519   3.149  13.898  0.7155  0.9633  1.5041
  171DOPC   C2620814   5.613   3.342  13.948  0.4484  0.2900 -0.1554
  171DOPC   H6R20815   5.593   3.311  14.053 -2.1330 -0.8709 -0.9315
  171DOPC   H6S20816   5.605   3.450  13.924 -2.4088  0.0856 -0.4218
  171DOPC   C2720817   5.762   3.314  13.929 -0.0647  0.1753 -0.1080
  171DOPC   H7R20818   5.793   3.337  13.824  0.3891 -1.2945 -0.3149
  171DOPC   H7S20819   5.781   3.206  13.943 -1.1468  0.1564  1.4615
  171DOPC   C2820820   5.849   3.396  14.032  0.6976  0.1270  0.1237
  171DOPC   H8R20821   5.817   3.386  14.138  1.9143  0.3111  0.5229
  171DOPC   H8S20822   5.838   3.500  13.996 -0.4652 -0.2495 -0.6939
  171DOPC   C2920823   5.988   3.333  14.028 -0.0617  0.1774 -0.3075
  171DOPC   H9R20824   5.979   3.225  14.040  0.7998 -0.0136 -1.2147
  171DOPC  C21020825   6.106   3.385  13.996  0.0482 -0.1054 -0.1585
  171DOPC  H10R20826   6.192   3.316  14.008 -0.1633 -0.4965 -0.8607
  171DOPC  C21120827   6.132   3.523  13.952  0.3033  0.0144  0.0389
  171DOPC  H11R20828   6.040   3.578  13.922  0.6243  0.3691 -0.3049
  171DOPC  H11S20829   6.199   3.516  13.864  0.3633 -0.9279  0.1537
  171DOPC  C21220830   6.211   3.608  14.057 -0.5443 -1.1297  0.3361
  171DOPC  H12R20831   6.248   3.696  14.001 -0.4977 -0.9168  0.6912
  171DOPC  H12S20832   6.301   3.547  14.081  0.5101 -1.1639 -3.2495
  171DOPC  C21320833   6.132   3.648  14.178 -0.3777  0.5518 -0.1323
  171DOPC  H13R20834   6.098   3.553  14.226  2.5289 -1.4223 -1.6610
  171DOPC  H13S20835   6.040   3.706  14.157 -0.4279  0.1162 -1.1822
  171DOPC  C21420836   6.218   3.730  14.275  0.1934 -0.2661 -0.7586
  171DOPC  H14R20837   6.275   3.814  14.230  1.2527 -0.9757 -0.7679
  171DOPC  H14S20838   6.294   3.658  14.312 -1.5135 -1.4786  0.5634
  171DOPC  C21520839   6.133   3.788  14.395  0.1784 -0.1101 -0.2721
  171DOPC  H15R20840   6.066   3.710  14.436 -0.1793 -0.3117 -1.2060
  171DOPC  H15S20841   6.076   3.875  14.358 -2.5731 -0.9936  1.6280
  171DOPC  C21620842   6.224   3.838  14.510 -0.8297 -0.3276  0.1819
  171DOPC  H16R20843   6.277   3.919  14.455  0.9722 -2.6334 -1.6868
  171DOPC  H16S20844   6.301   3.761  14.533 -1.0974 -0.5825  0.2216
  171DOPC  C21720845   6.153   3.902  14.629  0.5839 -0.8065 -0.4410
  171DOPC  H17R20846   6.123   3.821  14.699 -0.9480 -0.5304 -0.7552
  171DOPC  H17S20847   6.064   3.957  14.592 -0.3600 -0.5608  2.0458
  171DOPC  C21820848   6.244   4.005  14.700  1.2379 -0.7875  0.5035
  171DOPC  H18R20849   6.312   3.965  14.778  1.6161  0.0374  0.6100
  171DOPC  H18S20850   6.170   4.074  14.748  1.9525 -2.2768  4.0352
  171DOPC  H18T20851   6.305   4.067  14.631  0.7435  0.2218  0.9382
  171DOPC   C3320852   5.256   3.571  14.106  0.3437 -0.2927 -0.2272
  171DOPC   H3X20853   5.363   3.548  14.087  0.1827 -0.4383 -1.0194
  171DOPC   H3Y20854   5.211   3.471  14.089  0.0188 -0.4632  1.4792
  171DOPC   C3420855   5.238   3.626  14.252 -0.3399  0.7796  0.2432
  171DOPC   H4X20856   5.134   3.608  14.286 -1.1280  3.0173 -0.8217
  171DOPC   H4Y20857   5.259   3.735  14.254  0.1783  0.8367 -2.9787
  171DOPC   C3520858   5.326   3.542  14.348  0.0409  0.0027 -0.3871
  171DOPC   H5X20859   5.301   3.576  14.451 -0.3614  0.3865 -0.6055
  171DOPC   H5Y20860   5.433   3.560  14.325  0.5437 -0.3958  1.5299
  171DOPC   C3620861   5.295   3.391  14.331 -0.5431 -0.3743  0.7311
  171DOPC   H6X20862   5.186   3.374  14.344 -0.4953 -1.3854 -0.0587
  171DOPC   H6Y20863   5.329   3.363  14.228  2.3102  0.4105  1.3628
  171DOPC   C3720864   5.372   3.301  14.427 -0.0106  0.4407  0.0132
  171DOPC   H7X20865   5.483   3.309  14.416 -0.1448  0.6800 -1.3056
  171DOPC   H7Y20866   5.349   3.307  14.536 -1.6744  1.4707 -0.3515
  171DOPC   C3820867   5.335   3.156  14.414  0.1421 -0.0692  0.3309
  171DOPC   H8X20868   5.224   3.156  14.411  0.1577  0.1574 -1.6031
  171DOPC   H8Y20869   5.372   3.104  14.505  0.5611  0.2314  0.3379
  171DOPC   C3920870   5.412   3.094  14.296 -0.2512  0.2101  0.1985
  171DOPC   H9X20871   5.521   3.099  14.314 -0.3890  0.5416  0.9630
  171DOPC  C31020872   5.367   3.053  14.178 -0.7801  1.0163  0.0196
  171DOPC  H10X20873   5.441   3.023  14.102 -1.2517  0.3938 -0.2015
  171DOPC  C31120874   5.228   3.072  14.137  0.2375  0.4760  0.5921
  171DOPC  H11X20875   5.237   3.170  14.085  2.0110  0.0438 -0.0014
  171DOPC  H11Y20876   5.165   3.075  14.228 -2.1553 -0.4919 -0.9447
  171DOPC  C31220877   5.186   2.970  14.037 -0.7019  0.4408  0.6162
  171DOPC  H12X20878   5.248   2.980  13.945 -2.3275 -0.9857 -0.6885
  171DOPC  H12Y20879   5.078   2.985  14.022 -1.2562 -2.4667  1.0691
  171DOPC  C31320880   5.190   2.819  14.089  0.2421  0.0983 -0.6288
  171DOPC  H13X20881   5.287   2.785  14.131  0.5842 -0.5279 -1.9047
  171DOPC  H13Y20882   5.108   2.810  14.164  0.6616  0.7801 -0.0746
  171DOPC  C31420883   5.158   2.717  13.976 -0.3196 -0.0127 -0.1048
  171DOPC  H14X20884   5.225   2.725  13.888  0.5783  1.5201  0.6748
  171DOPC  H14Y20885   5.176   2.618  14.023  2.9984  1.5763  2.4316
  171DOPC  C31520886   5.008   2.726  13.933 -0.2231 -0.0281 -0.3798
  171DOPC  H15X20887   4.980   2.825  13.893  2.2141  0.4229 -1.1705
  171DOPC  H15Y20888   4.956   2.689  14.024 -1.5985  1.3361 -0.5773
  171DOPC  C31620889   4.973   2.626  13.818 -0.3883  0.8140 -0.1427
  171DOPC  H16X20890   4.971   2.526  13.867 -0.3595  1.2855  0.8433
  171DOPC  H16Y20891   4.865   2.643  13.797 -0.4098  3.1451  1.4189
  171DOPC  C31720892   5.046   2.639  13.684  0.2574 -0.0428 -0.2850
  171DOPC  H17X20893   5.087   2.742  13.677  1.1131 -0.2694  1.0250
  171DOPC  H17Y20894   5.139   2.579  13.678 -0.1511 -0.8827  1.3251
  171DOPC  C31820895   4.957   2.605  13.564  0.5777 -0.0756 -0.2210
  171DOPC  H18X20896   4.876   2.680  13.550  0.2855  0.4765  3.4413
  171DOPC  H18Y20897   5.025   2.610  13.476  0.6537  1.4246 -0.1051
  171DOPC  H18Z20898   4.919   2.501  13.566  0.0819  0.1090  0.0020
  172DOPC     N20899   3.126   5.191  12.766  0.3050 -0.1391  0.0736
  172DOPC   C1220900   3.204   5.158  12.889 -0.5225 -0.1727 -0.8729
  172DOPC  H12A20901   3.306   5.150  12.855 -0.0813 -0.5219  0.4479
  172DOPC  H12B20902   3.160   5.072  12.938 -0.2256  1.1004  1.8533
  172DOPC   C1320903   3.148   5.081  12.661 -0.6370 -0.2950 -0.2016
  172DOPC  H13A20904   3.085   5.108  12.577  0.0334  3.6941  0.3711
  172DOPC  H13B20905   3.252   5.090  12.632 -1.1556  0.1156 -2.0249
  172DOPC  H13C20906   3.121   4.981  12.692  0.2885  0.4741  3.6556
  172DOPC   C1420907   3.174   5.332  12.712  0.2991 -0.8555 -0.6746
  172DOPC  H14A20908   3.279   5.332  12.687  0.3962 -0.2429 -0.3058
  172DOPC  H14B20909   3.119   5.354  12.621 -2.1328  1.1241  1.1042
  172DOPC  H14C20910   3.152   5.414  12.779 -2.1546 -0.0910 -2.2981
  172DOPC   C1520911   2.980   5.199  12.793  0.5950  0.3821 -0.2138
  172DOPC  H15A20912   2.927   5.243  12.710 -1.0444 -0.2676  0.4465
  172DOPC  H15B20913   2.966   5.255  12.884  0.5640 -0.3540  0.2496
  172DOPC  H15C20914   2.931   5.104  12.813 -0.6760  1.0832  0.1280
  172DOPC   C1120915   3.201   5.259  13.008  1.1387 -0.1665  0.0353
  172DOPC  H11A20916   3.280   5.231  13.081  1.9082 -0.6206 -0.9576
  172DOPC  H11B20917   3.229   5.360  12.973  0.6896  0.0828  0.3789
  172DOPC     P20918   3.025   5.158  13.163 -0.1812 -0.3849 -0.3247
  172DOPC   O1320919   3.017   5.030  13.094  0.2494  0.0277 -0.3605
  172DOPC   O1420920   2.900   5.207  13.233  0.0036 -0.1333 -0.4107
  172DOPC   O1220921   3.067   5.265  13.054  0.6705 -0.0200  0.2936
  172DOPC   O1120922   3.137   5.163  13.272 -0.3959 -0.3797 -0.0459
  172DOPC    C120923   3.175   5.288  13.337 -0.0475 -0.2626  0.6705
  172DOPC    HA20924   3.122   5.377  13.296  0.4729 -0.6727 -0.9617
  172DOPC    HB20925   3.278   5.315  13.305 -0.2999 -0.8430 -0.7021
  172DOPC    C220926   3.154   5.273  13.489 -0.6577  0.1562 -0.2017
  172DOPC    HS20927   3.174   5.373  13.533  0.9931  0.5767 -1.7993
  172DOPC   O2120928   3.241   5.175  13.554 -0.6166 -0.1921 -0.7019
  172DOPC   C2120929   3.369   5.212  13.574  0.0503  0.0679 -0.3908
  172DOPC   O2220930   3.421   5.317  13.539 -0.0688 -0.3748  0.0882
  172DOPC   C2220931   3.442   5.091  13.643  0.7078 -0.0851  0.0992
  172DOPC   H2R20932   3.523   5.057  13.575 -1.3547 -2.3559 -1.4146
  172DOPC   H2S20933   3.374   5.003  13.644  1.0642 -0.3849  2.2107
  172DOPC    C320934   3.004   5.237  13.518  0.1148  0.0325  0.3797
  172DOPC    HX20935   2.972   5.137  13.481  0.1526 -0.2616  1.1339
  172DOPC    HY20936   2.935   5.302  13.461 -0.8630 -0.8781  0.4974
  172DOPC   O3120937   2.973   5.237  13.659 -0.4935 -0.3223  0.3436
  172DOPC   C3120938   2.921   5.348  13.713 -0.0809  0.2392  0.0729
  172DOPC   O3220939   2.894   5.454  13.656  0.5413  0.7933  0.0144
  172DOPC   C3220940   2.908   5.323  13.865 -0.8080  0.9159 -0.1181
  172DOPC   H2X20941   2.887   5.215  13.876 -0.4223  0.6059 -2.0537
  172DOPC   H2Y20942   3.008   5.358  13.900 -1.8554  3.8776  0.2416
  172DOPC   C2320943   3.485   5.130  13.783 -0.1755 -0.3342  0.3569
  172DOPC   H3R20944   3.402   5.143  13.856  0.8627  1.4098  1.2960
  172DOPC   H3S20945   3.547   5.222  13.775 -1.4632  0.6547  1.3927
  172DOPC   C2420946   3.573   5.023  13.848  0.1682  0.0482 -0.6570
  172DOPC   H4R20947   3.673   5.009  13.801  0.9064  0.1350  0.8169
  172DOPC   H4S20948   3.532   4.923  13.825 -0.8909  0.7631 -1.9445
  172DOPC   C2520949   3.602   5.032  14.000  0.0459  0.5581 -0.1120
  172DOPC   H5R20950   3.507   5.033  14.058  0.9634 -1.2652  1.5521
  172DOPC   H5S20951   3.664   5.123  14.012 -1.6708  1.7326  0.2088
  172DOPC   C2620952   3.689   4.905  14.032  0.2515 -0.4846  0.0857
  172DOPC   H6R20953   3.780   4.904  13.969 -0.2235 -0.3390 -0.6092
  172DOPC   H6S20954   3.631   4.810  14.019 -1.0189  0.4136 -1.1626
  172DOPC   C2720955   3.731   4.909  14.185  0.4392  0.0302  0.2023
  172DOPC   H7R20956   3.635   4.907  14.241 -1.3554  0.1463 -2.6360
  172DOPC   H7S20957   3.789   5.000  14.211  1.7813 -0.5000 -0.8555
  172DOPC   C2820958   3.817   4.781  14.215 -0.4995  0.0321 -0.2007
  172DOPC   H8R20959   3.899   4.792  14.140 -0.6853 -1.5852 -0.6702
  172DOPC   H8S20960   3.757   4.689  14.198 -1.5558  0.6859 -0.0996
  172DOPC   C2920961   3.867   4.787  14.357  0.3729 -0.0191 -0.5710
  172DOPC   H9R20962   3.876   4.885  14.406  0.5548  0.2611 -1.1589
  172DOPC  C21020963   3.848   4.693  14.453  0.2140  0.6879 -0.3604
  172DOPC  H10R20964   3.883   4.708  14.556  0.7665 -1.7203 -0.1504
  172DOPC  C21120965   3.795   4.554  14.432 -0.2994  0.4179  0.0232
  172DOPC  H11R20966   3.835   4.525  14.333 -2.4385  0.3213 -0.8475
  172DOPC  H11S20967   3.684   4.556  14.428 -0.4539 -3.5027 -1.6820
  172DOPC  C21220968   3.856   4.460  14.541 -0.2813 -0.1735 -0.1027
  172DOPC  H12R20969   3.967   4.471  14.547 -0.1687 -0.8590 -0.7122
  172DOPC  H12S20970   3.831   4.353  14.519  1.2425 -0.7015  0.5845
  172DOPC  C21320971   3.787   4.480  14.681 -0.3457  0.1434 -0.3356
  172DOPC  H13R20972   3.678   4.461  14.670 -0.4039 -2.1814  2.9931
  172DOPC  H13S20973   3.803   4.586  14.710 -0.6593  0.6200 -1.8191
  172DOPC  C21420974   3.838   4.389  14.791 -0.0165 -0.2674 -0.4040
  172DOPC  H14R20975   3.949   4.388  14.789 -0.0187 -0.4767 -0.4340
  172DOPC  H14S20976   3.815   4.284  14.762 -1.8654  0.4633 -1.8082
  172DOPC  C21520977   3.790   4.401  14.937 -0.6052 -0.0328 -0.5705
  172DOPC  H15R20978   3.680   4.393  14.935 -0.6870 -0.1701  1.7216
  172DOPC  H15S20979   3.810   4.508  14.963  0.1220 -0.2678 -0.1289
  172DOPC  C21620980   3.847   4.298  15.037  0.0259  0.6078 -0.7211
  172DOPC  H16R20981   3.951   4.279  15.002 -0.2113 -0.8172 -0.6978
  172DOPC  H16S20982   3.789   4.204  15.031 -0.0730  0.5171  1.0454
  172DOPC  C21720983   3.837   4.359  15.182 -0.2709 -0.1780  0.0539
  172DOPC  H17R20984   3.914   4.439  15.181  0.0371 -0.4782 -0.3125
  172DOPC  H17S20985   3.878   4.291  15.260  1.5225 -0.3871 -1.0187
  172DOPC  C21820986   3.709   4.420  15.224 -0.4602 -1.0410  0.1964
  172DOPC  H18R20987   3.681   4.501  15.153 -2.1349 -1.1118  0.7215
  172DOPC  H18S20988   3.712   4.455  15.329 -0.1182  1.0144 -0.4669
  172DOPC  H18T20989   3.620   4.352  15.223 -1.7484  0.2293  4.6176
  172DOPC   C3320990   2.785   5.373  13.942 -0.1354  0.5406  0.2273
  172DOPC   H3X20991   2.700   5.344  13.876  0.9724  1.4735 -1.6861
  172DOPC   H3Y20992   2.782   5.481  13.967 -2.1519  0.8630 -1.1461
  172DOPC   C3420993   2.758   5.278  14.063 -0.2042 -0.0577 -0.2213
  172DOPC   H4X20994   2.720   5.179  14.030  2.7226 -2.0386  1.8240
  172DOPC   H4Y20995   2.667   5.314  14.117  1.2280  1.1675  1.5123
  172DOPC   C3520996   2.873   5.278  14.163  0.0181 -0.3510 -0.2547
  172DOPC   H5X20997   2.910   5.382  14.151 -1.5371  0.2472 -0.0633
  172DOPC   H5Y20998   2.951   5.209  14.123 -1.0336 -1.8576  0.1757
  172DOPC   C3620999   2.834   5.261  14.310 -0.0797  0.3127  0.0953
  172DOPC   H6X21000   2.755   5.328  14.350  0.7409  0.1397  2.1479
  172DOPC   H6Y21001   2.804   5.155  14.325  0.0843 -0.0262 -1.7690
  172DOPC   C3721002   2.955   5.279  14.403  0.0216 -0.1410  0.3524
  172DOPC   H7X21003   3.039   5.209  14.382  0.2185  0.6262 -1.6705
  172DOPC   H7Y21004   2.992   5.384  14.399 -0.5246  0.1681  2.3415
  172DOPC   C3821005   2.911   5.254  14.545  0.3324 -0.7588 -0.3918
  172DOPC   H8X21006   2.845   5.165  14.544  1.0221 -1.2803 -0.7753
  172DOPC   H8Y21007   2.843   5.337  14.574  1.5500  0.2540 -0.3198
  172DOPC   C3921008   3.020   5.247  14.647 -0.0691 -0.0693 -0.5752
  172DOPC   H9X21009   3.080   5.160  14.618 -0.7226 -1.0811  0.9608
  172DOPC  C31021010   3.050   5.330  14.747 -0.0155 -0.2408 -0.1868
  172DOPC  H10X21011   3.144   5.308  14.800  1.0054  0.3849 -1.6593
  172DOPC  C31121012   2.989   5.464  14.771  0.0429 -0.1457  0.0719
  172DOPC  H11X21013   2.933   5.506  14.685  1.0456 -1.7455 -1.4084
  172DOPC  H11Y21014   3.061   5.542  14.803 -1.2560  2.6865 -3.3118
  172DOPC  C31221015   2.890   5.440  14.879  0.8229  0.3256 -0.4049
  172DOPC  H12X21016   2.925   5.371  14.960  2.8765  0.3288 -1.2290
  172DOPC  H12Y21017   2.802   5.398  14.826  1.0836  0.9913 -1.3995
  172DOPC  C31321018   2.854   5.560  14.960  0.2240  0.1494 -0.2868
  172DOPC  H13X21019   2.942   5.583  15.023  0.1853  0.5072 -0.3601
  172DOPC  H13Y21020   2.840   5.646  14.891 -1.2266 -1.9569 -2.8290
  172DOPC  C31421021   2.730   5.534  15.040  0.5269  0.0754  0.5892
  172DOPC  H14X21022   2.639   5.524  14.977  1.7595 -2.4006 -0.9636
  172DOPC  H14Y21023   2.741   5.433  15.085  3.0215  0.4434  0.9058
  172DOPC  C31521024   2.708   5.644  15.142 -0.0083 -0.8790  0.7377
  172DOPC  H15X21025   2.745   5.738  15.097  0.5780 -1.2207  0.4993
  172DOPC  H15Y21026   2.771   5.629  15.232  2.1608  2.5862 -0.0072
  172DOPC  C31621027   2.555   5.665  15.167 -0.5289  0.5182 -0.2389
  172DOPC  H16X21028   2.493   5.672  15.075  0.1128  1.3028 -0.6202
  172DOPC  H16Y21029   2.527   5.565  15.206  1.2799 -0.9020 -2.3379
  172DOPC  C31721030   2.536   5.784  15.268  0.2066 -0.0436 -0.7616
  172DOPC  H17X21031   2.620   5.772  15.339 -0.4827  2.2633  0.5285
  172DOPC  H17Y21032   2.538   5.882  15.216  2.1392  1.3345  1.6909
  172DOPC  C31821033   2.396   5.773  15.337 -0.7743 -0.1835 -0.3388
  172DOPC  H18X21034   2.324   5.776  15.252  1.3499  0.6155 -2.2176
  172DOPC  H18Y21035   2.385   5.679  15.394  2.2702 -1.1755 -1.1802
  172DOPC  H18Z21036   2.382   5.862  15.402 -1.2756  0.6470 -1.5416
  173DOPC     N21037   1.683   3.187  13.481  0.3153  0.1369  0.3498
  173DOPC   C1221038   1.828   3.218  13.499  0.1056  0.6966  0.0223
  173DOPC  H12A21039   1.852   3.228  13.604  0.0421 -1.3071  0.2667
  173DOPC  H12B21040   1.852   3.316  13.461  1.9872 -0.2039 -1.2497
  173DOPC   C1321041   1.646   3.060  13.560  0.5599  0.9141  0.3933
  173DOPC  H13A21042   1.540   3.039  13.547  0.4123  0.9150  1.5391
  173DOPC  H13B21043   1.705   2.980  13.520 -0.5165  0.2500  0.0851
  173DOPC  H13C21044   1.668   3.079  13.664 -3.6653 -2.7893  2.3126
  173DOPC   C1421045   1.663   3.161  13.331 -0.2064 -0.2509 -0.5996
  173DOPC  H14A21046   1.725   3.081  13.292 -1.0343 -1.3519  0.2725
  173DOPC  H14B21047   1.560   3.144  13.303 -1.1368  1.1637  1.6744
  173DOPC  H14C21048   1.686   3.251  13.275 -0.1632  0.7165  0.9167
  173DOPC   C1521049   1.604   3.297  13.536 -0.3093 -1.2522  0.4774
  173DOPC  H15A21050   1.619   3.387  13.478 -0.1871 -2.3772 -1.2925
  173DOPC  H15B21051   1.640   3.321  13.635 -0.3073  1.4730 -0.1013
  173DOPC  H15C21052   1.498   3.278  13.541 -0.3583 -1.7891 -1.8196
  173DOPC   C1121053   1.932   3.118  13.438  0.1463  0.1785  0.0737
  173DOPC  H11A21054   1.932   3.130  13.328  2.3285  1.3955  0.1476
  173DOPC  H11B21055   2.035   3.146  13.469  0.4499 -0.9836  0.1454
  173DOPC     P21056   1.957   2.935  13.627  0.0086  0.2045  0.3534
  173DOPC   O1321057   2.103   2.957  13.629  0.1881  0.3083 -0.1111
  173DOPC   O1421058   1.905   2.795  13.642 -0.2014  0.6985 -0.2504
  173DOPC   O1221059   1.916   2.978  13.480 -0.7343 -0.6774 -0.2347
  173DOPC   O1121060   1.877   3.035  13.723  0.2378 -0.0517 -0.4054
  173DOPC    C121061   1.815   3.003  13.846  0.4824  0.4578 -0.8145
  173DOPC    HA21062   1.758   2.908  13.856 -0.1979  1.0182  1.0671
  173DOPC    HB21063   1.744   3.087  13.864 -0.3198 -0.4945  0.6134
  173DOPC    C221064   1.910   3.014  13.978 -0.0518 -0.0887  0.8227
  173DOPC    HS21065   1.938   3.122  13.985 -1.6569  0.4845 -0.7013
  173DOPC   O2121066   2.015   2.915  13.957 -0.3054  0.2293 -0.3998
  173DOPC   C2121067   2.131   2.969  13.997 -0.3096 -0.4050 -0.5076
  173DOPC   O2221068   2.141   3.075  14.056  0.8780 -0.5346  0.0546
  173DOPC   C2221069   2.242   2.870  13.970  0.7107 -0.3374 -0.0806
  173DOPC   H2R21070   2.257   2.884  13.860  2.3691  0.1694  0.1815
  173DOPC   H2S21071   2.210   2.767  13.995  0.7316  0.0475  1.6320
  173DOPC    C321072   1.837   2.992  14.111  0.2187  0.8144 -0.8811
  173DOPC    HX21073   1.747   3.056  14.118 -0.8636 -0.7615  0.5418
  173DOPC    HY21074   1.902   3.027  14.193 -2.1019 -2.2398  2.5662
  173DOPC   O3121075   1.794   2.856  14.132 -0.1879  0.2882  0.3282
  173DOPC   C3121076   1.880   2.789  14.201  0.2956  0.0643 -0.1119
  173DOPC   O3221077   1.984   2.828  14.252  0.2878  0.4170 -0.1334
  173DOPC   C3221078   1.833   2.643  14.204  0.5409  0.2453 -0.0291
  173DOPC   H2X21079   1.737   2.627  14.152  0.1605 -1.7628  1.1656
  173DOPC   H2Y21080   1.899   2.578  14.143  1.5601  0.0773  1.1964
  173DOPC   C2321081   2.366   2.912  14.045 -0.1438  0.2816 -0.1265
  173DOPC   H3R21082   2.338   2.920  14.152  2.0060 -2.3394  0.7310
  173DOPC   H3S21083   2.400   3.013  14.014  0.5430 -0.1303 -0.7435
  173DOPC   C2421084   2.472   2.805  14.039 -0.4753 -0.1026  0.1403
  173DOPC   H4R21085   2.484   2.778  13.932  1.9248 -0.4912  0.4541
  173DOPC   H4S21086   2.432   2.718  14.094 -1.6365 -0.5172 -1.2910
  173DOPC   C2521087   2.618   2.842  14.083  0.1033 -0.1823 -0.2868
  173DOPC   H5R21088   2.606   2.863  14.191  2.3167 -0.1237 -0.0185
  173DOPC   H5S21089   2.643   2.939  14.034 -0.2816  0.6978  1.1934
  173DOPC   C2621090   2.728   2.734  14.055  0.2275  0.0300  0.2310
  173DOPC   H6R21091   2.713   2.713  13.947  0.7592 -0.5231  0.2579
  173DOPC   H6S21092   2.712   2.643  14.117  1.8551  0.1465  0.8769
  173DOPC   C2721093   2.868   2.787  14.077 -0.1859 -0.1924  0.1679
  173DOPC   H7R21094   2.881   2.790  14.187  0.1581 -0.6826  0.1458
  173DOPC   H7S21095   2.869   2.883  14.021  0.3651  0.7749  1.7815
  173DOPC   C2821096   2.979   2.704  14.013 -0.0875  0.6043 -0.0981
  173DOPC   H8R21097   2.961   2.605  14.059 -0.2431  0.2230 -0.9574
  173DOPC   H8S21098   3.085   2.729  14.036  0.5392 -1.1309 -0.9501
  173DOPC   C2921099   2.972   2.685  13.861  0.1496 -0.1816 -0.2126
  173DOPC   H9R21100   2.940   2.584  13.832  1.0050 -0.8602  1.1039
  173DOPC  C21021101   3.012   2.768  13.764 -0.2667  0.0006  0.2097
  173DOPC  H10R21102   2.999   2.735  13.660 -0.1544  0.4768  0.0418
  173DOPC  C21121103   3.071   2.906  13.786  0.1627 -0.0811  0.0932
  173DOPC  H11R21104   3.179   2.888  13.806  0.0898 -0.9965 -0.2930
  173DOPC  H11S21105   3.028   2.971  13.866 -1.4994 -0.8811 -0.1216
  173DOPC  C21221106   3.063   2.987  13.651  0.8736  1.1534 -0.1254
  173DOPC  H12R21107   2.953   2.996  13.634  0.7196 -0.9314 -0.5074
  173DOPC  H12S21108   3.104   2.935  13.562  0.2488  0.2392  0.1112
  173DOPC  C21321109   3.137   3.124  13.662 -0.0123 -0.0727  0.2307
  173DOPC  H13R21110   3.096   3.192  13.740  0.7103  1.2109 -0.4805
  173DOPC  H13S21111   3.125   3.182  13.568  2.2537  2.6138  1.4422
  173DOPC  C21421112   3.286   3.117  13.692 -0.3482 -0.0185 -0.2507
  173DOPC  H14R21113   3.326   3.045  13.616  1.8841  0.6360  0.2329
  173DOPC  H14S21114   3.297   3.070  13.792  1.7102  0.1636 -0.3460
  173DOPC  C21521115   3.361   3.249  13.697 -0.3189 -0.1365 -0.1032
  173DOPC  H15R21116   3.318   3.307  13.782  0.8178 -0.0216  0.4121
  173DOPC  H15S21117   3.341   3.314  13.609  1.3248 -0.3904 -0.6877
  173DOPC  C21621118   3.509   3.235  13.720  0.3451  0.7789 -0.0410
  173DOPC  H16R21119   3.552   3.336  13.735  0.5454  0.3388  2.9734
  173DOPC  H16S21120   3.561   3.195  13.631  0.3087 -0.6112  0.5383
  173DOPC  C21721121   3.556   3.153  13.842  0.1462  0.5515 -0.4237
  173DOPC  H17R21122   3.540   3.044  13.823 -2.5602  0.6533  0.8729
  173DOPC  H17S21123   3.488   3.176  13.926  0.6499  1.1488 -0.1713
  173DOPC  C21821124   3.700   3.197  13.888  0.2571 -0.1537  0.1999
  173DOPC  H18R21125   3.708   3.138  13.982 -0.8306 -1.9573 -0.7628
  173DOPC  H18S21126   3.702   3.304  13.916 -0.0812 -0.1756  0.3203
  173DOPC  H18T21127   3.782   3.171  13.818 -0.2161 -0.1794 -0.3550
  173DOPC   C3321128   1.821   2.599  14.349 -0.2944 -0.2240  0.6274
  173DOPC   H3X21129   1.742   2.659  14.399  0.7718  1.2137  0.6613
  173DOPC   H3Y21130   1.906   2.616  14.419  0.4179  0.8220 -0.4433
  173DOPC   C3421131   1.781   2.447  14.351  0.3349 -0.1314  0.9163
  173DOPC   H4X21132   1.865   2.394  14.301  0.2477  0.2080  0.3998
  173DOPC   H4Y21133   1.693   2.434  14.285  1.2763 -2.4640  0.0119
  173DOPC   C3521134   1.757   2.391  14.490  0.0906 -0.1109  0.2352
  173DOPC   H5X21135   1.674   2.450  14.533 -0.9991  0.8825 -2.9024
  173DOPC   H5Y21136   1.845   2.411  14.555 -0.3535 -0.5292  0.9764
  173DOPC   C3621137   1.722   2.241  14.492  0.1796 -0.0453 -0.7154
  173DOPC   H6X21138   1.806   2.175  14.462 -0.0902 -0.5006 -0.4783
  173DOPC   H6Y21139   1.687   2.201  14.589  0.4495  1.8679  0.2144
  173DOPC   C3721140   1.603   2.205  14.397  0.0183 -0.6590 -0.2764
  173DOPC   H7X21141   1.516   2.267  14.429 -0.4263 -1.1299 -0.5451
  173DOPC   H7Y21142   1.628   2.240  14.295  0.8380 -0.2785  0.0456
  173DOPC   C3821143   1.555   2.065  14.406 -0.0344  0.2577  1.0510
  173DOPC   H8X21144   1.457   2.055  14.354 -0.4060 -2.5817  2.1204
  173DOPC   H8Y21145   1.523   2.034  14.508 -2.1085 -1.0112  0.0772
  173DOPC   C3921146   1.659   1.973  14.353 -0.5589  0.1812 -0.1779
  173DOPC   H9X21147   1.703   1.921  14.439  0.2391 -0.4213 -0.9350
  173DOPC  C31021148   1.682   1.943  14.222 -0.4063 -0.8339  0.1148
  173DOPC  H10X21149   1.765   1.873  14.201 -0.1799 -0.8338  0.9511
  173DOPC  C31121150   1.592   1.988  14.107 -0.2333  0.5853  0.0310
  173DOPC  H11X21151   1.638   2.036  14.018  0.6398  0.2232  0.2778
  173DOPC  H11Y21152   1.514   2.057  14.144  2.5584  2.6350  2.5226
  173DOPC  C31221153   1.540   1.854  14.042  0.1878 -0.4114 -0.0217
  173DOPC  H12X21154   1.496   1.795  14.125  0.8301  1.1361  1.4763
  173DOPC  H12Y21155   1.630   1.798  14.009  0.4284  0.4615 -0.8971
  173DOPC  C31321156   1.445   1.870  13.921 -0.3502  0.1894  0.1602
  173DOPC  H13X21157   1.498   1.925  13.840 -1.4939  1.8724  0.4945
  173DOPC  H13Y21158   1.416   1.773  13.876  1.0795 -0.5816  0.8245
  173DOPC  C31421159   1.323   1.967  13.942 -1.0717 -0.1854  0.5230
  173DOPC  H14X21160   1.372   2.054  13.990  1.9380 -0.7933 -1.2242
  173DOPC  H14Y21161   1.276   1.999  13.847 -1.5981 -2.8361 -0.1992
  173DOPC  C31521162   1.211   1.906  14.024 -0.1735  0.0828  0.1434
  173DOPC  H15X21163   1.243   1.869  14.124 -1.8968  0.5353  0.9068
  173DOPC  H15Y21164   1.178   1.819  13.965  1.8773  0.3545 -1.4945
  173DOPC  C31621165   1.091   1.999  14.056 -0.0355 -0.3373  0.1076
  173DOPC  H16X21166   1.132   2.088  14.108  3.0102 -1.0717 -0.8346
  173DOPC  H16Y21167   1.036   2.035  13.967  0.0992 -0.1001  0.1210
  173DOPC  C31721168   0.984   1.935  14.150 -0.7158 -0.1645 -0.2629
  173DOPC  H17X21169   0.930   1.846  14.111  1.0629 -2.2697  1.7769
  173DOPC  H17Y21170   1.037   1.896  14.239  0.2766 -0.1949 -0.8608
  173DOPC  C31821171   0.879   2.034  14.194  0.2631 -0.2180  0.3086
  173DOPC  H18X21172   0.791   1.986  14.243  0.1226 -0.7723 -0.4564
  173DOPC  H18Y21173   0.912   2.111  14.266  0.4200 -0.0220  0.0301
  173DOPC  H18Z21174   0.836   2.083  14.104  0.3341 -0.1369  0.3189
  174DOPC     N21175   5.725   4.027  13.118 -0.2820  0.1479  0.3657
  174DOPC   C1221176   5.789   3.901  13.067  1.2196 -0.4939  0.0883
  174DOPC  H12A21177   5.887   3.924  13.027  0.1246  0.9427 -1.9158
  174DOPC  H12B21178   5.731   3.877  12.980 -0.1231  3.0980 -0.1620
  174DOPC   C1321179   5.781   4.071  13.249 -0.0869  0.2312  0.0038
  174DOPC  H13A21180   5.889   4.071  13.239 -0.2232  0.5441 -1.6127
  174DOPC  H13B21181   5.748   4.172  13.264 -0.4938  0.7902 -3.7595
  174DOPC  H13C21182   5.738   4.006  13.324  0.2974  0.0439  0.0652
  174DOPC   C1421183   5.579   4.014  13.125 -0.0005 -0.0653  0.5330
  174DOPC  H14A21184   5.558   3.924  13.180 -0.7745 -0.0942  0.1991
  174DOPC  H14B21185   5.539   4.095  13.184  1.0280  1.2574 -0.5243
  174DOPC  H14C21186   5.533   4.020  13.028  0.3525  1.6202  0.4480
  174DOPC   C1521187   5.765   4.139  13.015 -0.0628 -0.6369 -0.3648
  174DOPC  H15A21188   5.729   4.118  12.916  1.5707  2.0158 -1.6241
  174DOPC  H15B21189   5.870   4.163  13.011 -0.7383  2.7956 -0.3145
  174DOPC  H15C21190   5.715   4.228  13.049  2.5915  1.7721 -2.2923
  174DOPC   C1121191   5.794   3.794  13.180 -0.1002 -0.0121 -0.1876
  174DOPC  H11A21192   5.859   3.718  13.133 -2.0185 -0.2297 -2.7163
  174DOPC  H11B21193   5.847   3.834  13.269  1.1557 -0.1866 -0.8375
  174DOPC     P21194   5.595   3.624  13.148  0.4089  0.6196  0.2932
  174DOPC   O1321195   5.665   3.595  13.017  0.3382 -0.1333 -0.4281
  174DOPC   O1421196   5.442   3.622  13.144 -0.2297  0.0425 -1.1593
  174DOPC   O1221197   5.664   3.754  13.215 -0.9853  0.2199  0.0974
  174DOPC   O1121198   5.641   3.522  13.249 -0.0350  0.1184 -0.3781
  174DOPC    C121199   5.573   3.521  13.379  0.4204  0.0211  0.9520
  174DOPC    HA21200   5.468   3.487  13.366  0.2481  0.9014 -0.0925
  174DOPC    HB21201   5.560   3.624  13.417 -1.3965  0.1623  0.0749
  174DOPC    C221202   5.642   3.432  13.485  0.2687 -0.6933  0.0159
  174DOPC    HS21203   5.598   3.444  13.586 -1.5034 -1.0232 -0.6775
  174DOPC   O2121204   5.782   3.439  13.484  0.7668  0.2309 -0.0531
  174DOPC   C2121205   5.832   3.558  13.506  0.1919  0.0467 -0.4179
  174DOPC   O2221206   5.767   3.655  13.533  0.6132 -0.0966  0.3400
  174DOPC   C2221207   5.986   3.554  13.524  0.2014  0.5074 -0.0105
  174DOPC   H2R21208   6.022   3.502  13.433 -0.7298 -0.2427  0.0228
  174DOPC   H2S21209   6.006   3.486  13.610  0.6145 -1.0680 -1.2846
  174DOPC    C321210   5.599   3.290  13.459 -0.2386  0.6833 -0.7952
  174DOPC    HX21211   5.573   3.278  13.351  1.9436 -2.5683 -1.0832
  174DOPC    HY21212   5.496   3.275  13.498 -0.0933  2.0325  0.1663
  174DOPC   O3121213   5.694   3.193  13.507  0.5824 -1.1973 -0.2311
  174DOPC   C3121214   5.792   3.168  13.423  0.5221 -0.3783 -0.8225
  174DOPC   O3221215   5.805   3.211  13.309 -0.1625  0.3213 -0.2103
  174DOPC   C3221216   5.888   3.078  13.502  0.4452 -0.4574  0.3029
  174DOPC   H2X21217   5.828   2.993  13.541 -2.2387  1.3224  0.2837
  174DOPC   H2Y21218   5.953   3.043  13.419 -0.3477 -0.7020 -0.2234
  174DOPC   C2321219   6.057   3.691  13.541  0.3135 -0.2196  0.3937
  174DOPC   H3R21220   6.032   3.762  13.460 -2.1638 -0.3531  0.9693
  174DOPC   H3S21221   6.167   3.676  13.537  0.9150  3.2237  0.8980
  174DOPC   C2421222   6.037   3.770  13.670  0.0188 -0.1271 -0.4638
  174DOPC   H4R21223   5.992   3.703  13.746  1.1372 -2.0519 -1.4010
  174DOPC   H4S21224   5.953   3.841  13.657  0.7175  0.7138 -0.4974
  174DOPC   C2521225   6.155   3.855  13.719 -0.5137  0.2782  0.1921
  174DOPC   H5R21226   6.178   3.933  13.642  1.9125 -0.4285  0.1340
  174DOPC   H5S21227   6.253   3.809  13.743 -0.2661  1.6684  2.0184
  174DOPC   C2621228   6.113   3.933  13.846 -0.1348  0.1701  0.2573
  174DOPC   H6R21229   6.103   3.862  13.931 -1.9449  1.1101  0.8951
  174DOPC   H6S21230   6.025   3.999  13.834 -1.8817 -1.5096  2.7339
  174DOPC   C2721231   6.230   4.018  13.891  0.4246  0.2350  0.2754
  174DOPC   H7R21232   6.283   4.068  13.808  0.7331  2.2070  1.5962
  174DOPC   H7S21233   6.309   3.957  13.940  0.8983  0.1572 -0.5683
  174DOPC   C2821234   6.174   4.133  13.983 -0.2766 -0.0779  0.3777
  174DOPC   H8R21235   6.088   4.188  13.938 -1.1231 -0.9097  0.9613
  174DOPC   H8S21236   6.248   4.217  13.986 -1.0366  0.6532 -0.5735
  174DOPC   C2921237   6.130   4.087  14.118  0.0267  0.2155  0.9705
  174DOPC   H9R21238   6.077   3.991  14.110  1.5539 -0.5891  0.1406
  174DOPC  C21021239   6.133   4.157  14.234  0.1614  0.5001 -0.2771
  174DOPC  H10R21240   6.093   4.110  14.324  0.3653  2.7771  1.0699
  174DOPC  C21121241   6.198   4.290  14.250 -0.0411 -0.1472 -0.1637
  174DOPC  H11R21242   6.133   4.376  14.223 -1.6199 -1.0811  0.5263
  174DOPC  H11S21243   6.292   4.301  14.192  0.2232  1.4080  0.5185
  174DOPC  C21221244   6.235   4.313  14.399 -0.6609  0.4974  0.1630
  174DOPC  H12R21245   6.312   4.392  14.384 -1.3610  1.2003  0.2327
  174DOPC  H12S21246   6.281   4.226  14.450 -0.7436 -0.3096 -1.0878
  174DOPC  C21321247   6.127   4.366  14.499  0.7529  0.2423 -0.4007
  174DOPC  H13R21248   6.053   4.285  14.516  0.0339  0.4144 -2.5039
  174DOPC  H13S21249   6.070   4.451  14.457 -0.4173 -0.1944  0.2520
  174DOPC  C21421250   6.189   4.410  14.632  0.3379  0.0163 -0.4579
  174DOPC  H14R21251   6.263   4.492  14.621  1.0327 -0.4176  0.6884
  174DOPC  H14S21252   6.248   4.324  14.673 -0.5501  0.2759  1.4723
  174DOPC  C21521253   6.067   4.441  14.726 -0.2019  0.2421  0.0260
  174DOPC  H15R21254   6.013   4.347  14.752 -0.1905  0.6194  1.5165
  174DOPC  H15S21255   5.999   4.510  14.672  1.4436  0.9575 -1.2084
  174DOPC  C21621256   6.110   4.521  14.856 -0.2789  0.2610  0.7849
  174DOPC  H16R21257   6.150   4.618  14.822 -0.6868  0.9609  2.2084
  174DOPC  H16S21258   6.195   4.471  14.908 -1.1684  0.3998  2.4423
  174DOPC  C21721259   5.993   4.539  14.946  0.5397 -0.0532 -0.0479
  174DOPC  H17R21260   5.961   4.438  14.978 -0.7941  0.5501  0.6453
  174DOPC  H17S21261   5.901   4.578  14.896  1.9259  1.6198 -1.4458
  174DOPC  C21821262   6.013   4.632  15.065 -0.0876  0.4293 -0.0867
  174DOPC  H18R21263   5.923   4.639  15.129  1.8952  2.3360  2.7333
  174DOPC  H18S21264   6.045   4.727  15.018  1.0462 -1.1495 -2.8212
  174DOPC  H18T21265   6.090   4.589  15.133 -1.5679  2.5871  3.2021
  174DOPC   C3321266   5.967   3.151  13.619  0.1988 -0.1527  0.2290
  174DOPC   H3X21267   5.902   3.199  13.695 -1.1742 -1.0776 -0.3022
  174DOPC   H3Y21268   6.021   3.233  13.567 -2.9325  2.2653  0.5133
  174DOPC   C3421269   6.062   3.066  13.699 -0.3386  0.4335  0.4811
  174DOPC   H4X21270   6.088   3.110  13.798 -1.6421 -3.1903  2.6141
  174DOPC   H4Y21271   6.154   3.062  13.636  0.5909  0.4260  1.7918
  174DOPC   C3521272   6.012   2.922  13.738 -0.1316  0.4965  0.0108
  174DOPC   H5X21273   6.004   2.856  13.650 -0.7966 -1.0399  1.1853
  174DOPC   H5Y21274   5.916   2.942  13.791  0.2776 -1.6219  1.6982
  174DOPC   C3621275   6.104   2.854  13.842 -0.2036  0.1303  0.6314
  174DOPC   H6X21276   6.048   2.763  13.873 -0.6634 -0.3991 -1.6062
  174DOPC   H6Y21277   6.208   2.830  13.812  0.3492  1.6208  1.2443
  174DOPC   C3721278   6.121   2.939  13.971 -0.1841 -0.3123 -0.2893
  174DOPC   H7X21279   6.173   3.035  13.950 -1.3453  1.0229  2.4421
  174DOPC   H7Y21280   6.026   2.970  14.019 -0.5357 -1.6132 -0.1031
  174DOPC   C3821281   6.212   2.882  14.079 -0.1348  0.1193 -0.1515
  174DOPC   H8X21282   6.214   2.952  14.164 -1.7626  0.5536 -0.4225
  174DOPC   H8Y21283   6.314   2.865  14.039  0.2253 -0.2589  0.9013
  174DOPC   C3921284   6.149   2.758  14.140 -0.1023  0.5899  0.2431
  174DOPC   H9X21285   6.068   2.705  14.088 -1.7912  0.9839  2.3035
  174DOPC  C31021286   6.173   2.712  14.261 -0.4556 -0.1387  0.1453
  174DOPC  H10X21287   6.125   2.622  14.302  2.0445 -2.0964 -0.9838
  174DOPC  C31121288   6.269   2.786  14.355 -0.1688  0.0299 -0.4426
  174DOPC  H11X21289   6.223   2.876  14.401 -1.2482 -0.4174 -0.6106
  174DOPC  H11Y21290   6.363   2.818  14.305  0.2709  0.7999  0.8321
  174DOPC  C31221291   6.327   2.714  14.484  0.1463 -0.0950 -0.1651
  174DOPC  H12X21292   6.337   2.605  14.462  0.3001 -0.1092 -0.0309
  174DOPC  H12Y21293   6.257   2.719  14.571 -2.0171  0.5639 -1.8532
  174DOPC  C31321294   6.464   2.779  14.519 -0.2972  0.2688 -1.0906
  174DOPC  H13X21295   6.527   2.792  14.428  0.1251  0.8073 -0.7251
  174DOPC  H13Y21296   6.451   2.882  14.558  1.5324  0.4262 -0.8471
  174DOPC  C31421297   6.541   2.696  14.634  0.7539 -0.2099 -0.1696
  174DOPC  H14X21298   6.456   2.666  14.699 -0.2823 -2.2990 -2.3632
  174DOPC  H14Y21299   6.588   2.606  14.588  2.8634 -0.1457  1.6659
  174DOPC  C31521300   6.646   2.771  14.707 -0.7113  0.2611 -0.2157
  174DOPC  H15X21301   6.691   2.706  14.785 -0.0109  0.0675 -0.7772
  174DOPC  H15Y21302   6.608   2.850  14.776  0.1343 -0.3915  1.0491
  174DOPC  C31621303   6.761   2.820  14.614 -0.2403  0.3223 -0.6873
  174DOPC  H16X21304   6.798   2.744  14.542 -0.3649  0.3608 -0.7919
  174DOPC  H16Y21305   6.723   2.904  14.551 -0.7798  0.7358  0.1709
  174DOPC  C31721306   6.887   2.855  14.696  0.3418  0.1817  0.0178
  174DOPC  H17X21307   6.872   2.948  14.754 -0.3327 -0.2585  0.5607
  174DOPC  H17Y21308   6.897   2.773  14.770  0.2467 -0.9513 -1.1833
  174DOPC  C31821309   7.018   2.876  14.616  0.4657 -0.0529 -0.3532
  174DOPC  H18X21310   7.031   2.807  14.530 -1.3029 -0.4117 -0.3723
  174DOPC  H18Y21311   7.020   2.977  14.570  0.8274 -1.0035 -2.5439
  174DOPC  H18Z21312   7.099   2.871  14.692 -0.1561 -0.9609  0.2663
  175DOPC     N21313   4.862   7.499  13.158  0.2524 -0.4172 -0.0029
  175DOPC   C1221314   4.855   7.452  13.304 -0.0150 -0.2611  0.7388
  175DOPC  H12A21315   4.823   7.529  13.373  4.0906  2.1783  0.2756
  175DOPC  H12B21316   4.954   7.440  13.347 -0.5723 -3.0569  1.4566
  175DOPC   C1321317   4.931   7.636  13.143 -0.0306 -0.1962  0.5640
  175DOPC  H13A21318   4.888   7.716  13.201 -1.9572  2.0460 -3.4997
  175DOPC  H13B21319   5.037   7.619  13.156  0.1058 -0.0427 -0.3113
  175DOPC  H13C21320   4.926   7.657  13.037  0.6786 -0.6251  0.4358
  175DOPC   C1421321   4.715   7.505  13.115 -0.7458 -0.3979  0.0822
  175DOPC  H14A21322   4.670   7.411  13.144  1.2319 -2.1338 -1.9797
  175DOPC  H14B21323   4.669   7.584  13.171  0.7201  1.6053 -1.3871
  175DOPC  H14C21324   4.705   7.503  13.007 -1.4573 -1.2355  0.1533
  175DOPC   C1521325   4.946   7.407  13.079  0.0746  0.3563 -0.3849
  175DOPC  H15A21326   5.023   7.366  13.144 -0.4424  0.0777  0.0644
  175DOPC  H15B21327   4.987   7.456  12.992 -1.4464 -0.0317 -1.3608
  175DOPC  H15C21328   4.886   7.327  13.037  0.4559  0.2829 -0.8002
  175DOPC   C1121329   4.799   7.312  13.338  0.2726 -1.0672  0.5534
  175DOPC  H11A21330   4.793   7.321  13.448 -2.1783 -0.2403  0.4096
  175DOPC  H11B21331   4.691   7.306  13.314 -0.6065  4.5024  1.7949
  175DOPC     P21332   5.006   7.148  13.361  0.1094 -0.0474 -0.4093
  175DOPC   O1321333   5.094   7.267  13.392 -0.5737 -0.1409  0.1103
  175DOPC   O1421334   5.063   7.031  13.290 -0.1348  0.1445  0.0857
  175DOPC   O1221335   4.876   7.204  13.281  0.3059  0.4519 -0.1621
  175DOPC   O1121336   4.926   7.099  13.491  0.3785  0.0701 -0.1621
  175DOPC    C121337   4.832   6.992  13.467 -0.9484 -0.1816  0.6891
  175DOPC    HA21338   4.883   6.895  13.447  0.6282  1.0048 -1.4962
  175DOPC    HB21339   4.759   7.008  13.385 -1.4692  1.3706  1.4262
  175DOPC    C221340   4.747   6.965  13.601 -0.3219  0.2741  0.2174
  175DOPC    HS21341   4.656   6.911  13.568  0.7210 -1.1306 -0.4706
  175DOPC   O2121342   4.716   7.094  13.666 -0.5876 -0.3677 -0.2798
  175DOPC   C2121343   4.621   7.161  13.606  0.1920  0.3488 -0.8979
  175DOPC   O2221344   4.557   7.127  13.511 -0.1238 -0.6097 -0.5223
  175DOPC   C2221345   4.615   7.299  13.679  0.4057  0.2221  0.0944
  175DOPC   H2R21346   4.702   7.350  13.633  0.3345 -0.5546 -0.9335
  175DOPC   H2S21347   4.629   7.282  13.788  0.5424  1.1628  0.2308
  175DOPC    C321348   4.835   6.878  13.703 -0.4253 -0.6138  0.1292
  175DOPC    HX21349   4.925   6.939  13.728 -1.0340  0.8563 -1.1330
  175DOPC    HY21350   4.874   6.791  13.646 -1.9390  0.0804 -2.1064
  175DOPC   O3121351   4.773   6.843  13.828 -0.3131  0.9425  0.0612
  175DOPC   C3121352   4.683   6.740  13.816  0.9886 -0.0610 -0.4635
  175DOPC   O3221353   4.667   6.675  13.715  0.3728  0.0811 -0.1877
  175DOPC   C3221354   4.624   6.705  13.952  0.2258 -0.2646  0.9672
  175DOPC   H2X21355   4.591   6.599  13.948  0.3197 -0.2618 -0.1960
  175DOPC   H2Y21356   4.707   6.719  14.024 -0.9909  0.4039  2.2832
  175DOPC   C2321357   4.498   7.376  13.630 -0.3984  0.5811  0.0089
  175DOPC   H3R21358   4.407   7.313  13.630  0.5351 -0.8380 -1.4986
  175DOPC   H3S21359   4.504   7.396  13.521  2.1696 -1.0915 -0.2539
  175DOPC   C2421360   4.478   7.516  13.707 -0.2184  0.4022 -0.1381
  175DOPC   H4R21361   4.494   7.493  13.815 -0.7662  1.8872  0.2793
  175DOPC   H4S21362   4.378   7.562  13.694  0.2501  1.2951 -0.6487
  175DOPC   C2521363   4.578   7.618  13.664 -0.7993  0.4321  0.0293
  175DOPC   H5R21364   4.587   7.609  13.554  0.0239 -0.2177  0.1397
  175DOPC   H5S21365   4.680   7.584  13.690 -0.2689  0.6193 -1.6846
  175DOPC   C2621366   4.541   7.748  13.729 -0.3681 -0.1155 -0.2523
  175DOPC   H6R21367   4.565   7.749  13.838  0.5968 -1.8013 -0.4221
  175DOPC   H6S21368   4.436   7.779  13.711 -0.3583 -0.1509 -0.3670
  175DOPC   C2721369   4.637   7.853  13.672  0.1555  0.8110  0.0084
  175DOPC   H7R21370   4.649   7.841  13.563  1.0865  1.9806 -0.0333
  175DOPC   H7S21371   4.739   7.836  13.712  0.8039 -2.1546 -2.5715
  175DOPC   C2821372   4.590   7.989  13.710  0.0585  0.2167 -0.1138
  175DOPC   H8R21373   4.582   8.004  13.820  3.3370 -0.7641  0.3924
  175DOPC   H8S21374   4.491   8.016  13.667 -1.0512 -1.0060  1.5877
  175DOPC   C2921375   4.690   8.089  13.646 -0.3398  1.0268  0.1439
  175DOPC   H9R21376   4.722   8.066  13.543 -0.7156 -2.0380  0.6083
  175DOPC  C21021377   4.743   8.196  13.706 -0.3105  0.1850  0.4463
  175DOPC  H10R21378   4.814   8.262  13.654  0.8542 -1.1822  0.2319
  175DOPC  C21121379   4.735   8.227  13.858  0.1400 -0.4065  0.7716
  175DOPC  H11R21380   4.685   8.148  13.919 -1.6435  0.3373  0.3238
  175DOPC  H11S21381   4.682   8.323  13.874  2.3112  0.6316  2.2929
  175DOPC  C21221382   4.873   8.244  13.932 -0.4671 -0.2592  0.9851
  175DOPC  H12R21383   4.946   8.312  13.882  0.5614 -1.2316  1.1207
  175DOPC  H12S21384   4.921   8.145  13.947 -1.8366 -1.3891 -1.4971
  175DOPC  C21321385   4.840   8.323  14.054  0.3917  0.6519 -0.3202
  175DOPC  H13R21386   4.766   8.262  14.110 -0.6849  2.1964  0.0187
  175DOPC  H13S21387   4.790   8.420  14.033  0.7563  1.2039  1.1934
  175DOPC  C21421388   4.965   8.356  14.144  0.5113  0.2797 -0.4068
  175DOPC  H14R21389   5.030   8.422  14.082 -1.8941  2.1106 -1.1081
  175DOPC  H14S21390   5.013   8.258  14.165  1.4824  0.9537  0.6819
  175DOPC  C21521391   4.918   8.430  14.274 -0.4206 -0.7518  0.5235
  175DOPC  H15R21392   4.843   8.361  14.319  0.0138 -1.2105  0.5439
  175DOPC  H15S21393   4.877   8.530  14.247 -0.4107 -1.2224 -1.3312
  175DOPC  C21621394   5.032   8.438  14.384  0.0629 -0.5918  0.5581
  175DOPC  H16R21395   4.998   8.517  14.454 -0.2303  0.5397 -0.8151
  175DOPC  H16S21396   5.127   8.478  14.344 -1.1648  2.9099  0.7784
  175DOPC  C21721397   5.034   8.302  14.458  1.4417  0.1059  0.4551
  175DOPC  H17R21398   5.052   8.215  14.392 -1.1054 -0.1646  0.0414
  175DOPC  H17S21399   4.935   8.277  14.499  0.6123 -2.5890 -2.7626
  175DOPC  C21821400   5.135   8.301  14.577  0.0578 -0.1506 -0.0749
  175DOPC  H18R21401   5.242   8.311  14.549  0.2677 -0.0410  0.7546
  175DOPC  H18S21402   5.123   8.207  14.635  0.4813  1.1148  2.2115
  175DOPC  H18T21403   5.104   8.381  14.647  0.3755 -0.1655  0.0843
  175DOPC   C3321404   4.497   6.792  13.973 -0.1919  0.5730 -0.0892
  175DOPC   H3X21405   4.427   6.764  13.893 -1.3344 -1.3983  1.5243
  175DOPC   H3Y21406   4.531   6.898  13.970  0.6231  0.2914 -1.4855
  175DOPC   C3421407   4.431   6.754  14.106 -0.1181 -0.1796  0.4096
  175DOPC   H4X21408   4.504   6.747  14.190 -2.0907 -1.7499  2.1194
  175DOPC   H4Y21409   4.395   6.650  14.092 -2.4441  0.4770  1.0391
  175DOPC   C3521410   4.313   6.842  14.131  0.3151 -0.3121  0.0501
  175DOPC   H5X21411   4.221   6.806  14.081 -0.8832  2.2806  0.1914
  175DOPC   H5Y21412   4.337   6.936  14.076 -0.4349 -0.3523 -0.3543
  175DOPC   C3621413   4.272   6.856  14.281  0.5864  0.3167  0.1741
  175DOPC   H6X21414   4.270   6.751  14.318 -2.6440  0.6104  1.1190
  175DOPC   H6Y21415   4.349   6.913  14.337 -0.0330  0.9175  0.4238
  175DOPC   C3721416   4.133   6.924  14.310  0.2813 -1.3347 -0.3641
  175DOPC   H7X21417   4.129   7.010  14.240  0.7450  0.0004  1.1914
  175DOPC   H7Y21418   4.057   6.848  14.282 -0.4750 -1.3285  1.5269
  175DOPC   C3821419   4.123   6.983  14.451 -0.0401  0.1918 -0.2804
  175DOPC   H8X21420   4.044   7.061  14.449  1.7022  2.0190 -0.0167
  175DOPC   H8Y21421   4.206   7.054  14.465  0.4915 -0.2547 -1.0922
  175DOPC   C3921422   4.123   6.873  14.561  0.3854  0.2333 -0.1916
  175DOPC   H9X21423   4.220   6.820  14.564  1.5969  2.1774 -2.0878
  175DOPC  C31021424   4.033   6.857  14.660  0.1667  0.5882 -0.3885
  175DOPC  H10X21425   4.043   6.767  14.722  0.9518  0.2247 -1.0296
  175DOPC  C31121426   3.930   6.959  14.694  0.3494 -0.5502 -0.2143
  175DOPC  H11X21427   3.853   6.904  14.752  0.9650 -1.1355  0.0549
  175DOPC  H11Y21428   3.877   7.003  14.607 -1.1509  0.6800  1.2618
  175DOPC  C31221429   3.969   7.081  14.785 -0.3708 -0.4314 -0.7391
  175DOPC  H12X21430   4.051   7.063  14.857 -1.2514 -1.7282  0.0014
  175DOPC  H12Y21431   3.886   7.107  14.854 -0.1952  0.2092 -0.7666
  175DOPC  C31321432   3.989   7.211  14.709 -0.2791  0.3927 -0.0308
  175DOPC  H13X21433   4.088   7.201  14.660 -0.4520  0.3031 -0.3652
  175DOPC  H13Y21434   3.914   7.230  14.629  0.7079  1.6633 -0.6889
  175DOPC  C31421435   4.010   7.336  14.801  0.4320  0.1086  0.2112
  175DOPC  H14X21436   4.085   7.301  14.875  0.0198 -0.0403  0.5566
  175DOPC  H14Y21437   4.070   7.411  14.744  0.5197 -0.6388 -0.7267
  175DOPC  C31521438   3.883   7.394  14.855  0.0055  0.1352 -0.8067
  175DOPC  H15X21439   3.901   7.464  14.939  0.9950 -0.7106 -0.2955
  175DOPC  H15Y21440   3.824   7.309  14.896  0.0325  0.2088 -0.6128
  175DOPC  C31621441   3.799   7.463  14.751  0.5023 -0.1416 -0.0510
  175DOPC  H16X21442   3.832   7.562  14.711 -1.6324  0.8212  0.3967
  175DOPC  H16Y21443   3.806   7.390  14.668 -0.2565 -1.6115  1.1391
  175DOPC  C31721444   3.645   7.473  14.785  0.1020  0.3108  0.4739
  175DOPC  H17X21445   3.591   7.522  14.703 -1.1705 -3.9680 -1.5306
  175DOPC  H17Y21446   3.608   7.368  14.789 -0.2788  0.4673  1.3026
  175DOPC  C31821447   3.623   7.541  14.922  0.4607  0.0537 -0.1421
  175DOPC  H18X21448   3.673   7.640  14.920 -0.1120  0.3671  0.5959
  175DOPC  H18Y21449   3.517   7.565  14.945  0.6954  2.2026 -1.0376
  175DOPC  H18Z21450   3.680   7.487  15.000 -0.3885  1.0473  1.1965
  176DOPC     N21451   2.895   0.993  13.072 -0.1305  1.1789  0.5635
  176DOPC   C1221452   2.845   0.886  13.174  0.6784 -0.4037  0.4835
  176DOPC  H12A21453   2.750   0.859  13.129  1.0706 -1.1282  0.0810
  176DOPC  H12B21454   2.821   0.932  13.269  0.2218  3.3603 -1.2378
  176DOPC   C1321455   2.892   0.932  12.933 -0.1068  0.2597  0.2732
  176DOPC  H13A21456   2.790   0.903  12.909  0.1840 -2.1375  1.5936
  176DOPC  H13B21457   2.921   1.002  12.856 -0.9752 -1.3684 -1.6081
  176DOPC  H13C21458   2.960   0.850  12.916  0.6417  0.6946  1.0731
  176DOPC   C1421459   3.043   1.018  13.101 -0.1758  0.7209  0.3369
  176DOPC  H14A21460   3.050   1.061  13.200  0.4864  0.6263  0.3355
  176DOPC  H14B21461   3.101   0.927  13.100 -0.4850  0.5234  0.2986
  176DOPC  H14C21462   3.082   1.086  13.026 -0.5720  0.6779  0.0915
  176DOPC   C1521463   2.813   1.114  13.069 -0.0525  0.3782 -0.0441
  176DOPC  H15A21464   2.859   1.183  13.000  1.2062 -2.2726 -2.0776
  176DOPC  H15B21465   2.806   1.156  13.168  5.0389 -1.2987  1.3498
  176DOPC  H15C21466   2.715   1.082  13.038 -0.7222  1.9093  0.4154
  176DOPC   C1121467   2.927   0.757  13.206 -0.1570 -0.1264 -0.5229
  176DOPC  H11A21468   2.869   0.674  13.251 -1.4124  1.6715  1.3225
  176DOPC  H11B21469   2.959   0.720  13.106 -1.3414 -0.5606 -0.7484
  176DOPC     P21470   3.024   0.830  13.428  0.1767 -0.0190  0.1495
  176DOPC   O1321471   3.039   0.975  13.417 -0.8486  0.4122  0.1761
  176DOPC   O1421472   3.114   0.754  13.520  0.1514  0.1558  0.4547
  176DOPC   O1221473   3.049   0.781  13.278  0.9826 -0.1894 -0.0360
  176DOPC   O1121474   2.869   0.810  13.463 -0.1975  0.0191 -0.4470
  176DOPC    C121475   2.813   0.909  13.562 -0.6954  0.3542  0.5090
  176DOPC    HA21476   2.703   0.914  13.554 -0.6735  0.5089  0.2877
  176DOPC    HB21477   2.847   1.011  13.532  0.3175 -0.3943 -0.9694
  176DOPC    C221478   2.859   0.878  13.708  1.0038 -0.8019 -0.0212
  176DOPC    HS21479   2.969   0.882  13.719  0.9045  1.2538  0.8004
  176DOPC   O2121480   2.797   0.754  13.747  0.2915  0.4460 -0.1657
  176DOPC   C2121481   2.834   0.697  13.861  1.0943 -0.2770 -0.3430
  176DOPC   O2221482   2.939   0.722  13.913 -0.3879  0.1880 -0.6653
  176DOPC   C2221483   2.728   0.596  13.913 -0.1127 -0.4980  0.9169
  176DOPC   H2R21484   2.703   0.537  13.822  1.5013 -0.5192  0.4471
  176DOPC   H2S21485   2.630   0.638  13.944 -1.0340 -1.1384 -0.9940
  176DOPC    C321486   2.817   0.995  13.808  0.0440 -0.2741 -1.4175
  176DOPC    HX21487   2.857   1.088  13.761 -1.2927  1.1679  0.1463
  176DOPC    HY21488   2.856   0.984  13.912 -1.3459 -0.4376 -0.8969
  176DOPC   O3121489   2.673   1.001  13.826  0.7449  0.1884  0.7347
  176DOPC   C3121490   2.635   1.130  13.861  0.1588  0.0005  0.3461
  176DOPC   O3221491   2.714   1.222  13.873 -0.1201 -0.5613 -0.0198
  176DOPC   C3221492   2.484   1.136  13.847 -0.7094  0.1677  1.1078
  176DOPC   H2X21493   2.468   1.121  13.738 -1.2211  0.5633  1.1212
  176DOPC   H2Y21494   2.431   1.053  13.898  1.3126 -1.1088  1.2372
  176DOPC   C2321495   2.795   0.492  14.003 -0.2135  0.3326 -0.9740
  176DOPC   H3R21496   2.826   0.532  14.102 -0.5833 -2.5411  0.4321
  176DOPC   H3S21497   2.889   0.464  13.951 -0.3054 -0.1137 -0.9112
  176DOPC   C2421498   2.698   0.376  14.025 -0.1274  0.8714  0.3412
  176DOPC   H4R21499   2.744   0.313  14.104 -1.1822  1.2376  1.2703
  176DOPC   H4S21500   2.679   0.316  13.933 -1.6885  0.9227  0.6004
  176DOPC   C2521501   2.565   0.417  14.097  0.0370 -1.0064 -0.0957
  176DOPC   H5R21502   2.503   0.473  14.024 -1.4627 -1.1990  0.9753
  176DOPC   H5S21503   2.588   0.480  14.185 -1.5953 -1.2627  0.5429
  176DOPC   C2621504   2.482   0.297  14.145 -0.2673  0.6766  0.7396
  176DOPC   H6R21505   2.387   0.333  14.191 -0.2809 -1.6947  2.7645
  176DOPC   H6S21506   2.529   0.242  14.229 -1.6830 -1.0379  0.4736
  176DOPC   C2721507   2.455   0.204  14.026 -0.2858 -0.1347 -0.0794
  176DOPC   H7R21508   2.535   0.128  14.010 -1.3546 -1.0394 -1.4527
  176DOPC   H7S21509   2.450   0.283  13.948 -1.1431  1.3676  1.4479
  176DOPC   C2821510   2.319   0.138  14.031  0.8628  0.0897  0.5164
  176DOPC   H8R21511   2.298   0.096  13.930  2.6512  0.4712 -0.0529
  176DOPC   H8S21512   2.241   0.214  14.053  2.1289  1.9394 -1.0458
  176DOPC   C2921513   2.321   0.039  14.148 -0.2697 -0.6118  0.0907
  176DOPC   H9R21514   2.407  -0.028  14.153 -0.1821 -0.6986 -1.7102
  176DOPC  C21021515   2.227   0.021  14.235 -0.3210 -0.0618 -0.0553
  176DOPC  H10R21516   2.249  -0.051  14.315  1.5705 -0.9624 -1.3188
  176DOPC  C21121517   2.091   0.063  14.228 -0.0025 -0.9388  0.0885
  176DOPC  H11R21518   2.061   0.110  14.132 -2.8847 -1.5299  0.6134
  176DOPC  H11S21519   2.079   0.140  14.308 -0.2586 -0.5762 -0.2979
  176DOPC  C21221520   1.983  -0.040  14.263 -0.5628 -0.1060 -0.0805
  176DOPC  H12R21521   1.989  -0.108  14.351 -1.6551  0.0518  0.1298
  176DOPC  H12S21522   1.980  -0.117  14.183 -0.1026 -0.7103  0.4716
  176DOPC  C21321523   1.845   0.025  14.254  0.0289 -0.6782 -0.0743
  176DOPC  H13R21524   1.776  -0.058  14.228  0.7093 -1.3370  0.1966
  176DOPC  H13S21525   1.849   0.096  14.169 -2.3111  0.1305  0.4101
  176DOPC  C21421526   1.801   0.082  14.387 -0.2683 -0.2656  0.3505
  176DOPC  H14R21527   1.889   0.132  14.433 -0.5503 -1.9305  2.8879
  176DOPC  H14S21528   1.773  -0.006  14.448  0.3136 -0.2792  0.6088
  176DOPC  C21521529   1.696   0.189  14.366 -0.5887  0.3267 -0.4319
  176DOPC  H15R21530   1.598   0.140  14.346  0.1540 -0.6792 -1.7896
  176DOPC  H15S21531   1.731   0.245  14.276  1.0410  0.6371  0.3737
  176DOPC  C21621532   1.691   0.276  14.493  0.3348  0.7603  0.0208
  176DOPC  H16R21533   1.796   0.304  14.516  0.4198  2.0959 -1.7495
  176DOPC  H16S21534   1.665   0.205  14.575 -0.0861  1.4201  0.4716
  176DOPC  C21721535   1.606   0.398  14.503 -0.0905  0.1658  0.0412
  176DOPC  H17R21536   1.503   0.357  14.511 -0.0682  0.5144  3.0674
  176DOPC  H17S21537   1.621   0.453  14.407  1.7065  0.4863  0.4790
  176DOPC  C21821538   1.635   0.480  14.626 -0.1171  0.2060  0.1947
  176DOPC  H18R21539   1.536   0.510  14.667 -0.5301 -2.5046  1.4080
  176DOPC  H18S21540   1.712   0.559  14.611  0.6247 -0.8186 -1.6102
  176DOPC  H18T21541   1.683   0.411  14.699  3.6342 -0.0629 -2.2735
  176DOPC   C3321542   2.425   1.269  13.878 -0.2278 -0.3413 -0.1015
  176DOPC   H3X21543   2.473   1.352  13.821 -0.4736 -1.7038 -2.3783
  176DOPC   H3Y21544   2.422   1.290  13.988 -1.1827 -0.3054 -0.1309
  176DOPC   C3421545   2.280   1.276  13.815  0.3080  0.1089 -0.2919
  176DOPC   H4X21546   2.221   1.189  13.849  1.2900 -0.5442 -0.2176
  176DOPC   H4Y21547   2.279   1.273  13.704  0.1408  0.0475 -0.2887
  176DOPC   C3521548   2.205   1.407  13.867  0.1301 -0.3319  0.2877
  176DOPC   H5X21549   2.264   1.497  13.837 -1.7394  0.6250 -0.6645
  176DOPC   H5Y21550   2.176   1.399  13.973  1.7601 -0.5804  0.7401
  176DOPC   C3621551   2.069   1.421  13.793  0.0615  0.5624 -0.1660
  176DOPC   H6X21552   2.097   1.456  13.692  1.0690 -0.6128 -0.3228
  176DOPC   H6Y21553   2.028   1.318  13.797  0.2113  0.5011 -0.1754
  176DOPC   C3721554   1.976   1.516  13.876 -0.2948  0.1060 -0.5573
  176DOPC   H7X21555   1.961   1.477  13.979 -1.7757 -0.1009 -0.8227
  176DOPC   H7Y21556   2.015   1.618  13.891 -0.5040  0.1523 -0.3167
  176DOPC   C3821557   1.837   1.532  13.805 -0.5115  0.2818 -0.5121
  176DOPC   H8X21558   1.854   1.585  13.709  0.0759  0.8632 -0.1020
  176DOPC   H8Y21559   1.785   1.609  13.867 -0.6024 -0.6817  0.6456
  176DOPC   C3921560   1.753   1.407  13.794  0.0623 -0.4917  0.9701
  176DOPC   H9X21561   1.756   1.361  13.694  2.7247  0.0202  0.7383
  176DOPC  C31021562   1.680   1.345  13.884  0.4959 -0.7769 -0.3777
  176DOPC  H10X21563   1.620   1.261  13.845 -1.7098  0.9351 -0.9176
  176DOPC  C31121564   1.659   1.396  14.027 -0.8858  0.0035  0.3761
  176DOPC  H11X21565   1.625   1.501  14.012 -0.8852 -0.1940 -1.1613
  176DOPC  H11Y21566   1.747   1.403  14.095 -0.6138  1.1258 -0.0668
  176DOPC  C31221567   1.544   1.316  14.092  0.0652  0.4951  0.1868
  176DOPC  H12X21568   1.576   1.211  14.112 -2.1582  0.3284  3.8811
  176DOPC  H12Y21569   1.457   1.304  14.025 -0.0343  1.4756  0.1241
  176DOPC  C31321570   1.499   1.368  14.229  0.0240  0.5517  0.4432
  176DOPC  H13X21571   1.412   1.308  14.265 -0.8461  2.0993  1.0421
  176DOPC  H13Y21572   1.578   1.344  14.304 -0.3097  2.6284  1.5441
  176DOPC  C31421573   1.448   1.516  14.225  0.1773 -0.8659 -0.5782
  176DOPC  H14X21574   1.541   1.577  14.216  0.7448 -1.8608 -1.7657
  176DOPC  H14Y21575   1.380   1.547  14.144 -0.9152  0.9882  0.9664
  176DOPC  C31521576   1.388   1.543  14.359 -0.9077 -0.6347 -0.2367
  176DOPC  H15X21577   1.462   1.511  14.435  0.5581  0.0940 -1.2971
  176DOPC  H15Y21578   1.304   1.474  14.382 -1.2555  0.5104  2.1965
  176DOPC  C31621579   1.345   1.692  14.385  0.1703  0.0817  0.3046
  176DOPC  H16X21580   1.426   1.764  14.361 -0.4753  0.7632  0.1174
  176DOPC  H16Y21581   1.255   1.715  14.324  1.0864  0.2310 -1.0310
  176DOPC  C31721582   1.307   1.712  14.536  0.0150 -0.6709  0.1342
  176DOPC  H17X21583   1.265   1.814  14.529  2.7101  0.5151  0.1514
  176DOPC  H17Y21584   1.226   1.641  14.566 -1.9292  1.0783 -0.7100
  176DOPC  C31821585   1.430   1.726  14.631  0.6753 -0.7515  0.3502
  176DOPC  H18X21586   1.465   1.626  14.666 -1.7511 -0.6073  3.6434
  176DOPC  H18Y21587   1.515   1.780  14.585 -0.0858  0.3180  0.1749
  176DOPC  H18Z21588   1.397   1.774  14.725  0.6124  0.8824 -0.4783
  177DOPC     N21589   5.666   6.373  12.895 -0.1245 -0.1857 -0.3898
  177DOPC   C1221590   5.803   6.354  12.962  0.3261 -0.2798  0.1314
  177DOPC  H12A21591   5.863   6.444  12.968  0.0790 -0.1071  0.0152
  177DOPC  H12B21592   5.856   6.290  12.892 -0.9383  0.4398 -1.5587
  177DOPC   C1321593   5.578   6.461  12.982  0.0998 -0.1991  0.2876
  177DOPC  H13A21594   5.481   6.480  12.938 -0.4672 -0.8654  1.2284
  177DOPC  H13B21595   5.567   6.425  13.083 -0.8515 -1.1820 -0.1373
  177DOPC  H13C21596   5.625   6.557  12.995 -0.3351 -0.0729  0.9124
  177DOPC   C1421597   5.600   6.235  12.880 -0.1508  0.1994 -0.6389
  177DOPC  H14A21598   5.662   6.169  12.821  0.2554  1.2695 -1.4254
  177DOPC  H14B21599   5.594   6.185  12.976 -1.0484  1.9319  0.2624
  177DOPC  H14C21600   5.498   6.240  12.843 -0.7081 -1.7387  0.4493
  177DOPC   C1521601   5.683   6.448  12.765  0.6448  0.0409 -0.2614
  177DOPC  H15A21602   5.585   6.453  12.721  0.7392 -2.0452 -0.7994
  177DOPC  H15B21603   5.752   6.394  12.701  2.7936  2.5247 -0.2393
  177DOPC  H15C21604   5.713   6.550  12.781 -3.8649  1.3108  1.5866
  177DOPC   C1121605   5.825   6.280  13.098  0.3252 -0.6078 -0.4833
  177DOPC  H11A21606   5.917   6.311  13.152 -0.3675 -2.9371  2.2903
  177DOPC  H11B21607   5.748   6.326  13.163 -1.5059 -0.6715 -2.4726
  177DOPC     P21608   5.951   6.071  13.019  0.1887 -0.0551  0.0463
  177DOPC   O1321609   5.974   6.129  12.881  0.2022  0.1489 -0.4682
  177DOPC   O1421610   5.932   5.924  13.029 -0.1282  0.0521 -0.1219
  177DOPC   O1221611   5.812   6.136  13.083 -1.3433 -0.0126  0.3450
  177DOPC   O1121612   6.066   6.119  13.113  0.6124 -0.5100  0.1927
  177DOPC    C121613   6.119   6.039  13.208  0.4904  0.3953 -0.1660
  177DOPC    HA21614   6.229   6.048  13.226  0.1030  1.9996  1.7064
  177DOPC    HB21615   6.099   5.932  13.186 -1.5888  0.7291 -0.0307
  177DOPC    C221616   6.049   6.064  13.350 -0.1030  0.1651  0.6522
  177DOPC    HS21617   5.942   6.064  13.320  0.9460 -2.0722 -4.0229
  177DOPC   O2121618   6.095   6.190  13.405  0.2922  0.0570 -0.2951
  177DOPC   C2121619   6.006   6.255  13.476 -0.2607  0.8973 -0.4426
  177DOPC   O2221620   5.894   6.218  13.491 -0.0600  0.1916  0.1093
  177DOPC   C2221621   6.071   6.380  13.536 -0.0232 -0.3683  0.3012
  177DOPC   H2R21622   6.017   6.469  13.497 -1.2942 -1.8077 -1.4422
  177DOPC   H2S21623   6.177   6.383  13.503  0.5362  0.0789  2.0256
  177DOPC    C321624   6.064   5.942  13.443  0.2922 -0.4568  0.2062
  177DOPC    HX21625   6.170   5.941  13.473  0.8167 -2.2317 -1.4771
  177DOPC    HY21626   6.049   5.849  13.383 -1.3595  0.6660 -1.2381
  177DOPC   O3121627   5.979   5.946  13.560 -0.3111  0.5203 -0.1657
  177DOPC   C3121628   5.873   5.873  13.560  0.1956 -0.1634  0.0715
  177DOPC   O3221629   5.834   5.798  13.467  0.9089 -0.1225 -0.1197
  177DOPC   C3221630   5.791   5.886  13.688  0.6938  0.2417  0.0569
  177DOPC   H2X21631   5.798   5.987  13.734  0.6770  0.1595  0.2408
  177DOPC   H2Y21632   5.683   5.870  13.665  0.7014 -1.1474  0.9169
  177DOPC   C2321633   6.069   6.383  13.688 -0.3607  0.3744 -0.0508
  177DOPC   H3R21634   6.115   6.289  13.724  0.3157 -0.1310 -2.1034
  177DOPC   H3S21635   5.965   6.384  13.728  0.2064 -1.5209  1.6295
  177DOPC   C2421636   6.143   6.504  13.739 -0.0797 -0.0012  0.0292
  177DOPC   H4R21637   6.079   6.586  13.699  0.1223  0.8580  1.4140
  177DOPC   H4S21638   6.244   6.514  13.694 -0.1015  0.6274  0.1194
  177DOPC   C2521639   6.138   6.530  13.890 -0.0575 -0.0467  0.5419
  177DOPC   H5R21640   6.203   6.616  13.920  1.9580 -1.4083  0.3036
  177DOPC   H5S21641   6.194   6.447  13.937  1.9601  0.2563 -1.1587
  177DOPC   C2621642   5.999   6.546  13.947 -0.1270 -0.2411  0.0560
  177DOPC   H6R21643   5.942   6.455  13.921  0.2907 -0.5187  0.1014
  177DOPC   H6S21644   5.950   6.639  13.912  0.3412 -0.4336 -1.1604
  177DOPC   C2721645   6.007   6.549  14.099  0.0563  0.0632  0.2801
  177DOPC   H7R21646   6.055   6.642  14.137  1.5533  0.0358 -1.3985
  177DOPC   H7S21647   6.081   6.475  14.136 -0.7475 -0.7190  0.3743
  177DOPC   C2821648   5.865   6.525  14.156  0.5858  0.1756  0.0305
  177DOPC   H8R21649   5.888   6.497  14.262 -0.2763 -1.5397 -0.1962
  177DOPC   H8S21650   5.832   6.428  14.113 -1.7711  0.1203  1.7666
  177DOPC   C2921651   5.761   6.628  14.144 -0.1107 -0.6636  0.4813
  177DOPC   H9R21652   5.737   6.653  14.040  0.7803  0.8137  0.6186
  177DOPC  C21021653   5.683   6.670  14.247 -0.3957 -0.5864  0.6540
  177DOPC  H10R21654   5.607   6.750  14.239  0.5812  0.5631  2.2182
  177DOPC  C21121655   5.687   6.622  14.392 -0.8039  0.7089  0.6088
  177DOPC  H11R21656   5.734   6.709  14.441 -1.6415  1.5314 -0.0122
  177DOPC  H11S21657   5.741   6.527  14.411  0.2388  1.0989 -0.3309
  177DOPC  C21221658   5.548   6.612  14.461 -0.4436  0.1128 -0.1345
  177DOPC  H12R21659   5.570   6.576  14.564  2.1456  1.1671 -0.2315
  177DOPC  H12S21660   5.496   6.526  14.413  1.0310 -0.5508 -0.6340
  177DOPC  C21321661   5.471   6.746  14.471 -0.2541 -0.3674  0.2069
  177DOPC  H13R21662   5.379   6.729  14.531 -0.8428 -2.3233 -1.1436
  177DOPC  H13S21663   5.434   6.779  14.371 -0.4569  1.0418  0.7199
  177DOPC  C21421664   5.553   6.865  14.527  0.8445 -0.3282 -0.2281
  177DOPC  H14R21665   5.611   6.901  14.439  2.7391 -1.9683  0.2622
  177DOPC  H14S21666   5.634   6.834  14.596  2.1278 -0.5390 -1.7613
  177DOPC  C21521667   5.468   6.974  14.601 -0.8491 -0.2814 -0.0046
  177DOPC  H15R21668   5.380   7.008  14.544  0.3879 -0.8729 -2.3784
  177DOPC  H15S21669   5.536   7.060  14.620 -1.6656  0.3151  0.2820
  177DOPC  C21621670   5.425   6.929  14.745 -0.2778 -0.4121 -0.2442
  177DOPC  H16R21671   5.511   6.883  14.797 -0.4481 -0.2392  0.1913
  177DOPC  H16S21672   5.359   6.843  14.723 -0.1109 -0.2052 -1.7021
  177DOPC  C21721673   5.352   7.045  14.814  0.0248  0.2734  0.8124
  177DOPC  H17R21674   5.255   7.056  14.761  0.1772  2.8639  0.9585
  177DOPC  H17S21675   5.410   7.139  14.804  0.5076 -0.2117 -1.8126
  177DOPC  C21821676   5.332   7.004  14.953  0.2538 -0.3147 -0.1331
  177DOPC  H18R21677   5.427   6.969  14.999  0.2325  0.2707  0.3654
  177DOPC  H18S21678   5.259   6.921  14.960 -1.2762  0.9973  0.0486
  177DOPC  H18T21679   5.288   7.084  15.016  0.4425 -0.4627  0.1913
  177DOPC   C3321680   5.833   5.782  13.791 -0.1592  0.0205 -0.0695
  177DOPC   H3X21681   5.932   5.812  13.832 -0.1722 -0.4414  0.3016
  177DOPC   H3Y21682   5.844   5.684  13.741 -2.9381 -0.4155  0.0088
  177DOPC   C3421683   5.735   5.758  13.909  0.0501 -0.8153 -0.0518
  177DOPC   H4X21684   5.644   5.723  13.857  2.7846 -0.2232 -6.0306
  177DOPC   H4Y21685   5.713   5.855  13.959  0.1653 -0.6971 -0.2294
  177DOPC   C3521686   5.792   5.665  14.016  0.3431  0.8220 -0.0533
  177DOPC   H5X21687   5.866   5.714  14.084  0.5662 -1.6538  1.6145
  177DOPC   H5Y21688   5.831   5.573  13.967  0.6583 -0.3110  2.2072
  177DOPC   C3621689   5.678   5.613  14.108  0.1652 -0.6822 -0.5036
  177DOPC   H6X21690   5.632   5.704  14.153 -1.8027 -1.1182 -1.5134
  177DOPC   H6Y21691   5.602   5.561  14.045 -0.3504 -1.1352  0.4671
  177DOPC   C3721692   5.743   5.505  14.200  0.9630  0.1970  0.3549
  177DOPC   H7X21693   5.750   5.405  14.151 -0.8661  0.0816  0.2655
  177DOPC   H7Y21694   5.845   5.544  14.221  0.8417  2.3553 -2.4232
  177DOPC   C3821695   5.665   5.495  14.333  0.1417 -0.3560 -0.2398
  177DOPC   H8X21696   5.650   5.592  14.384  2.8194  1.5878 -2.7471
  177DOPC   H8Y21697   5.728   5.433  14.400 -0.1671 -0.3105  0.0941
  177DOPC   C3921698   5.538   5.426  14.298 -0.2501 -0.4565 -0.2246
  177DOPC   H9X21699   5.508   5.451  14.195 -0.6811  2.3902  0.4918
  177DOPC  C31021700   5.463   5.341  14.367  0.3384 -0.8534 -0.2620
  177DOPC  H10X21701   5.370   5.305  14.321 -1.1778  2.1293  0.2313
  177DOPC  C31121702   5.503   5.296  14.500  0.6032  0.2025 -0.5098
  177DOPC  H11X21703   5.416   5.318  14.565  1.1054  2.1290 -0.4348
  177DOPC  H11Y21704   5.590   5.350  14.544 -1.1021  3.0771 -0.4122
  177DOPC  C31221705   5.551   5.145  14.490  0.2993  0.2669  0.1048
  177DOPC  H12X21706   5.641   5.157  14.427  0.3003  0.4449  0.1389
  177DOPC  H12Y21707   5.469   5.090  14.438  1.0221 -1.1841  0.4823
  177DOPC  C31321708   5.587   5.076  14.618 -0.5884 -0.1564 -0.5401
  177DOPC  H13X21709   5.625   4.974  14.599  1.3039  0.6902 -1.7224
  177DOPC  H13Y21710   5.680   5.124  14.656  0.2885 -0.7123 -1.8814
  177DOPC  C31421711   5.482   5.074  14.723  1.0641 -0.5515  0.2861
  177DOPC  H14X21712   5.464   5.179  14.756 -0.4089 -1.3558  2.1889
  177DOPC  H14Y21713   5.391   5.039  14.671 -0.4680  0.4448  2.1889
  177DOPC  C31521714   5.510   4.984  14.840 -0.3130  0.1070 -0.6175
  177DOPC  H15X21715   5.510   4.882  14.795 -0.8076  1.2011 -3.2781
  177DOPC  H15Y21716   5.417   4.974  14.900 -1.2529 -0.8054 -2.1516
  177DOPC  C31621717   5.633   5.009  14.928 -0.7009 -0.3771  0.6182
  177DOPC  H16X21718   5.719   5.005  14.858  0.0951 -1.6922  1.6282
  177DOPC  H16Y21719   5.617   5.105  14.981  0.4894 -1.1984  2.5739
  177DOPC  C31721720   5.655   4.890  15.022  0.2057 -0.3465 -0.0814
  177DOPC  H17X21721   5.561   4.881  15.081 -0.4933  1.8296 -0.7868
  177DOPC  H17Y21722   5.669   4.796  14.964 -1.8613  0.4001 -1.9239
  177DOPC  C31821723   5.764   4.921  15.125 -0.1506  0.0936  0.1031
  177DOPC  H18X21724   5.721   4.981  15.208  1.5015  1.2215  0.1910
  177DOPC  H18Y21725   5.813   4.828  15.162 -1.1480  0.2721  2.0239
  177DOPC  H18Z21726   5.844   4.979  15.074 -1.1532  1.3805 -0.0614
  178DOPC     N21727   3.611   7.549  13.092  0.3003  0.7760  0.2793
  178DOPC   C1221728   3.574   7.614  13.225  0.3736  0.3901 -0.7336
  178DOPC  H12A21729   3.468   7.594  13.238  0.3263 -1.8115 -3.6046
  178DOPC  H12B21730   3.586   7.721  13.221 -3.1449  1.1120  2.0063
  178DOPC   C1321731   3.518   7.597  12.983 -0.1935 -0.5711 -0.3550
  178DOPC  H13A21732   3.418   7.568  13.014 -0.1886 -1.2209 -0.9325
  178DOPC  H13B21733   3.529   7.705  12.989 -2.1309 -0.3747  0.5035
  178DOPC  H13C21734   3.541   7.571  12.881 -0.3247 -0.6945 -0.3541
  178DOPC   C1421735   3.583   7.399  13.111  0.0255 -0.1075  0.6981
  178DOPC  H14A21736   3.614   7.337  13.028 -1.4623  1.1907 -0.9386
  178DOPC  H14B21737   3.628   7.361  13.201  2.8206  0.6397 -0.2983
  178DOPC  H14C21738   3.477   7.378  13.106  0.2100 -0.8395 -1.2798
  178DOPC   C1521739   3.753   7.573  13.048  0.3794  0.1329 -0.4592
  178DOPC  H15A21740   3.824   7.539  13.122  0.6693  1.1754 -0.2365
  178DOPC  H15B21741   3.770   7.678  13.029  0.9146  0.1841  0.2431
  178DOPC  H15C21742   3.780   7.521  12.958 -1.7157  1.5792 -2.0116
  178DOPC   C1121743   3.663   7.574  13.358  0.5392  0.6824  0.8674
  178DOPC  H11A21744   3.767   7.564  13.320 -0.4254  0.4413 -1.9125
  178DOPC  H11B21745   3.657   7.648  13.441 -0.5248 -0.3649  1.7771
  178DOPC     P21746   3.468   7.434  13.460 -0.1180 -0.1777  0.3276
  178DOPC   O1321747   3.392   7.366  13.354  0.1005 -0.7025  0.0722
  178DOPC   O1421748   3.405   7.564  13.484  0.0693  0.0955 -0.1479
  178DOPC   O1221749   3.611   7.449  13.409 -0.4068  0.2682 -0.0990
  178DOPC   O1121750   3.471   7.341  13.587 -0.4404 -0.6972  0.0847
  178DOPC    C121751   3.566   7.240  13.612  0.3948 -0.3153 -0.1856
  178DOPC    HA21752   3.644   7.229  13.533  3.0672  2.6510  1.7889
  178DOPC    HB21753   3.502   7.149  13.621 -0.4768  0.3502  0.4988
  178DOPC    C221754   3.640   7.252  13.745  0.2962 -0.7858 -0.3809
  178DOPC    HS21755   3.560   7.257  13.823 -0.3893 -0.9758 -1.0607
  178DOPC   O2121756   3.699   7.384  13.777 -0.1968 -0.0226  0.4872
  178DOPC   C2121757   3.803   7.426  13.716  0.7470 -0.9743  0.6633
  178DOPC   O2221758   3.866   7.359  13.635 -0.7752 -0.5832 -0.1772
  178DOPC   C2221759   3.835   7.566  13.755 -0.4884 -0.0868 -0.1576
  178DOPC   H2R21760   3.761   7.614  13.822 -0.5433  1.5059 -1.2942
  178DOPC   H2S21761   3.833   7.624  13.660 -2.9831  1.0831  0.5105
  178DOPC    C321762   3.728   7.140  13.791 -0.0056 -0.1784  0.3661
  178DOPC    HX21763   3.732   7.163  13.899  1.2198  3.2008 -0.2821
  178DOPC    HY21764   3.824   7.140  13.736 -1.0189 -1.3162 -1.5356
  178DOPC   O3121765   3.653   7.019  13.770 -0.3479  0.3613  0.0219
  178DOPC   C3121766   3.696   6.913  13.839 -0.5254 -0.6323 -0.1478
  178DOPC   O3221767   3.797   6.905  13.903  0.2786  0.4474 -0.5112
  178DOPC   C3221768   3.595   6.811  13.808  1.0338 -0.1584  1.4051
  178DOPC   H2X21769   3.500   6.867  13.791  1.3652  0.3967  1.3529
  178DOPC   H2Y21770   3.621   6.764  13.710  0.5509 -1.5399  1.9147
  178DOPC   C2321771   3.977   7.560  13.817 -0.7904 -0.7275  0.2252
  178DOPC   H3R21772   4.051   7.496  13.763 -0.3773  1.3619 -1.8293
  178DOPC   H3S21773   3.973   7.516  13.919 -0.1319 -1.2894  0.0241
  178DOPC   C2421774   4.038   7.699  13.819 -0.3160  0.3411 -0.2329
  178DOPC   H4R21775   3.959   7.760  13.868 -0.3487 -1.7897  2.6535
  178DOPC   H4S21776   4.048   7.730  13.713 -1.6963 -0.6674 -0.6930
  178DOPC   C2521777   4.172   7.709  13.899 -0.1828 -0.0402  0.1278
  178DOPC   H5R21778   4.252   7.636  13.872  0.9566  0.1147  2.8136
  178DOPC   H5S21779   4.137   7.679  14.000 -0.6293 -0.9570 -0.2900
  178DOPC   C2621780   4.231   7.855  13.909  0.3460  0.3291  0.0796
  178DOPC   H6R21781   4.142   7.919  13.890 -0.2375 -0.8764 -1.5334
  178DOPC   H6S21782   4.298   7.885  13.826  0.3587  0.4154  0.1217
  178DOPC   C2721783   4.295   7.896  14.039 -0.5819  0.3225 -0.3898
  178DOPC   H7R21784   4.381   7.830  14.066 -1.5063 -0.4503  0.7409
  178DOPC   H7S21785   4.226   7.886  14.125 -0.8469  0.6951 -0.5574
  178DOPC   C2821786   4.346   8.036  14.029 -0.1578  0.5683  0.3009
  178DOPC   H8R21787   4.426   8.046  13.952 -0.9980 -1.2496 -0.8813
  178DOPC   H8S21788   4.395   8.060  14.125 -0.8973  0.4344  0.7235
  178DOPC   C2921789   4.233   8.129  13.998 -0.4144 -0.3825  0.0687
  178DOPC   H9R21790   4.130   8.109  14.033 -0.5541  0.6222  0.2621
  178DOPC  C21021791   4.252   8.248  13.940 -0.0668 -0.7402  0.0294
  178DOPC  H10R21792   4.157   8.302  13.928  0.0634 -0.0095  1.9722
  178DOPC  C21121793   4.377   8.311  13.885 -0.2291  0.0853  0.7141
  178DOPC  H11R21794   4.364   8.331  13.776  0.9571  0.1942  0.5716
  178DOPC  H11S21795   4.461   8.239  13.893  0.2661  0.6813  1.0014
  178DOPC  C21221796   4.410   8.450  13.939  0.2711  0.3334  0.5523
  178DOPC  H12R21797   4.335   8.530  13.921 -0.9502 -0.5697  1.4697
  178DOPC  H12S21798   4.506   8.481  13.892  1.3946 -1.5423  1.5184
  178DOPC  C21321799   4.451   8.439  14.087  0.3049 -0.0856 -0.5229
  178DOPC  H13R21800   4.520   8.352  14.096 -0.4071 -0.8766 -2.2073
  178DOPC  H13S21801   4.355   8.421  14.139  0.8848  0.4128  0.7511
  178DOPC  C21421802   4.516   8.566  14.145 -0.8925 -0.5215 -0.3325
  178DOPC  H14R21803   4.441   8.648  14.145 -1.0226 -0.6420 -0.3509
  178DOPC  H14S21804   4.602   8.585  14.077 -0.1806 -0.5551  0.5403
  178DOPC  C21521805   4.556   8.553  14.291  0.1372  0.0225  0.6593
  178DOPC  H15R21806   4.627   8.469  14.308 -1.8098 -1.4827  1.6548
  178DOPC  H15S21807   4.463   8.519  14.341 -0.1442  0.8766  0.7267
  178DOPC  C21621808   4.612   8.679  14.361  0.1842  0.8511 -0.6103
  178DOPC  H16R21809   4.551   8.764  14.325  0.1012  1.1752  0.2761
  178DOPC  H16S21810   4.713   8.697  14.318  1.1433  2.1234  1.9540
  178DOPC  C21721811   4.615   8.658  14.514 -1.1219  0.4630  0.0343
  178DOPC  H17R21812   4.513   8.638  14.552 -0.5275  1.0457  2.0377
  178DOPC  H17S21813   4.654   8.752  14.558  4.3387 -1.7361  0.6488
  178DOPC  C21821814   4.706   8.540  14.555 -0.4758  0.4023 -0.1555
  178DOPC  H18R21815   4.683   8.448  14.497  0.0454  0.7904 -0.9927
  178DOPC  H18S21816   4.714   8.523  14.665  0.6604  2.6127  0.1693
  178DOPC  H18T21817   4.804   8.586  14.530 -0.5705  0.8196  0.2332
  178DOPC   C3321818   3.565   6.708  13.920 -0.5849 -0.3734 -0.2016
  178DOPC   H3X21819   3.652   6.667  13.975 -1.3751  0.1216  1.4673
  178DOPC   H3Y21820   3.515   6.627  13.863  1.8547 -2.6575  0.7082
  178DOPC   C3421821   3.468   6.753  14.021  0.8789 -0.2409 -0.5338
  178DOPC   H4X21822   3.376   6.781  13.965  1.1794  1.6565 -0.1548
  178DOPC   H4Y21823   3.503   6.847  14.068  1.2725 -0.6668  0.0433
  178DOPC   C3521824   3.437   6.650  14.132  0.3638 -0.3374  0.7557
  178DOPC   H5X21825   3.518   6.631  14.206 -0.8180 -1.5085  1.7937
  178DOPC   H5Y21826   3.419   6.546  14.095  0.3751 -0.2557  0.5137
  178DOPC   C3621827   3.317   6.686  14.220 -0.0922  0.2841 -0.0692
  178DOPC   H6X21828   3.352   6.768  14.285 -0.8418  1.5836 -1.2308
  178DOPC   H6Y21829   3.228   6.720  14.162 -0.7942 -3.1408 -1.2907
  178DOPC   C3721830   3.284   6.563  14.313 -0.3571 -0.0214  0.7566
  178DOPC   H7X21831   3.278   6.468  14.256  0.1818 -1.0640  2.3734
  178DOPC   H7Y21832   3.376   6.545  14.373  0.9225 -0.2943 -1.1780
  178DOPC   C3821833   3.169   6.573  14.403  0.1295 -0.0179 -0.9172
  178DOPC   H8X21834   3.180   6.648  14.484 -3.1532 -0.4055  0.0224
  178DOPC   H8Y21835   3.160   6.471  14.446  0.3519  0.3915  0.1196
  178DOPC   C3921836   3.038   6.626  14.339  0.3011 -0.0091  0.0352
  178DOPC   H9X21837   3.034   6.735  14.330  1.4348  0.1239  1.0381
  178DOPC  C31021838   2.942   6.549  14.286  0.0715  0.9820  0.2212
  178DOPC  H10X21839   2.851   6.588  14.237  1.7056  1.5780 -2.5062
  178DOPC  C31121840   2.933   6.403  14.297  0.7440 -0.4209  0.2822
  178DOPC  H11X21841   3.015   6.359  14.358  0.2213 -2.3028 -0.3021
  178DOPC  H11Y21842   2.931   6.370  14.191  0.4691  1.1953 -0.2522
  178DOPC  C31221843   2.808   6.355  14.372 -0.3370  0.1495 -0.0750
  178DOPC  H12X21844   2.784   6.403  14.470  0.3746 -2.0145  1.2365
  178DOPC  H12Y21845   2.823   6.249  14.403 -0.0513  0.5745  1.3326
  178DOPC  C31321846   2.679   6.357  14.294 -0.0853 -0.6065  0.5266
  178DOPC  H13X21847   2.597   6.344  14.369 -1.6047 -1.4468 -1.1817
  178DOPC  H13Y21848   2.654   6.452  14.243 -1.1738 -0.2404  1.6740
  178DOPC  C31421849   2.666   6.236  14.191  0.3860 -0.1960  0.0412
  178DOPC  H14X21850   2.747   6.267  14.122  0.7738  4.4119  2.2216
  178DOPC  H14Y21851   2.695   6.147  14.252  0.3433 -1.2755 -1.4661
  178DOPC  C31521852   2.531   6.230  14.115 -0.3131  0.0607 -0.1673
  178DOPC  H15X21853   2.514   6.321  14.052  1.4008 -0.8981 -2.1433
  178DOPC  H15Y21854   2.463   6.226  14.203  1.0077  1.1223  0.9429
  178DOPC  C31621855   2.515   6.103  14.025 -0.1018  0.5258 -0.1901
  178DOPC  H16X21856   2.585   6.112  13.939  2.6518 -2.0975  1.5588
  178DOPC  H16Y21857   2.557   6.012  14.072  2.2460  0.5316 -2.0286
  178DOPC  C31721858   2.375   6.068  13.975  0.1634 -0.1553  0.0106
  178DOPC  H17X21859   2.341   6.159  13.922  2.0196  0.8967  0.5363
  178DOPC  H17Y21860   2.387   5.979  13.909  0.6883  0.3336 -0.5528
  178DOPC  C31821861   2.280   6.024  14.084  0.1118  0.0862  0.1985
  178DOPC  H18X21862   2.295   5.921  14.123 -0.7302  0.8594  2.7061
  178DOPC  H18Y21863   2.283   6.084  14.177  3.2288 -0.2282  0.4233
  178DOPC  H18Z21864   2.178   6.024  14.040 -0.1072  2.0128  0.6150
  179DOPC     N21865   8.330   5.214  13.153 -0.1280  0.2023 -0.1541
  179DOPC   C1221866   8.314   5.272  13.293 -0.0193 -0.5995  0.1210
  179DOPC  H12A21867   8.322   5.379  13.290  1.8478 -0.6379  1.5875
  179DOPC  H12B21868   8.397   5.231  13.349 -0.8173 -1.0868  0.9870
  179DOPC   C1321869   8.250   5.297  13.060  0.5068  0.3589 -0.0638
  179DOPC  H13A21870   8.303   5.387  13.033  2.5299 -1.1546 -1.4133
  179DOPC  H13B21871   8.224   5.237  12.973 -3.0961 -0.4980  1.4064
  179DOPC  H13C21872   8.155   5.329  13.102  1.8347  1.5751  2.2076
  179DOPC   C1421873   8.292   5.064  13.143  0.5004 -0.4999  0.0048
  179DOPC  H14A21874   8.187   5.062  13.169  0.2667  3.1406 -0.1700
  179DOPC  H14B21875   8.298   5.025  13.043  1.2227  0.7136 -0.4492
  179DOPC  H14C21876   8.360   5.012  13.209  1.5829  1.8055  0.8138
  179DOPC   C1521877   8.471   5.215  13.108 -0.3786  0.0390 -0.1199
  179DOPC  H15A21878   8.541   5.173  13.179 -1.3154 -1.3594  0.0138
  179DOPC  H15B21879   8.498   5.317  13.085  0.6120 -0.2882 -0.4594
  179DOPC  H15C21880   8.491   5.159  13.019  0.8271 -0.8907  0.7098
  179DOPC   C1121881   8.186   5.245  13.377  0.0078 -0.2877 -0.3538
  179DOPC  H11A21882   8.172   5.135  13.381 -0.7000 -0.1861  0.1907
  179DOPC  H11B21883   8.204   5.289  13.477 -1.8942 -2.4144  1.0302
  179DOPC     P21884   8.065   5.466  13.323 -0.0180 -0.5350 -0.7347
  179DOPC   O1321885   7.993   5.517  13.201 -0.7722 -0.0177 -0.3653
  179DOPC   O1421886   8.196   5.527  13.345  0.7260 -0.2080  0.5391
  179DOPC   O1221887   8.071   5.310  13.319  0.2265  0.2719 -0.1821
  179DOPC   O1121888   7.982   5.507  13.454  0.3205 -0.1792  0.2354
  179DOPC    C121889   7.863   5.429  13.485 -0.6369 -0.0966 -0.2275
  179DOPC    HA21890   7.838   5.433  13.593 -2.1795 -1.4588 -0.4954
  179DOPC    HB21891   7.867   5.324  13.451 -1.7352  0.0221 -0.8133
  179DOPC    C221892   7.733   5.497  13.417 -0.1558 -0.7610 -0.0212
  179DOPC    HS21893   7.732   5.462  13.312 -1.3616 -1.4459  0.2006
  179DOPC   O2121894   7.749   5.638  13.417  0.9218 -0.2135  0.1300
  179DOPC   C2121895   7.663   5.703  13.337 -0.2453 -0.2317  0.4950
  179DOPC   O2221896   7.589   5.649  13.251  0.1051 -0.3156  0.0485
  179DOPC   C2221897   7.670   5.855  13.344  0.3330 -0.8538 -0.3655
  179DOPC   H2R21898   7.573   5.890  13.303 -2.0398 -4.7122  1.4031
  179DOPC   H2S21899   7.748   5.900  13.279  1.0640  1.1979  1.7754
  179DOPC    C321900   7.594   5.446  13.478  0.2996 -1.0219  0.0454
  179DOPC    HX21901   7.585   5.336  13.461  0.9807 -1.4762  2.2313
  179DOPC    HY21902   7.509   5.486  13.419  1.0469 -0.0436 -0.3885
  179DOPC   O3121903   7.589   5.466  13.620  0.1609 -0.7005  0.2509
  179DOPC   C3121904   7.525   5.576  13.650 -0.6651  0.0215  0.0169
  179DOPC   O3221905   7.463   5.646  13.567 -0.8639 -0.4445 -0.5947
  179DOPC   C3221906   7.556   5.618  13.793  0.4308 -0.3085 -0.8357
  179DOPC   H2X21907   7.518   5.540  13.862 -2.0430  0.3573 -1.3263
  179DOPC   H2Y21908   7.666   5.635  13.797  0.5784 -0.7519 -2.4832
  179DOPC   C2321909   7.680   5.902  13.490  0.3657 -0.4467 -0.2812
  179DOPC   H3R21910   7.776   5.874  13.538 -0.5395  0.7743  2.4649
  179DOPC   H3S21911   7.607   5.874  13.569 -1.0881  0.5236 -1.2327
  179DOPC   C2421912   7.668   6.053  13.506 -0.3024 -0.5210 -0.4799
  179DOPC   H4R21913   7.564   6.078  13.478 -0.3374 -1.5283 -1.3297
  179DOPC   H4S21914   7.737   6.110  13.440  1.5673  0.7741  2.3858
  179DOPC   C2521915   7.702   6.105  13.650 -0.6856  0.7109 -0.6950
  179DOPC   H5R21916   7.809   6.080  13.668 -1.1570 -1.7073 -0.8981
  179DOPC   H5S21917   7.652   6.034  13.720  0.4031 -0.8949 -1.4823
  179DOPC   C2621918   7.677   6.253  13.687 -0.6925 -0.2845  0.0071
  179DOPC   H6R21919   7.570   6.282  13.692 -1.2085 -1.9614 -0.5495
  179DOPC   H6S21920   7.723   6.315  13.608  0.2051 -2.9773 -1.7153
  179DOPC   C2721921   7.754   6.297  13.816  0.2865 -0.6599 -0.4005
  179DOPC   H7R21922   7.858   6.263  13.799  0.3468 -0.8068  0.2281
  179DOPC   H7S21923   7.713   6.246  13.907 -1.0476  2.7737  1.1011
  179DOPC   C2821924   7.760   6.447  13.844  0.1783  0.6779 -0.6673
  179DOPC   H8R21925   7.796   6.460  13.949 -1.7554  1.9008 -0.1077
  179DOPC   H8S21926   7.660   6.494  13.850 -0.3608 -0.6004  0.9734
  179DOPC   C2921927   7.855   6.517  13.753  0.2948  0.4848  0.2528
  179DOPC   H9R21928   7.955   6.470  13.750 -0.4415 -1.1370 -0.0729
  179DOPC  C21021929   7.828   6.629  13.691 -0.3512 -0.4697  0.5310
  179DOPC  H10R21930   7.903   6.664  13.618 -1.1465 -0.5805 -0.3566
  179DOPC  C21121931   7.704   6.717  13.691 -0.3127  1.2591 -0.2069
  179DOPC  H11R21932   7.615   6.662  13.727 -0.0973 -0.1079 -1.6420
  179DOPC  H11S21933   7.672   6.748  13.589  2.6719  1.4289 -1.2047
  179DOPC  C21221934   7.722   6.847  13.773 -0.6073 -0.2033  0.1928
  179DOPC  H12R21935   7.812   6.896  13.730 -0.4203 -0.6010  0.1181
  179DOPC  H12S21936   7.754   6.829  13.879 -0.6093 -0.8082  0.0978
  179DOPC  C21321937   7.598   6.932  13.765 -0.2463  0.1759 -0.4257
  179DOPC  H13R21938   7.568   6.955  13.660  1.4004  0.9834 -0.7379
  179DOPC  H13S21939   7.614   7.033  13.809  1.0940 -1.6955  3.8883
  179DOPC  C21421940   7.473   6.868  13.828 -0.2247  0.4574 -0.6910
  179DOPC  H14R21941   7.502   6.818  13.923 -2.5751 -2.1098 -1.1856
  179DOPC  H14S21942   7.446   6.780  13.765  0.3735 -1.9324  2.1788
  179DOPC  C21521943   7.348   6.950  13.845  0.3687  0.4441 -0.0200
  179DOPC  H15R21944   7.264   6.880  13.866 -0.0991  1.0765  0.2444
  179DOPC  H15S21945   7.321   6.996  13.748 -0.3305 -0.5497 -0.3133
  179DOPC  C21621946   7.349   7.050  13.964  0.1027 -0.2314 -0.9125
  179DOPC  H16R21947   7.434   7.122  13.966  3.1816 -3.5591  0.8064
  179DOPC  H16S21948   7.376   6.996  14.058 -2.1824 -2.3487 -1.3873
  179DOPC  C21721949   7.212   7.123  13.981  0.2072  0.0666 -0.1937
  179DOPC  H17R21950   7.195   7.187  14.070 -2.0528  1.2847 -1.4061
  179DOPC  H17S21951   7.132   7.045  13.982  1.7945 -1.6473  1.2704
  179DOPC  C21821952   7.181   7.221  13.866 -0.3141  0.4205  0.2427
  179DOPC  H18R21953   7.254   7.303  13.880  1.1758 -1.0363  1.2443
  179DOPC  H18S21954   7.076   7.255  13.880 -0.4368  0.1568 -0.0171
  179DOPC  H18T21955   7.177   7.176  13.764 -2.5564  3.8189 -1.3885
  179DOPC   C3321956   7.473   5.742  13.835 -0.0880 -0.6304 -0.0872
  179DOPC   H3X21957   7.368   5.707  13.829  0.3292 -2.0098  0.2932
  179DOPC   H3Y21958   7.508   5.822  13.767 -2.7425  0.2572 -0.5026
  179DOPC   C3421959   7.492   5.783  13.983 -0.2692 -0.4176  0.2659
  179DOPC   H4X21960   7.595   5.822  14.001  0.3149 -1.2921 -1.0493
  179DOPC   H4Y21961   7.498   5.694  14.048 -0.9871  1.1480  2.6290
  179DOPC   C3521962   7.382   5.868  14.044 -0.0615  0.0472  0.0637
  179DOPC   H5X21963   7.292   5.819  14.001  0.6909 -0.3075 -1.1343
  179DOPC   H5Y21964   7.385   5.971  14.002  2.5466  0.4163  0.9771
  179DOPC   C3621965   7.375   5.867  14.195  0.4991 -0.5614 -0.0375
  179DOPC   H6X21966   7.370   5.761  14.228  0.1651 -1.0622 -1.6255
  179DOPC   H6Y21967   7.476   5.897  14.231 -0.7452  3.3768  0.6159
  179DOPC   C3721968   7.250   5.943  14.241 -0.1569  0.1160  0.2836
  179DOPC   H7X21969   7.257   6.048  14.205  0.4516  0.2079  0.6532
  179DOPC   H7Y21970   7.158   5.891  14.206 -1.1910  0.9597  1.6389
  179DOPC   C3821971   7.255   5.947  14.394  0.1732 -0.0908 -0.2639
  179DOPC   H8X21972   7.358   5.976  14.425  0.0547  0.8213 -0.6689
  179DOPC   H8Y21973   7.233   5.847  14.435 -0.4990  0.0841 -0.1810
  179DOPC   C3921974   7.149   6.044  14.448 -0.3428 -0.2001  0.4100
  179DOPC   H9X21975   7.191   6.146  14.460  1.1409 -0.4826 -1.6622
  179DOPC  C31021976   7.024   6.017  14.472  0.0122 -0.6571  0.1922
  179DOPC  H10X21977   6.960   6.092  14.519 -0.7158 -0.4342 -1.0976
  179DOPC  C31121978   6.965   5.881  14.444  0.1779  0.2927  0.3671
  179DOPC  H11X21979   7.007   5.803  14.510 -0.0679 -1.1053 -1.0781
  179DOPC  H11Y21980   6.979   5.857  14.336  2.0163 -1.0096  0.8687
  179DOPC  C31221981   6.808   5.886  14.465  0.4333 -0.6736  0.0675
  179DOPC  H12X21982   6.767   5.794  14.419 -0.6953 -0.7639  1.1895
  179DOPC  H12Y21983   6.780   5.970  14.398  0.4759 -0.9723 -0.3282
  179DOPC  C31321984   6.752   5.922  14.604  0.9344  0.2864 -0.3702
  179DOPC  H13X21985   6.762   5.838  14.676 -0.0415  0.0821 -0.4612
  179DOPC  H13Y21986   6.809   6.005  14.651  1.4710  0.2364 -0.9157
  179DOPC  C31421987   6.602   5.958  14.597 -0.2208  0.1324 -0.0659
  179DOPC  H14X21988   6.552   5.892  14.523  1.3385 -0.6827 -0.4384
  179DOPC  H14Y21989   6.569   5.940  14.702  1.2601 -2.4334  0.0405
  179DOPC  C31521990   6.578   6.096  14.543  0.1659 -0.0489  0.3791
  179DOPC  H15X21991   6.634   6.105  14.447 -1.0206 -4.2825 -0.9478
  179DOPC  H15Y21992   6.616   6.174  14.612 -0.5014  0.4376  0.2052
  179DOPC  C31621993   6.435   6.129  14.530  0.5024 -0.4081  0.5465
  179DOPC  H16X21994   6.369   6.076  14.459 -1.6659  2.3838  0.2533
  179DOPC  H16Y21995   6.396   6.101  14.631  1.5700 -0.6582  0.9039
  179DOPC  C31721996   6.417   6.279  14.492 -1.2098  0.1217 -0.2876
  179DOPC  H17X21997   6.494   6.332  14.553  1.9720 -2.3496 -1.8148
  179DOPC  H17Y21998   6.443   6.300  14.386 -0.1812  0.7490  0.0737
  179DOPC  C31821999   6.280   6.336  14.522 -0.1067 -0.1783 -0.0469
  179DOPC  H18X22000   6.275   6.447  14.520 -0.5886 -0.1908  0.2557
  179DOPC  H18Y22001   6.210   6.311  14.439  0.7334  2.6657 -1.7612
  179DOPC  H18Z22002   6.237   6.304  14.619 -2.9414  0.0308 -1.1432
  180DOPC     N22003   8.244   3.989  12.990  0.0976  1.0222  0.5197
  180DOPC   C1222004   8.323   4.072  13.084  0.4114 -0.1568 -0.5088
  180DOPC  H12A22005   8.265   4.151  13.130  1.5898 -0.3154  1.3310
  180DOPC  H12B22006   8.398   4.124  13.027  2.6788 -1.0692  1.4925
  180DOPC   C1322007   8.158   3.889  13.066  0.6242  0.4449  0.0107
  180DOPC  H13A22008   8.217   3.846  13.146 -0.4641 -0.1905  0.4900
  180DOPC  H13B22009   8.074   3.939  13.112  1.0438  0.1463  1.1321
  180DOPC  H13C22010   8.113   3.805  13.017 -1.7291  1.1023  0.9073
  180DOPC   C1422011   8.329   3.908  12.897 -0.7761 -0.6356 -0.3613
  180DOPC  H14A22012   8.382   3.967  12.824 -0.9118 -0.8446 -0.6300
  180DOPC  H14B22013   8.399   3.844  12.951  0.8311  0.6946 -0.7892
  180DOPC  H14C22014   8.281   3.838  12.830  1.3483 -1.5263 -1.0598
  180DOPC   C1522015   8.155   4.080  12.908 -0.0247 -0.1641  0.5478
  180DOPC  H15A22016   8.080   4.129  12.969 -0.3987  0.0459 -0.0804
  180DOPC  H15B22017   8.095   4.027  12.835  0.8375 -2.1075  1.1756
  180DOPC  H15C22018   8.209   4.161  12.861 -0.6566 -0.8023 -1.3527
  180DOPC   C1122019   8.394   3.999  13.204 -0.2465 -0.2310  0.1326
  180DOPC  H11A22020   8.459   4.078  13.247 -1.2966  0.1094  1.1223
  180DOPC  H11B22021   8.328   3.963  13.284  1.6139 -0.4056  1.6598
  180DOPC     P22022   8.476   3.756  13.193 -0.0626  0.0014  0.2480
  180DOPC   O1322023   8.578   3.719  13.289 -0.2872  0.6934 -0.5011
  180DOPC   O1422024   8.475   3.675  13.070 -0.4734  0.3938  0.0546
  180DOPC   O1222025   8.488   3.903  13.149 -0.5060 -0.0626  0.1488
  180DOPC   O1122026   8.334   3.743  13.258 -0.2719  0.7897  0.2802
  180DOPC    C122027   8.295   3.620  13.324 -0.0169  0.4088  0.0240
  180DOPC    HA22028   8.360   3.589  13.408 -0.4052 -0.2910  0.0639
  180DOPC    HB22029   8.285   3.541  13.247  0.3413  1.2115 -0.8844
  180DOPC    C222030   8.151   3.627  13.379  0.1475  0.4322  0.0637
  180DOPC    HS22031   8.082   3.575  13.309  0.3070 -2.1477  1.6526
  180DOPC   O2122032   8.117   3.760  13.409  0.2285  0.1964 -0.1822
  180DOPC   C2122033   7.998   3.809  13.369 -0.4789 -0.0054  0.8213
  180DOPC   O2222034   7.916   3.751  13.304 -0.1911 -0.4077  0.3484
  180DOPC   C2222035   7.976   3.953  13.411 -0.1912  0.6534 -0.4910
  180DOPC   H2R22036   8.036   4.015  13.342  0.9568  0.1712  0.0489
  180DOPC   H2S22037   8.021   3.960  13.512  0.3457 -1.2967 -0.5387
  180DOPC    C322038   8.137   3.536  13.505  0.1137  0.9591 -0.3700
  180DOPC    HX22039   8.204   3.571  13.586  1.3729 -2.3919  0.2113
  180DOPC    HY22040   8.177   3.435  13.480 -0.8596  0.8149 -1.4731
  180DOPC   O3122041   8.006   3.529  13.565 -0.5996 -0.4842 -0.4204
  180DOPC   C3122042   7.916   3.468  13.491 -0.5571 -0.3706  0.4374
  180DOPC   O3222043   7.935   3.407  13.388 -0.3192 -0.1700  0.1641
  180DOPC   C3222044   7.782   3.500  13.570 -0.3456  0.0978  0.2548
  180DOPC   H2X22045   7.784   3.445  13.666  2.0829  1.1908  0.9125
  180DOPC   H2Y22046   7.791   3.609  13.591 -2.1400 -0.0173  1.8943
  180DOPC   C2322047   7.826   3.998  13.413  0.7121 -0.1550 -1.3243
  180DOPC   H3R22048   7.769   3.932  13.480  1.4405  0.9456  0.4534
  180DOPC   H3S22049   7.785   3.981  13.311 -0.3632  1.1177 -1.1371
  180DOPC   C2422050   7.813   4.150  13.444 -0.1421  0.3879 -0.2617
  180DOPC   H4R22051   7.877   4.196  13.366 -0.5292 -1.6008 -1.8205
  180DOPC   H4S22052   7.862   4.170  13.542  0.0373  1.5000 -0.5631
  180DOPC   C2522053   7.676   4.212  13.440  0.4312  0.7673 -0.0819
  180DOPC   H5R22054   7.597   4.157  13.495  2.4970 -1.5347  0.7910
  180DOPC   H5S22055   7.647   4.201  13.333  1.2030  0.2806 -0.2484
  180DOPC   C2622056   7.675   4.361  13.476  0.0742 -0.0439  0.0669
  180DOPC   H6R22057   7.766   4.406  13.431 -0.7762  2.5509  0.7713
  180DOPC   H6S22058   7.682   4.372  13.586  0.1352  1.6289 -0.0819
  180DOPC   C2722059   7.551   4.422  13.422 -0.4094 -0.0965  0.0444
  180DOPC   H7R22060   7.542   4.375  13.321 -1.0020 -2.5543  1.1594
  180DOPC   H7S22061   7.586   4.527  13.417  1.2263 -0.4079  3.0040
  180DOPC   C2822062   7.419   4.408  13.505 -0.1356  0.1401 -0.1764
  180DOPC   H8R22063   7.452   4.433  13.608  0.6417 -0.1332 -0.3567
  180DOPC   H8S22064   7.378   4.305  13.513 -1.9072  0.9413  2.2356
  180DOPC   C2922065   7.309   4.490  13.444  0.1297 -0.6930 -0.4988
  180DOPC   H9R22066   7.278   4.440  13.351 -2.0137  0.1026 -0.2667
  180DOPC  C21022067   7.257   4.599  13.492  0.1176  0.6375  0.4556
  180DOPC  H10R22068   7.161   4.630  13.449  0.1966 -0.9766 -0.9990
  180DOPC  C21122069   7.322   4.676  13.608 -0.0755 -0.1478 -0.0213
  180DOPC  H11R22070   7.393   4.749  13.564  1.5161 -1.0749  0.9403
  180DOPC  H11S22071   7.388   4.612  13.669 -0.8942 -0.0834  0.9572
  180DOPC  C21222072   7.231   4.750  13.701 -0.1737  0.0735  0.1008
  180DOPC  H12R22073   7.287   4.793  13.786  2.1384  0.8477 -1.6995
  180DOPC  H12S22074   7.168   4.667  13.740 -1.4223 -0.8721 -3.4921
  180DOPC  C21322075   7.131   4.857  13.638  0.1630  0.1633  0.3650
  180DOPC  H13R22076   7.107   4.830  13.533  2.6510  1.2330 -0.5655
  180DOPC  H13S22077   7.189   4.951  13.630  1.8167 -0.7692  0.8851
  180DOPC  C21422078   6.990   4.874  13.703  0.7117  0.0656 -0.4581
  180DOPC  H14R22079   6.944   4.773  13.708 -1.5675  1.1163  3.0322
  180DOPC  H14S22080   6.929   4.943  13.641  0.9814  1.0448  0.3439
  180DOPC  C21522081   6.997   4.926  13.847 -0.1609  0.1173 -0.0797
  180DOPC  H15R22082   7.062   5.016  13.850  1.1223 -0.7371  3.6972
  180DOPC  H15S22083   7.050   4.855  13.914  0.3849 -1.1222 -1.7559
  180DOPC  C21622084   6.856   4.955  13.900  0.0730  0.2119 -0.5740
  180DOPC  H16R22085   6.805   4.857  13.891  0.1431 -0.0069  1.1688
  180DOPC  H16S22086   6.805   5.028  13.834  1.0153  0.0545 -1.5121
  180DOPC  C21722087   6.849   4.981  14.055 -0.0435  0.1329  0.1961
  180DOPC  H17R22088   6.883   5.087  14.068  1.3009  0.1771 -2.7489
  180DOPC  H17S22089   6.929   4.922  14.103  1.1631  1.7681  0.3113
  180DOPC  C21822090   6.707   4.967  14.118  0.6565 -1.1042 -0.2350
  180DOPC  H18R22091   6.672   4.862  14.102 -1.5674 -0.4342 -0.1142
  180DOPC  H18S22092   6.645   5.038  14.060  1.7536 -0.1009 -0.2282
  180DOPC  H18T22093   6.703   5.002  14.224  2.1737  2.8468 -1.3069
  180DOPC   C3322094   7.656   3.458  13.497 -0.1639 -1.1174  0.4145
  180DOPC   H3X22095   7.648   3.348  13.503  0.5907 -1.1516  0.8717
  180DOPC   H3Y22096   7.651   3.492  13.391 -0.6292 -1.0985  0.4401
  180DOPC   C3422097   7.529   3.515  13.564 -0.0240 -0.2923 -0.0825
  180DOPC   H4X22098   7.533   3.480  13.669 -1.9121 -1.2761 -0.3034
  180DOPC   H4Y22099   7.435   3.476  13.520 -0.6230 -1.3663  2.0345
  180DOPC   C3522100   7.529   3.672  13.563 -0.0210 -0.0420  0.0639
  180DOPC   H5X22101   7.537   3.713  13.461  0.1321 -1.0617 -0.3528
  180DOPC   H5Y22102   7.618   3.701  13.623 -0.0563 -0.1428  0.1675
  180DOPC   C3622103   7.408   3.734  13.628  0.2755  0.8487 -0.1296
  180DOPC   H6X22104   7.330   3.695  13.558 -0.3829  0.0394  1.0145
  180DOPC   H6Y22105   7.387   3.687  13.727  2.3374 -2.6694 -1.1450
  180DOPC   C3722106   7.389   3.888  13.626  0.0833  0.2246  0.5692
  180DOPC   H7X22107   7.487   3.926  13.664  1.1636 -1.8577  0.0047
  180DOPC   H7Y22108   7.394   3.927  13.522  2.3196  0.1064  0.5866
  180DOPC   C3822109   7.260   3.934  13.697 -0.0108  0.4718 -0.0352
  180DOPC   H8X22110   7.268   3.923  13.808 -0.3290  5.1806  0.6459
  180DOPC   H8Y22111   7.179   3.872  13.653  1.4842 -1.0877 -0.7198
  180DOPC   C3922112   7.231   4.084  13.671  0.1611 -0.8275 -0.3560
  180DOPC   H9X22113   7.269   4.125  13.576  0.0397  2.5308  0.9054
  180DOPC  C31022114   7.202   4.181  13.759 -0.2273 -0.3386  0.7729
  180DOPC  H10X22115   7.191   4.285  13.726 -1.4471  0.2845  2.9821
  180DOPC  C31122116   7.174   4.153  13.905  0.7873 -0.1711  0.2916
  180DOPC  H11X22117   7.247   4.215  13.961 -0.2709  2.4502 -1.0625
  180DOPC  H11Y22118   7.181   4.047  13.937 -0.4491  0.3500  2.4443
  180DOPC  C31222119   7.038   4.216  13.947 -0.2205  0.3906 -0.3710
  180DOPC  H12X22120   6.960   4.154  13.897  0.7904 -2.8000  1.6764
  180DOPC  H12Y22121   7.037   4.319  13.906  1.7525  0.1544 -1.1173
  180DOPC  C31322122   7.028   4.233  14.093  0.4100  0.4657 -0.1485
  180DOPC  H13X22123   7.017   4.134  14.143 -1.5011 -0.6312 -2.5039
  180DOPC  H13Y22124   7.114   4.290  14.135 -0.1548  0.7719  0.6072
  180DOPC  C31422125   6.904   4.309  14.126  0.6889  0.1126  0.0587
  180DOPC  H14X22126   6.919   4.419  14.124  0.0727  0.2684  1.8501
  180DOPC  H14Y22127   6.820   4.284  14.059  0.9625  0.9433 -0.6180
  180DOPC  C31522128   6.855   4.266  14.265  0.8480 -0.1506 -0.0688
  180DOPC  H15X22129   6.929   4.311  14.335 -0.0240 -0.3126  0.9858
  180DOPC  H15Y22130   6.866   4.158  14.290  1.7351  0.1155  0.7852
  180DOPC  C31622131   6.720   4.326  14.297  0.1023  0.4041  0.6446
  180DOPC  H16X22132   6.720   4.437  14.295  2.0688  0.5565  3.4787
  180DOPC  H16Y22133   6.647   4.278  14.228  0.9115  0.4536 -0.2667
  180DOPC  C31722134   6.675   4.297  14.443 -0.1171  0.2004 -0.8301
  180DOPC  H17X22135   6.766   4.307  14.506  0.6579 -0.8341 -1.7769
  180DOPC  H17Y22136   6.619   4.386  14.482  1.8559  0.6416  1.2010
  180DOPC  C31822137   6.580   4.176  14.467  0.0300 -0.5061  0.0077
  180DOPC  H18X22138   6.473   4.199  14.449 -0.7372 -3.3410  0.5713
  180DOPC  H18Y22139   6.612   4.084  14.413  0.6642 -0.2375 -0.0874
  180DOPC  H18Z22140   6.601   4.145  14.572 -1.4492 -0.0378  0.4663
  181DOPC     N22141   1.494   4.637  13.569 -0.3907 -0.9854  0.1912
  181DOPC   C1222142   1.495   4.540  13.686  0.1051 -0.2030  0.7214
  181DOPC  H12A22143   1.392   4.518  13.711 -0.5551  2.2419  0.3981
  181DOPC  H12B22144   1.530   4.601  13.768 -0.6089  2.8144 -1.0633
  181DOPC   C1322145   1.419   4.761  13.607 -0.5974  0.8276  0.0929
  181DOPC  H13A22146   1.455   4.801  13.701  0.8561 -1.3280  0.5084
  181DOPC  H13B22147   1.427   4.841  13.534  0.3373  1.3036  0.6992
  181DOPC  H13C22148   1.316   4.740  13.631 -0.3123  1.9300  2.6915
  181DOPC   C1422149   1.434   4.567  13.451  0.1557 -0.0752  0.0783
  181DOPC  H14A22150   1.442   4.630  13.363  1.4251 -1.7372 -1.0547
  181DOPC  H14B22151   1.491   4.478  13.430 -0.7415 -0.5498 -0.3940
  181DOPC  H14C22152   1.333   4.532  13.466  0.3946 -0.4234  0.9183
  181DOPC   C1522153   1.638   4.676  13.534  0.0254  0.4645 -0.8382
  181DOPC  H15A22154   1.691   4.707  13.623  0.9366  0.7317 -1.4610
  181DOPC  H15B22155   1.637   4.762  13.467  0.6857  0.2471 -1.1384
  181DOPC  H15C22156   1.689   4.588  13.498 -1.3195 -0.0821 -1.4487
  181DOPC   C1122157   1.591   4.416  13.676  0.0563  0.5783  0.2474
  181DOPC  H11A22158   1.693   4.458  13.661 -0.1386  1.1297  0.4572
  181DOPC  H11B22159   1.589   4.353  13.767  0.3500 -1.0639 -0.8484
  181DOPC     P22160   1.635   4.214  13.523  0.2680  0.0335  0.1113
  181DOPC   O1322161   1.718   4.251  13.404 -0.1586  0.0313 -0.3651
  181DOPC   O1422162   1.540   4.104  13.504 -0.1894 -0.2961  0.4310
  181DOPC   O1222163   1.547   4.344  13.558 -0.4044 -0.1850 -0.2425
  181DOPC   O1122164   1.716   4.177  13.650  0.8437 -0.9195  0.3385
  181DOPC    C122165   1.758   4.041  13.676 -0.0416  0.1860  0.2544
  181DOPC    HA22166   1.858   4.056  13.723  1.1485  0.0290 -2.0326
  181DOPC    HB22167   1.766   3.985  13.580  0.6692  1.8276 -0.6791
  181DOPC    C222168   1.657   3.964  13.771  0.1805 -0.4059  0.9764
  181DOPC    HS22169   1.563   3.959  13.712  0.6130 -2.1178  0.3719
  181DOPC   O2122170   1.640   4.048  13.894 -0.3711 -0.2766 -0.1902
  181DOPC   C2122171   1.516   4.093  13.910  0.7402 -0.0028  0.4985
  181DOPC   O2222172   1.410   4.068  13.853 -0.0719 -0.3907 -0.2922
  181DOPC   C2222173   1.528   4.203  14.021  0.3402 -0.3447  0.4491
  181DOPC   H2R22174   1.608   4.271  13.985  0.2442 -1.7389 -2.7649
  181DOPC   H2S22175   1.550   4.159  14.121  0.2298  0.8617  1.0236
  181DOPC    C322176   1.674   3.818  13.795 -0.1426 -0.7135  0.0426
  181DOPC    HX22177   1.777   3.815  13.836 -0.0676 -0.6233 -0.1381
  181DOPC    HY22178   1.675   3.762  13.699 -0.8439 -0.3003 -0.2162
  181DOPC   O3122179   1.586   3.760  13.887 -0.3076  0.4177  0.6763
  181DOPC   C3122180   1.474   3.703  13.839 -0.9400 -0.2602 -0.4860
  181DOPC   O3222181   1.432   3.718  13.729 -0.2338  0.0009 -0.2067
  181DOPC   C3222182   1.403   3.625  13.953 -0.1061 -0.4076 -0.6616
  181DOPC   H2X22183   1.297   3.611  13.924 -0.4383 -0.5562  0.5916
  181DOPC   H2Y22184   1.444   3.523  13.969  2.9311  0.6191 -1.2706
  181DOPC   C2322185   1.401   4.285  14.029  0.6834  0.1904  0.0612
  181DOPC   H3R22186   1.384   4.355  13.944  0.6806  0.8514  0.5952
  181DOPC   H3S22187   1.422   4.362  14.106  0.5376 -0.7793  1.1048
  181DOPC   C2422188   1.267   4.219  14.068 -0.0892  0.9025  0.7670
  181DOPC   H4R22189   1.221   4.172  13.978  2.8148 -0.7599  0.0468
  181DOPC   H4S22190   1.199   4.305  14.088 -0.0562  1.0616  0.2217
  181DOPC   C2522191   1.272   4.116  14.185 -0.4324 -0.0980  0.0642
  181DOPC   H5R22192   1.358   4.045  14.184 -0.1772  0.1703  1.1591
  181DOPC   H5S22193   1.179   4.057  14.196  0.1784 -1.1573 -0.2929
  181DOPC   C2622194   1.275   4.184  14.324  0.3177  0.3672  0.1927
  181DOPC   H6R22195   1.175   4.218  14.357 -0.2389  0.3825 -1.4443
  181DOPC   H6S22196   1.340   4.274  14.326  0.1174  0.4967  1.4124
  181DOPC   C2722197   1.322   4.094  14.441  0.3417  0.4521  0.1301
  181DOPC   H7R22198   1.428   4.120  14.461  0.4772 -0.8014  1.1285
  181DOPC   H7S22199   1.315   3.986  14.414  1.9553  0.4080 -0.2502
  181DOPC   C2822200   1.239   4.130  14.568  0.4575  0.4186  0.2231
  181DOPC   H8R22201   1.137   4.094  14.542 -0.1765  0.0888  2.8728
  181DOPC   H8S22202   1.224   4.239  14.578  0.0099  0.5221 -1.2726
  181DOPC   C2922203   1.288   4.068  14.695 -0.5180  0.3951 -0.5862
  181DOPC   H9R22204   1.386   4.021  14.682 -0.4889 -0.3494  1.8682
  181DOPC  C21022205   1.215   4.039  14.809  0.0819 -0.4507  0.5642
  181DOPC  H10R22206   1.263   3.993  14.896  0.0002  0.3772  1.0587
  181DOPC  C21122207   1.087   4.103  14.848  0.0350  0.2408  0.0533
  181DOPC  H11R22208   1.023   4.015  14.874 -1.0475  1.7726  3.1090
  181DOPC  H11S22209   1.048   4.164  14.763  3.1200  1.5917 -0.5374
  181DOPC  C21222210   1.096   4.187  14.977  0.7369  0.0949 -0.6270
  181DOPC  H12R22211   1.136   4.128  15.062 -0.7801  0.8634  0.6612
  181DOPC  H12S22212   0.991   4.205  15.006  0.9028 -1.2373  0.9717
  181DOPC  C21322213   1.161   4.322  14.945 -0.0672  0.2740 -1.2182
  181DOPC  H13R22214   1.096   4.374  14.872  1.2244  2.1378 -1.1260
  181DOPC  H13S22215   1.263   4.310  14.903  0.3377  0.6633 -0.3800
  181DOPC  C21422216   1.169   4.405  15.072  0.1133  1.0372 -0.4123
  181DOPC  H14R22217   1.213   4.343  15.153 -0.7732  1.3413  0.3190
  181DOPC  H14S22218   1.068   4.420  15.117 -0.7177 -1.4509 -1.3046
  181DOPC  C21522219   1.248   4.536  15.056 -0.0004 -0.0917  0.7297
  181DOPC  H15R22220   1.193   4.597  14.981  0.7775 -0.0408  0.1971
  181DOPC  H15S22221   1.350   4.508  15.023 -0.1153  0.5094 -0.1558
  181DOPC  C21622222   1.257   4.602  15.191  0.2022 -0.4540 -0.7607
  181DOPC  H16R22223   1.277   4.539  15.280 -1.7811  0.5855  0.4923
  181DOPC  H16S22224   1.155   4.633  15.221  0.1065 -1.1522 -0.3364
  181DOPC  C21722225   1.351   4.726  15.187 -0.0034 -0.4204  0.2883
  181DOPC  H17R22226   1.296   4.783  15.109  0.1781 -1.2756 -0.4757
  181DOPC  H17S22227   1.453   4.693  15.159  0.8652  1.4110  1.1572
  181DOPC  C21822228   1.354   4.812  15.317  0.4500 -0.1545 -0.2896
  181DOPC  H18R22229   1.446   4.873  15.325 -0.7370  1.5914  0.8745
  181DOPC  H18S22230   1.345   4.743  15.404  0.2222  0.5310  0.2368
  181DOPC  H18T22231   1.261   4.873  15.313  0.4180 -0.2709 -1.5909
  181DOPC   C3322232   1.414   3.693  14.092 -0.1637  0.3448 -0.3313
  181DOPC   H3X22233   1.401   3.803  14.091 -0.2291  0.3550 -1.7628
  181DOPC   H3Y22234   1.515   3.670  14.130  0.2960 -0.1589 -1.7612
  181DOPC   C3422235   1.305   3.639  14.189  0.3222  0.2470  0.8546
  181DOPC   H4X22236   1.293   3.531  14.165  2.8006 -0.1242  1.0142
  181DOPC   H4Y22237   1.207   3.682  14.159  0.3961  0.7730  1.3624
  181DOPC   C3522238   1.322   3.655  14.341 -0.2396 -0.4041 -0.3379
  181DOPC   H5X22239   1.384   3.747  14.352 -0.3431 -0.1007 -1.9866
  181DOPC   H5Y22240   1.378   3.567  14.379 -0.0073 -0.7961 -1.5411
  181DOPC   C3622241   1.197   3.679  14.411  0.0741 -0.3803  0.5484
  181DOPC   H6X22242   1.133   3.755  14.361  0.0342 -2.1095 -2.2657
  181DOPC   H6Y22243   1.135   3.586  14.404 -0.1468 -0.1580 -0.7761
  181DOPC   C3722244   1.215   3.699  14.561 -0.2515 -0.3830 -0.4101
  181DOPC   H7X22245   1.276   3.617  14.606  0.4812  0.9449  1.0860
  181DOPC   H7Y22246   1.276   3.791  14.569  0.2650 -0.6354 -1.2052
  181DOPC   C3822247   1.078   3.692  14.630 -0.4241  0.1386 -0.1444
  181DOPC   H8X22248   1.057   3.584  14.618  0.9652 -0.5459  2.7658
  181DOPC   H8Y22249   1.008   3.744  14.560  0.2252 -0.4709 -1.2836
  181DOPC   C3922250   1.068   3.729  14.776 -0.0915  0.0692 -0.0303
  181DOPC   H9X22251   1.001   3.814  14.797  0.3847  0.3175  0.5198
  181DOPC  C31022252   1.122   3.654  14.877  0.3000  0.2509 -1.2912
  181DOPC  H10X22253   1.108   3.681  14.982 -1.6345  1.2341 -1.7685
  181DOPC  C31122254   1.211   3.531  14.850  0.0855 -0.8841 -0.3034
  181DOPC  H11X22255   1.307   3.567  14.806  0.6229  0.5210  1.8591
  181DOPC  H11Y22256   1.164   3.469  14.770 -1.0639  0.1944 -0.4904
  181DOPC  C31222257   1.243   3.464  14.981  0.4698  0.1894  0.4951
  181DOPC  H12X22258   1.274   3.547  15.048  0.8387 -0.2632  0.8989
  181DOPC  H12Y22259   1.332   3.399  14.964 -0.6265 -1.5579  1.0794
  181DOPC  C31322260   1.129   3.374  15.041 -0.2851 -0.9625 -0.2966
  181DOPC  H13X22261   1.050   3.453  15.039  0.6660  0.0122 -2.2716
  181DOPC  H13Y22262   1.101   3.293  14.970 -0.1006  0.4313 -2.0359
  181DOPC  C31422263   1.168   3.324  15.184  0.6034  0.2550 -0.5865
  181DOPC  H14X22264   1.261   3.267  15.165  0.7063  0.0129  0.5703
  181DOPC  H14Y22265   1.189   3.415  15.245 -3.8974  0.6293  0.7683
  181DOPC  C31522266   1.058   3.243  15.257  0.4312 -0.1732  0.0009
  181DOPC  H15X22267   1.057   3.141  15.212 -1.4656 -0.5930  0.8942
  181DOPC  H15Y22268   0.961   3.296  15.254  0.5551  0.0287 -0.5737
  181DOPC  C31622269   1.077   3.220  15.406 -0.1595 -0.4790 -0.0246
  181DOPC  H16X22270   0.991   3.161  15.445 -1.2279  1.4572  0.7203
  181DOPC  H16Y22271   1.162   3.151  15.420  1.8039  1.8554  0.2721
  181DOPC  C31722272   1.096   3.354  15.488 -0.5327  0.4798  0.9216
  181DOPC  H17X22273   1.198   3.397  15.476  0.2465 -0.9172  2.1627
  181DOPC  H17Y22274   1.036   3.435  15.443 -0.7358  0.2391  0.7568
  181DOPC  C31822275   1.071   3.335  15.636  0.1646  0.1452 -0.0057
  181DOPC  H18X22276   1.068   3.429  15.694 -2.0463  0.0256  0.1414
  181DOPC  H18Y22277   0.965   3.303  15.644  0.6306 -1.5455 -0.0256
  181DOPC  H18Z22278   1.134   3.261  15.691 -2.7637  0.2492  3.9736
  182DOPC     N22279   1.951   0.614  12.938 -0.2323 -0.4000  0.6568
  182DOPC   C1222280   2.063   0.708  12.981 -0.3861 -0.6183 -0.1367
  182DOPC  H12A22281   2.098   0.756  12.891 -2.3605 -1.2245 -1.2738
  182DOPC  H12B22282   2.143   0.654  13.031  1.7528  1.2068 -1.3701
  182DOPC   C1322283   1.859   0.686  12.835 -0.0007 -0.2229 -0.7097
  182DOPC  H13A22284   1.916   0.727  12.752  1.3688 -1.7562 -0.5783
  182DOPC  H13B22285   1.795   0.608  12.799  1.2991 -3.1981  2.8463
  182DOPC  H13C22286   1.796   0.762  12.878  0.7042 -0.4361  0.7622
  182DOPC   C1422287   1.878   0.560  13.052  0.4643  0.0921  0.7335
  182DOPC  H14A22288   1.857   0.646  13.114  0.2229  1.1175 -0.7208
  182DOPC  H14B22289   1.786   0.521  13.012  0.9275 -0.0912 -0.1828
  182DOPC  H14C22290   1.925   0.479  13.107 -1.4088 -1.3839  0.2779
  182DOPC   C1522291   2.014   0.504  12.857 -0.0138  0.2920 -0.6080
  182DOPC  H15A22292   2.034   0.540  12.757 -0.5733 -1.9225 -1.5765
  182DOPC  H15B22293   1.949   0.418  12.847  0.6755 -0.8191  3.0395
  182DOPC  H15C22294   2.105   0.473  12.906 -0.0695  0.0543 -0.6554
  182DOPC   C1122295   2.018   0.828  13.070 -0.2118  0.3622 -0.0077
  182DOPC  H11A22296   2.087   0.912  13.050 -0.0712 -0.0607 -1.4227
  182DOPC  H11B22297   1.918   0.863  13.035 -0.3752  0.1061  0.1973
  182DOPC     P22298   2.136   0.763  13.296 -0.4981  0.0232 -0.0469
  182DOPC   O1322299   2.195   0.892  13.339  0.4082 -0.3831  0.2443
  182DOPC   O1422300   2.229   0.669  13.234 -0.0672  0.2013 -0.1983
  182DOPC   O1222301   2.012   0.800  13.208 -0.0222  0.4822  0.6453
  182DOPC   O1122302   2.081   0.694  13.423  0.6413  0.0481 -0.4926
  182DOPC    C122303   1.952   0.625  13.419  0.2490  0.0162 -0.3739
  182DOPC    HA22304   1.957   0.541  13.346 -0.7712 -1.3379  1.0416
  182DOPC    HB22305   1.885   0.707  13.387  2.1913  1.6646 -0.4564
  182DOPC    C222306   1.904   0.584  13.563  0.2480  0.1838 -0.8038
  182DOPC    HS22307   1.797   0.611  13.569  0.3082  0.3540 -0.4481
  182DOPC   O2122308   1.971   0.650  13.670 -0.4112 -0.0809  0.0643
  182DOPC   C2122309   1.948   0.788  13.687 -1.0703  0.1733 -0.0004
  182DOPC   O2222310   1.867   0.849  13.622 -0.1912 -0.1421 -0.6063
  182DOPC   C2222311   2.019   0.839  13.816  0.2673  0.7985  0.0950
  182DOPC   H2R22312   2.130   0.831  13.812  0.5006  0.7335  3.6163
  182DOPC   H2S22313   1.985   0.765  13.892  1.7099 -0.7271 -0.6990
  182DOPC    C322314   1.916   0.430  13.591 -0.4232 -1.4307 -0.0330
  182DOPC    HX22315   2.023   0.400  13.587 -0.5945 -2.3756  1.6038
  182DOPC    HY22316   1.868   0.379  13.505  0.2929  1.1571 -2.1330
  182DOPC   O3122317   1.864   0.394  13.720  0.4668  0.3025  0.3017
  182DOPC   C3122318   1.730   0.382  13.718  0.5355 -0.3509 -0.6999
  182DOPC   O3222319   1.657   0.410  13.618 -0.1164  0.7231  0.5977
  182DOPC   C3222320   1.682   0.326  13.852 -0.0194 -0.0271 -0.1589
  182DOPC   H2X22321   1.737   0.229  13.852 -1.2780 -0.7636 -0.8203
  182DOPC   H2Y22322   1.732   0.394  13.924  2.3594 -2.2111  0.4121
  182DOPC   C2322323   1.961   0.979  13.858 -0.2758 -0.4264 -0.0807
  182DOPC   H3R22324   1.850   0.975  13.868 -0.2599  0.1760  0.3238
  182DOPC   H3S22325   1.978   1.053  13.776 -1.8154 -2.9866 -2.9517
  182DOPC   C2422326   2.008   1.026  13.998 -0.1568 -0.1717  0.1700
  182DOPC   H4R22327   2.118   1.039  13.991 -0.1777  0.6412  1.0639
  182DOPC   H4S22328   1.995   0.943  14.071 -3.6265 -0.3293 -0.4560
  182DOPC   C2522329   1.946   1.150  14.045  0.0154 -0.5386 -0.1011
  182DOPC   H5R22330   1.842   1.116  14.061  0.2219 -0.7787  0.8074
  182DOPC   H5S22331   1.936   1.228  13.967 -0.4357 -1.8798 -1.4245
  182DOPC   C2622332   1.993   1.206  14.180  0.2650 -0.4248 -0.2531
  182DOPC   H6R22333   1.958   1.145  14.266  3.6101  0.3432  1.8152
  182DOPC   H6S22334   1.943   1.304  14.195 -0.5269 -0.7710 -0.5658
  182DOPC   C2722335   2.148   1.208  14.190 -0.1468 -0.1499  0.0099
  182DOPC   H7R22336   2.198   1.240  14.096 -0.3437 -0.9629 -0.3817
  182DOPC   H7S22337   2.171   1.102  14.212 -1.1869 -0.2945  0.4638
  182DOPC   C2822338   2.198   1.300  14.301 -0.4063 -0.4134  0.4423
  182DOPC   H8R22339   2.141   1.289  14.396  0.1126  0.1292  0.8296
  182DOPC   H8S22340   2.173   1.401  14.261 -0.0869 -0.9507 -1.1733
  182DOPC   C2922341   2.343   1.295  14.317  0.1838 -0.2132  0.4327
  182DOPC   H9R22342   2.381   1.192  14.309 -4.0086 -1.8015 -1.6184
  182DOPC  C21022343   2.437   1.390  14.333  0.3572 -0.1991  0.0204
  182DOPC  H10R22344   2.545   1.370  14.325  0.5128 -0.3034  1.9099
  182DOPC  C21122345   2.406   1.539  14.328  0.1160  0.3070 -0.0743
  182DOPC  H11R22346   2.487   1.593  14.382  1.6626 -0.7194 -1.2584
  182DOPC  H11S22347   2.305   1.567  14.363  0.1234  0.5745 -0.2671
  182DOPC  C21222348   2.430   1.589  14.178 -0.2342  0.2541  0.1810
  182DOPC  H12R22349   2.407   1.697  14.173  1.7010  0.6370 -1.3124
  182DOPC  H12S22350   2.356   1.537  14.113 -1.0882 -1.0283  2.0655
  182DOPC  C21322351   2.574   1.563  14.130 -0.0834 -0.0650 -0.3875
  182DOPC  H13R22352   2.594   1.454  14.119 -1.1052 -0.2746 -0.1902
  182DOPC  H13S22353   2.644   1.598  14.209 -1.4215  1.9335 -0.0331
  182DOPC  C21422354   2.601   1.631  13.998  0.0948  0.2139  0.4251
  182DOPC  H14R22355   2.539   1.723  14.004 -0.5447 -0.1921  0.1785
  182DOPC  H14S22356   2.562   1.570  13.914  1.4281 -1.2319  0.7959
  182DOPC  C21522357   2.754   1.660  13.973  0.5084  0.1545  0.2741
  182DOPC  H15R22358   2.800   1.564  14.004 -2.3227 -0.7031  2.1886
  182DOPC  H15S22359   2.787   1.746  14.035  0.7810 -0.3894  0.8979
  182DOPC  C21622360   2.775   1.682  13.818 -0.3162 -0.1308  0.0014
  182DOPC  H16R22361   2.707   1.764  13.787 -0.3760 -0.6144 -1.2020
  182DOPC  H16S22362   2.748   1.586  13.769 -0.2991 -0.4866  0.6802
  182DOPC  C21722363   2.913   1.725  13.767 -0.0934  0.1838  0.0707
  182DOPC  H17R22364   2.922   1.826  13.812  1.2571 -0.8062  2.1897
  182DOPC  H17S22365   2.912   1.730  13.656 -1.5110 -0.3584  0.0300
  182DOPC  C21822366   3.033   1.643  13.811  0.0039  0.3934 -0.0494
  182DOPC  H18R22367   3.024   1.642  13.922  0.3528 -0.0875 -0.0231
  182DOPC  H18S22368   3.129   1.677  13.767  2.5190 -3.0900  2.2775
  182DOPC  H18T22369   3.008   1.539  13.783 -0.0593  1.0028 -2.5618
  182DOPC   C3322370   1.540   0.315  13.876  0.4300 -0.6371  0.1335
  182DOPC   H3X22371   1.504   0.231  13.813 -2.2615  1.6588 -1.6197
  182DOPC   H3Y22372   1.490   0.412  13.853  0.6350 -0.5037  0.2405
  182DOPC   C3422373   1.518   0.263  14.015  0.9127 -0.1042  0.3381
  182DOPC   H4X22374   1.537   0.328  14.104 -0.4677 -0.5789  1.0140
  182DOPC   H4Y22375   1.580   0.171  14.017  1.1676  0.0491 -0.3959
  182DOPC   C3522376   1.370   0.236  14.044 -0.2913  0.1421  0.2672
  182DOPC   H5X22377   1.320   0.209  13.949  1.5444  0.4774 -0.8478
  182DOPC   H5Y22378   1.315   0.326  14.079  1.0782  1.6950 -1.3648
  182DOPC   C3622379   1.352   0.133  14.154 -0.5955  0.6230 -0.4307
  182DOPC   H6X22380   1.423   0.049  14.141 -1.7746 -0.7952  1.6533
  182DOPC   H6Y22381   1.373   0.181  14.252  0.5097  0.2945 -0.4944
  182DOPC   C3722382   1.211   0.072  14.151 -1.2705 -0.3067 -0.3135
  182DOPC   H7X22383   1.138   0.153  14.173 -0.7091 -0.1767  1.2072
  182DOPC   H7Y22384   1.186   0.028  14.052 -1.9921  1.2891 -0.8762
  182DOPC   C3822385   1.209  -0.035  14.265  0.7838 -0.2010 -0.0669
  182DOPC   H8X22386   1.243   0.012  14.360 -0.3266  1.2352 -0.3500
  182DOPC   H8Y22387   1.279  -0.116  14.235 -1.4644 -1.9138 -0.9603
  182DOPC   C3922388   1.079  -0.108  14.290  0.6794  0.6519  0.2792
  182DOPC   H9X22389   0.988  -0.057  14.255  0.3826  0.2834  0.5063
  182DOPC  C31022390   1.070  -0.218  14.362 -0.2480  0.0935 -0.2155
  182DOPC  H10X22391   0.972  -0.265  14.379  0.4008 -1.0367  0.4884
  182DOPC  C31122392   1.183  -0.305  14.421  0.2103 -0.6079 -0.0718
  182DOPC  H11X22393   1.168  -0.310  14.531  0.1082  0.8010  0.0078
  182DOPC  H11Y22394   1.278  -0.251  14.399 -0.4837 -0.2794 -2.5499
  182DOPC  C31222395   1.201  -0.445  14.351 -0.1234  0.3188  0.1852
  182DOPC  H12X22396   1.297  -0.491  14.383  0.6425 -0.0527 -2.4717
  182DOPC  H12Y22397   1.215  -0.436  14.242  0.2228 -0.6005  0.1461
  182DOPC  C31322398   1.088  -0.535  14.382  1.0016  0.2063 -0.0002
  182DOPC  H13X22399   1.088  -0.567  14.489  0.1783 -0.7476 -0.2741
  182DOPC  H13Y22400   1.003  -0.466  14.364  1.4191  0.8530  0.4430
  182DOPC  C31422401   1.086  -0.666  14.293 -0.0625  0.0818  0.6146
  182DOPC  H14X22402   0.988  -0.716  14.301  0.0341 -0.3663 -0.7827
  182DOPC  H14Y22403   1.105  -0.629  14.190  0.1497  0.6177  0.8379
  182DOPC  C31522404   1.202  -0.762  14.322 -0.7270 -0.6922 -0.5445
  182DOPC  H15X22405   1.189  -0.792  14.428 -1.0271 -0.0320 -0.3907
  182DOPC  H15Y22406   1.302  -0.715  14.314 -0.1407 -1.6870  0.6716
  182DOPC  C31622407   1.205  -0.885  14.222  0.3568 -0.7450 -0.2616
  182DOPC  H16X22408   1.112  -0.943  14.239  0.3824 -1.1121 -1.2857
  182DOPC  H16Y22409   1.193  -0.837  14.122  0.7694  2.3164  1.0271
  182DOPC  C31722410   1.336  -0.962  14.229  0.3650  0.1215  0.0381
  182DOPC  H17X22411   1.375  -0.966  14.125  0.8741  3.2835  0.0212
  182DOPC  H17Y22412   1.409  -0.902  14.287  0.1054  0.8398 -0.3636
  182DOPC  C31822413   1.317  -1.103  14.277 -1.1386  0.2826  0.5599
  182DOPC  H18X22414   1.401  -1.167  14.315  0.0390  0.8636 -0.9650
  182DOPC  H18Y22415   1.244  -1.101  14.361 -2.8890  2.0724 -0.9271
  182DOPC  H18Z22416   1.275  -1.167  14.196  0.0758 -0.4665  0.4919
  183DOPC     N22417   7.368   5.853  12.954 -0.3877  0.3457 -0.2716
  183DOPC   C1222418   7.432   5.981  12.991  0.5239  0.2381 -0.4957
  183DOPC  H12A22419   7.392   6.022  13.082 -1.6845 -2.1846 -0.2541
  183DOPC  H12B22420   7.413   6.048  12.908  3.3351  2.2041  0.2864
  183DOPC   C1322421   7.422   5.794  12.822  0.1696 -0.1780 -0.1166
  183DOPC  H13A22422   7.409   5.864  12.741  1.9166  0.4578  0.1194
  183DOPC  H13B22423   7.527   5.769  12.826  0.0570 -0.6976 -0.2930
  183DOPC  H13C22424   7.378   5.697  12.803 -0.4631 -0.2968  1.7054
  183DOPC   C1422425   7.224   5.875  12.919  0.3273  0.5147 -0.0612
  183DOPC  H14A22426   7.181   5.779  12.896 -0.7042  0.7918  0.6376
  183DOPC  H14B22427   7.165   5.918  12.998 -2.3910 -0.9852 -1.1555
  183DOPC  H14C22428   7.218   5.933  12.829  0.7749  0.0094 -0.4219
  183DOPC   C1522429   7.366   5.756  13.067  0.4639  0.2381  0.3648
  183DOPC  H15A22430   7.470   5.740  13.093  0.3322 -2.3867 -0.3785
  183DOPC  H15B22431   7.322   5.661  13.041  0.0740  0.2158  1.0781
  183DOPC  H15C22432   7.310   5.789  13.153  0.0283  0.4809 -0.0085
  183DOPC   C1122433   7.575   5.979  13.003 -0.2565  0.1463 -0.2817
  183DOPC  H11A22434   7.605   6.058  13.075 -1.2409  1.8845 -1.6842
  183DOPC  H11B22435   7.609   5.883  13.047  0.1979  0.2210 -0.4596
  183DOPC     P22436   7.657   6.142  12.828  0.0129  0.2228  0.2824
  183DOPC   O1322437   7.530   6.207  12.843 -0.0263 -0.9713  0.8075
  183DOPC   O1422438   7.719   6.132  12.696  0.0828  0.4887 -0.1756
  183DOPC   O1222439   7.641   5.998  12.880  0.2373 -0.5838 -0.2996
  183DOPC   O1122440   7.746   6.217  12.932  0.0533 -0.2372 -0.2526
  183DOPC    C122441   7.854   6.153  13.001  0.2012  0.0077  0.5718
  183DOPC    HA22442   7.952   6.192  12.966 -1.8377  1.7153 -3.9170
  183DOPC    HB22443   7.858   6.043  12.981  1.5135  0.2487 -0.6309
  183DOPC    C222444   7.851   6.172  13.160  0.7577  0.2512  0.2106
  183DOPC    HS22445   7.777   6.094  13.187  0.7091  0.4089  0.5486
  183DOPC   O2122446   7.806   6.298  13.197  0.4828 -0.2293 -0.1480
  183DOPC   C2122447   7.681   6.318  13.229 -0.0894 -0.1493 -1.3702
  183DOPC   O2222448   7.597   6.233  13.244 -0.5007 -0.0068 -0.0174
  183DOPC   C2222449   7.658   6.470  13.269 -0.6856  0.7717  0.1896
  183DOPC   H2R22450   7.693   6.539  13.190  2.2827 -0.6454  0.1008
  183DOPC   H2S22451   7.740   6.488  13.341  2.0353  0.2376 -2.5700
  183DOPC    C322452   7.990   6.147  13.218 -0.5322 -0.0839 -0.3587
  183DOPC    HX22453   8.060   6.228  13.188  0.2600 -0.7909 -0.4605
  183DOPC    HY22454   8.035   6.052  13.182 -0.7455  0.5272 -2.3579
  183DOPC   O3122455   7.983   6.134  13.361  0.5436 -0.1336 -0.7206
  183DOPC   C3122456   8.104   6.152  13.416 -0.7843 -0.0231  0.0705
  183DOPC   O3222457   8.203   6.179  13.351  0.0022  0.7129 -0.0004
  183DOPC   C3222458   8.091   6.157  13.561  0.4159  0.0016 -1.1958
  183DOPC   H2X22459   8.003   6.221  13.584  0.8253  0.1497  0.0094
  183DOPC   H2Y22460   8.063   6.057  13.598  1.2810 -0.2975 -1.3162
  183DOPC   C2322461   7.507   6.486  13.303  0.6089 -0.0432 -0.0455
  183DOPC   H3R22462   7.479   6.425  13.392 -0.2786  0.1119 -0.2092
  183DOPC   H3S22463   7.448   6.450  13.216 -0.4835 -0.0929  0.6845
  183DOPC   C2422464   7.462   6.630  13.336  0.0184 -0.2733 -0.5839
  183DOPC   H4R22465   7.518   6.695  13.265  1.2677  3.4453  3.3637
  183DOPC   H4S22466   7.501   6.645  13.439  1.3674  0.9512 -1.2420
  183DOPC   C2522467   7.309   6.648  13.333 -0.5204  0.6258 -0.3509
  183DOPC   H5R22468   7.273   6.648  13.228  0.4157  0.4095 -0.6798
  183DOPC   H5S22469   7.295   6.747  13.383  1.4831 -0.4942  2.7745
  183DOPC   C2622470   7.219   6.556  13.416 -0.2711  0.1506 -0.0008
  183DOPC   H6R22471   7.250   6.565  13.522  0.8028 -0.4556 -0.2475
  183DOPC   H6S22472   7.235   6.452  13.379 -1.9842  0.3387 -1.4104
  183DOPC   C2722473   7.072   6.585  13.394 -0.2357  0.0049 -0.1382
  183DOPC   H7R22474   7.048   6.593  13.285 -1.6935 -1.9659 -0.0200
  183DOPC   H7S22475   7.043   6.680  13.445  1.3979 -0.8536  2.5976
  183DOPC   C2822476   6.993   6.474  13.463  0.1788  0.1294 -0.1891
  183DOPC   H8R22477   6.891   6.511  13.489 -0.3866 -0.3717 -1.6079
  183DOPC   H8S22478   7.044   6.441  13.556 -0.8481  0.3405  0.4702
  183DOPC   C2922479   6.962   6.343  13.389  0.3771  0.2574  0.3174
  183DOPC   H9R22480   6.911   6.366  13.294  0.4818  2.4285  0.7414
  183DOPC  C21022481   6.963   6.216  13.436  1.1306 -0.6120 -0.6154
  183DOPC  H10R22482   6.940   6.140  13.360 -1.9495  3.5577 -4.4452
  183DOPC  C21122483   7.022   6.168  13.570 -0.0992 -0.2749 -0.0394
  183DOPC  H11R22484   6.976   6.071  13.596 -1.6680  0.2598 -0.6845
  183DOPC  H11S22485   6.996   6.235  13.655  0.7674  0.8391 -0.6200
  183DOPC  C21222486   7.174   6.155  13.564  0.0572  0.3776 -0.3386
  183DOPC  H12R22487   7.213   6.258  13.548 -1.4422  1.2181  1.0287
  183DOPC  H12S22488   7.199   6.081  13.486  1.4269 -0.2736  0.6751
  183DOPC  C21322489   7.238   6.090  13.688  0.2799  0.4021 -0.2717
  183DOPC  H13R22490   7.348   6.076  13.675  0.6805  0.0214  2.7854
  183DOPC  H13S22491   7.193   5.989  13.693  0.6073  0.3255  2.1389
  183DOPC  C21422492   7.207   6.171  13.818  0.6105 -0.4034  0.1159
  183DOPC  H14R22493   7.239   6.118  13.910 -0.1956 -2.1421 -0.5449
  183DOPC  H14S22494   7.098   6.184  13.832  1.1440  1.7202  3.1790
  183DOPC  C21522495   7.252   6.322  13.816 -0.0607 -0.7940 -0.6515
  183DOPC  H15R22496   7.231   6.371  13.718  0.6588  1.8262  0.4177
  183DOPC  H15S22497   7.363   6.320  13.825 -0.2500 -3.3299  2.7998
  183DOPC  C21622498   7.212   6.410  13.937 -0.3746  0.2363  0.5485
  183DOPC  H16R22499   7.235   6.364  14.036  1.7844  3.5739  1.7744
  183DOPC  H16S22500   7.102   6.426  13.940 -0.8660 -2.6116  1.1355
  183DOPC  C21722501   7.272   6.550  13.931  0.5363  0.3172  0.0208
  183DOPC  H17R22502   7.249   6.593  13.832 -0.0340  1.3634  0.5910
  183DOPC  H17S22503   7.382   6.533  13.937  0.2176 -1.3582  3.2980
  183DOPC  C21822504   7.227   6.659  14.036  0.4266 -0.9361 -0.4965
  183DOPC  H18R22505   7.298   6.744  14.026  1.7702 -2.0879 -1.1591
  183DOPC  H18S22506   7.229   6.623  14.141  0.3045 -1.7754 -0.7777
  183DOPC  H18T22507   7.122   6.690  14.016  0.5865  1.3838  1.7601
  183DOPC   C3322508   8.217   6.216  13.641  0.6616 -0.9404  0.1644
  183DOPC   H3X22509   8.240   6.312  13.592 -1.7558 -0.1242  0.4960
  183DOPC   H3Y22510   8.305   6.150  13.622  1.2878  0.3794 -1.8242
  183DOPC   C3422511   8.195   6.242  13.787 -0.0877  1.1417  0.0881
  183DOPC   H4X22512   8.161   6.148  13.835  1.5399 -0.3238 -1.4339
  183DOPC   H4Y22513   8.117   6.320  13.800  2.1439  3.3663  0.9448
  183DOPC   C3522514   8.318   6.294  13.862  0.9042 -0.2498 -0.1299
  183DOPC   H5X22515   8.346   6.398  13.837 -0.9568  0.1988 -0.4996
  183DOPC   H5Y22516   8.409   6.233  13.841  0.5572 -0.0522 -2.5453
  183DOPC   C3622517   8.295   6.294  14.017  0.1582 -0.0197  0.3304
  183DOPC   H6X22518   8.219   6.371  14.045  0.6575  0.3577  0.6806
  183DOPC   H6Y22519   8.253   6.197  14.052 -0.5265 -0.3229 -1.2815
  183DOPC   C3722520   8.424   6.333  14.101 -0.2633  0.1598  1.0560
  183DOPC   H7X22521   8.489   6.244  14.099 -0.2009  0.2127 -0.8242
  183DOPC   H7Y22522   8.474   6.424  14.062  0.5748 -1.3570 -1.6566
  183DOPC   C3822523   8.402   6.359  14.254 -0.0162 -0.3721 -0.5937
  183DOPC   H8X22524   8.503   6.352  14.300  0.2199  2.3015 -0.5982
  183DOPC   H8Y22525   8.345   6.266  14.276  0.0356 -0.1462  0.5864
  183DOPC   C3922526   8.337   6.494  14.293 -1.0160 -0.3912  0.5513
  183DOPC   H9X22527   8.358   6.583  14.232 -0.1118 -0.1528  1.1822
  183DOPC  C31022528   8.252   6.517  14.396 -0.1350  0.3990 -1.1663
  183DOPC  H10X22529   8.203   6.615  14.399 -0.4348  0.2446  1.5253
  183DOPC  C31122530   8.197   6.414  14.500  0.1295 -0.2055  0.1634
  183DOPC  H11X22531   8.223   6.435  14.605 -0.1053 -1.5651  0.5201
  183DOPC  H11Y22532   8.241   6.313  14.485 -1.5951 -1.5648  3.3348
  183DOPC  C31222533   8.043   6.406  14.496 -0.1310 -0.1003  0.3361
  183DOPC  H12X22534   7.991   6.501  14.521 -0.0582 -0.1839  0.8159
  183DOPC  H12Y22535   8.007   6.337  14.576 -0.7836  1.5227  1.4955
  183DOPC  C31322536   7.971   6.366  14.370 -0.2146 -0.1991  0.4416
  183DOPC  H13X22537   7.861   6.373  14.388 -0.4532  0.3167 -1.0699
  183DOPC  H13Y22538   7.993   6.448  14.299  0.5874 -1.1746 -0.4619
  183DOPC  C31422539   8.004   6.227  14.318 -0.2224 -0.1889  0.2948
  183DOPC  H14X22540   8.110   6.225  14.288 -0.4207  0.0600 -0.4291
  183DOPC  H14Y22541   7.992   6.150  14.398  1.1364 -1.9561 -1.1113
  183DOPC  C31522542   7.933   6.190  14.190 -0.0293 -0.5159 -0.3638
  183DOPC  H15X22543   7.956   6.270  14.116 -0.2704 -0.2019 -0.1074
  183DOPC  H15Y22544   7.823   6.195  14.204  0.0779 -0.2561  0.4668
  183DOPC  C31622545   7.989   6.064  14.121  0.0987  0.1654  0.4786
  183DOPC  H16X22546   8.098   6.075  14.106  0.0142  0.6029  0.1814
  183DOPC  H16Y22547   7.973   5.981  14.193 -1.2091 -0.6908 -0.7319
  183DOPC  C31722548   7.911   6.021  13.994  0.2950  0.7307  0.0742
  183DOPC  H17X22549   7.802   6.015  14.015  0.2268 -0.4980 -0.5461
  183DOPC  H17Y22550   7.937   6.096  13.917  0.9712 -0.0903 -0.5256
  183DOPC  C31822551   7.948   5.893  13.914 -0.2195  1.0280 -0.0228
  183DOPC  H18X22552   7.867   5.875  13.839  0.5651 -2.3173 -0.2225
  183DOPC  H18Y22553   8.040   5.902  13.852  0.7455 -1.2973  0.9816
  183DOPC  H18Z22554   7.957   5.800  13.974  1.9596  0.7712 -0.6756
  184DOPC     N22555   5.526   0.470  12.935 -0.2439  0.6307 -0.0052
  184DOPC   C1222556   5.573   0.392  13.058  0.1774 -0.0629 -0.4043
  184DOPC  H12A22557   5.551   0.445  13.149 -2.8620 -0.9722 -0.5090
  184DOPC  H12B22558   5.678   0.370  13.056  0.5941  1.7502 -1.2240
  184DOPC   C1322559   5.622   0.573  12.904  0.0036  0.2973 -0.4905
  184DOPC  H13A22560   5.720   0.540  12.872  1.2600  2.2878  1.0590
  184DOPC  H13B22561   5.589   0.636  12.823 -0.6660  0.5093 -0.0617
  184DOPC  H13C22562   5.644   0.641  12.985  0.4628  1.4379 -1.5502
  184DOPC   C1422563   5.389   0.521  12.955 -0.4283 -0.4826  0.7638
  184DOPC  H14A22564   5.353   0.582  12.874  0.9781  0.1608  0.5855
  184DOPC  H14B22565   5.314   0.444  12.958 -1.5241  0.4200 -1.4523
  184DOPC  H14C22566   5.385   0.583  13.042  0.0924 -0.0360  0.4753
  184DOPC   C1522567   5.520   0.369  12.825  0.3653  0.0137 -0.1419
  184DOPC  H15A22568   5.458   0.407  12.746  0.3231  3.0350  1.1893
  184DOPC  H15B22569   5.481   0.273  12.853 -0.1932  0.0831 -0.6607
  184DOPC  H15C22570   5.618   0.347  12.785  0.2080  0.5465 -0.8373
  184DOPC   C1122571   5.497   0.253  13.090  0.6485  0.1372  0.5710
  184DOPC  H11A22572   5.523   0.233  13.197 -1.5450 -2.1748  0.7902
  184DOPC  H11B22573   5.388   0.268  13.074  0.3986 -0.9463  1.1506
  184DOPC     P22574   5.687   0.076  13.014  0.7714  0.2583 -0.2124
  184DOPC   O1322575   5.793   0.161  12.967  0.3694 -0.4045 -0.8520
  184DOPC   O1422576   5.684  -0.055  12.938  0.0641 -0.0377 -0.0132
  184DOPC   O1222577   5.545   0.146  13.002 -0.0016 -0.5153 -0.0495
  184DOPC   O1122578   5.708   0.047  13.166 -0.0228  0.1889 -0.0625
  184DOPC    C122579   5.616  -0.038  13.236  0.9750  0.1007 -0.1607
  184DOPC    HA22580   5.612  -0.143  13.202  0.4067 -1.0139  2.9554
  184DOPC    HB22581   5.517   0.010  13.242  0.5113 -0.9438  1.0285
  184DOPC    C222582   5.669  -0.055  13.383 -0.0852  0.2738  0.4218
  184DOPC    HS22583   5.629  -0.151  13.422  2.1180 -1.5822 -1.5815
  184DOPC   O2122584   5.621   0.048  13.465  0.0512  0.0874 -0.2096
  184DOPC   C2122585   5.489   0.042  13.503  0.2048  0.1873 -0.9259
  184DOPC   O2222586   5.409  -0.045  13.466  0.4986 -0.0974  0.0271
  184DOPC   C2222587   5.447   0.163  13.591 -0.8773  0.2682 -0.1971
  184DOPC   H2R22588   5.349   0.205  13.559 -1.8441 -0.6278  1.4707
  184DOPC   H2S22589   5.524   0.243  13.585  0.4613 -1.0121 -0.4960
  184DOPC    C322590   5.829  -0.071  13.392  0.4644  0.0476  0.5371
  184DOPC    HX22591   5.861   0.036  13.388 -2.5031  1.0285  1.0100
  184DOPC    HY22592   5.864  -0.123  13.300  0.0519  2.3216 -1.0019
  184DOPC   O3122593   5.862  -0.137  13.515  0.7069  0.7877  1.1745
  184DOPC   C3122594   5.990  -0.124  13.545 -0.6173 -0.5797 -0.6136
  184DOPC   O3222595   6.075  -0.077  13.474  0.3686 -0.0381  0.3246
  184DOPC   C3222596   6.025  -0.196  13.674  0.0995 -0.2591  0.0024
  184DOPC   H2X22597   5.935  -0.198  13.739  0.6284 -2.5554  0.7782
  184DOPC   H2Y22598   6.055  -0.302  13.660 -1.3963 -0.4159 -2.4380
  184DOPC   C2322599   5.419   0.117  13.736 -0.7395  0.2429 -0.4638
  184DOPC   H3R22600   5.353   0.028  13.740 -2.4916  1.5164  2.1113
  184DOPC   H3S22601   5.367   0.189  13.804 -0.9946  0.8234 -1.2584
  184DOPC   C2422602   5.550   0.073  13.813  0.3832 -0.6439  0.9710
  184DOPC   H4R22603   5.581   0.174  13.846 -0.4599  0.3961 -1.2163
  184DOPC   H4S22604   5.636   0.037  13.753  0.0377 -1.3822  0.8964
  184DOPC   C2522605   5.524  -0.020  13.933  0.5085 -0.0006  0.3026
  184DOPC   H5R22606   5.423  -0.062  13.919  1.2119 -1.2916 -1.1918
  184DOPC   H5S22607   5.522   0.043  14.026 -0.2575 -0.9304  0.9344
  184DOPC   C2622608   5.623  -0.131  13.954  0.2568  0.0381  0.6072
  184DOPC   H6R22609   5.603  -0.182  14.050  1.1011 -3.2135 -0.8133
  184DOPC   H6S22610   5.730  -0.100  13.958  0.0471  0.9358 -0.3418
  184DOPC   C2722611   5.618  -0.247  13.853 -0.2242 -0.0439 -0.3988
  184DOPC   H7R22612   5.656  -0.209  13.755  1.3608  0.5280  0.3861
  184DOPC   H7S22613   5.510  -0.269  13.842 -0.4226  1.5407 -2.2190
  184DOPC   C2822614   5.697  -0.373  13.893 -0.2552 -0.1871 -0.2951
  184DOPC   H8R22615   5.796  -0.349  13.939  0.9892 -1.4307 -2.1906
  184DOPC   H8S22616   5.732  -0.427  13.803 -0.2382  3.2248 -2.5366
  184DOPC   C2922617   5.616  -0.459  13.986  0.3996 -0.1242  0.3449
  184DOPC   H9R22618   5.595  -0.435  14.091 -3.9295 -0.3031 -0.2797
  184DOPC  C21022619   5.569  -0.579  13.955  0.5815  0.1731  0.9208
  184DOPC  H10R22620   5.513  -0.631  14.035  1.2170 -2.9782 -0.5386
  184DOPC  C21122621   5.567  -0.631  13.812  0.1426 -0.1785  0.4156
  184DOPC  H11R22622   5.671  -0.662  13.791  1.2992 -0.3916  5.2003
  184DOPC  H11S22623   5.525  -0.560  13.738  1.4400 -0.2920 -0.4550
  184DOPC  C21222624   5.491  -0.769  13.797 -0.5342 -0.0743  0.1086
  184DOPC  H12R22625   5.555  -0.843  13.850  0.9384  0.8619 -0.2971
  184DOPC  H12S22626   5.486  -0.810  13.693 -1.5048 -1.2312  0.5837
  184DOPC  C21322627   5.346  -0.757  13.846  0.1983  0.2582 -0.0397
  184DOPC  H13R22628   5.299  -0.675  13.787  0.4282  2.0033  2.0639
  184DOPC  H13S22629   5.341  -0.721  13.951 -0.4586 -1.0731  0.4059
  184DOPC  C21422630   5.262  -0.895  13.863  0.0781  0.6907  0.5142
  184DOPC  H14R22631   5.167  -0.863  13.912  0.9138 -0.8997  3.4188
  184DOPC  H14S22632   5.322  -0.956  13.934  3.3484  0.5930 -2.1073
  184DOPC  C21522633   5.241  -0.977  13.742 -0.6649 -0.4741  0.2480
  184DOPC  H15R22634   5.342  -1.002  13.702 -0.1191  0.6905  0.8433
  184DOPC  H15S22635   5.187  -0.913  13.669 -1.9520 -0.0225  1.5509
  184DOPC  C21622636   5.156  -1.104  13.750  0.5958  0.3340  0.1502
  184DOPC  H16R22637   5.051  -1.071  13.767  0.2033 -0.3272 -0.8970
  184DOPC  H16S22638   5.185  -1.173  13.831 -3.3526 -0.1315  1.3942
  184DOPC  C21722639   5.174  -1.182  13.616  0.7734 -0.1695  0.2766
  184DOPC  H17R22640   5.279  -1.193  13.581  0.1388 -2.2020 -1.1638
  184DOPC  H17S22641   5.127  -1.115  13.542 -0.5881 -1.0940  0.2825
  184DOPC  C21822642   5.113  -1.322  13.612 -0.5577  0.2976 -0.4342
  184DOPC  H18R22643   5.171  -1.368  13.695 -2.1331  1.5342  1.4410
  184DOPC  H18S22644   5.129  -1.366  13.511 -2.0371 -1.2753 -0.0412
  184DOPC  H18T22645   5.004  -1.323  13.631 -0.4517 -2.1323  0.4789
  184DOPC   C3322646   6.143  -0.134  13.752  0.2548 -0.5048  0.4216
  184DOPC   H3X22647   6.115  -0.028  13.765 -0.5812 -0.6610 -0.0098
  184DOPC   H3Y22648   6.240  -0.136  13.698  0.0036  1.5196 -0.1661
  184DOPC   C3422649   6.151  -0.202  13.884 -0.3120 -0.0955  0.5564
  184DOPC   H4X22650   6.181  -0.308  13.874 -1.0326 -0.2959  0.4683
  184DOPC   H4Y22651   6.056  -0.196  13.942 -0.8392  0.8015 -0.3632
  184DOPC   C3522652   6.260  -0.129  13.968  0.4474  0.1695 -0.0933
  184DOPC   H5X22653   6.235  -0.022  13.980 -0.4029  0.0534 -0.7924
  184DOPC   H5Y22654   6.353  -0.134  13.908 -0.6387 -0.1824 -1.8029
  184DOPC   C3622655   6.270  -0.184  14.119 -0.5314 -0.4170  0.1889
  184DOPC   H6X22656   6.169  -0.188  14.164 -0.6192  2.4023  0.3755
  184DOPC   H6Y22657   6.288  -0.294  14.110 -3.5287 -0.9385 -0.2607
  184DOPC   C3722658   6.367  -0.123  14.220  0.8470  0.4590  0.5920
  184DOPC   H7X22659   6.458  -0.084  14.170  0.9727  0.0356  0.4783
  184DOPC   H7Y22660   6.300  -0.054  14.275 -0.8201  0.2105 -1.0193
  184DOPC   C3822661   6.419  -0.233  14.321 -0.1183 -0.1036 -0.7464
  184DOPC   H8X22662   6.479  -0.169  14.390 -0.6093  0.1536 -0.5551
  184DOPC   H8Y22663   6.484  -0.305  14.268  1.7480  0.5262  0.5575
  184DOPC   C3922664   6.312  -0.308  14.403 -0.3023  0.0412 -0.0474
  184DOPC   H9X22665   6.298  -0.412  14.370  1.3269 -0.0780 -0.4809
  184DOPC  C31022666   6.240  -0.266  14.508 -0.3470 -0.0954  0.2676
  184DOPC  H10X22667   6.163  -0.329  14.554  0.9577 -2.2563 -0.3921
  184DOPC  C31122668   6.258  -0.130  14.573 -0.0027 -1.0212  0.3223
  184DOPC  H11X22669   6.156  -0.092  14.595  1.0661  2.7515 -0.5202
  184DOPC  H11Y22670   6.314  -0.057  14.510  0.7954 -1.4604  0.5124
  184DOPC  C31222671   6.331  -0.148  14.705  0.4647 -1.4132 -0.3194
  184DOPC  H12X22672   6.428  -0.197  14.679  0.7249 -0.8434 -0.4348
  184DOPC  H12Y22673   6.269  -0.208  14.775 -2.5735  0.9591 -0.7398
  184DOPC  C31322674   6.385  -0.017  14.761 -0.1763  0.2107 -0.3161
  184DOPC  H13X22675   6.459   0.035  14.697 -0.3743  0.7062 -0.1481
  184DOPC  H13Y22676   6.298   0.051  14.774 -0.3982 -0.2190  0.4937
  184DOPC  C31422677   6.452  -0.035  14.901 -0.0669 -0.2718  0.3349
  184DOPC  H14X22678   6.447   0.067  14.947  0.0402  0.4717 -1.2462
  184DOPC  H14Y22679   6.390  -0.103  14.963  0.3932 -1.3768 -0.3845
  184DOPC  C31522680   6.591  -0.083  14.902 -0.1014 -0.1639  0.4709
  184DOPC  H15X22681   6.648  -0.009  14.842  0.0539  0.4014  1.3000
  184DOPC  H15Y22682   6.605  -0.181  14.851  1.6282  0.1514  0.2593
  184DOPC  C31622683   6.662  -0.097  15.033 -0.3737 -0.0436  0.6258
  184DOPC  H16X22684   6.769  -0.088  15.006  0.0517 -1.9018  1.5033
  184DOPC  H16Y22685   6.631  -0.020  15.107  0.1765  0.0183  0.7942
  184DOPC  C31722686   6.644  -0.230  15.097  0.1059  0.1071  1.0278
  184DOPC  H17X22687   6.536  -0.256  15.100  0.0095  0.4991  1.0408
  184DOPC  H17Y22688   6.687  -0.298  15.020  0.4279  0.8136  0.5736
  184DOPC  C31822689   6.701  -0.239  15.234 -0.0873  0.1054  0.2465
  184DOPC  H18X22690   6.708  -0.344  15.269 -0.5341 -0.1735 -0.4796
  184DOPC  H18Y22691   6.806  -0.203  15.243 -0.3247  0.7472  0.5240
  184DOPC  H18Z22692   6.634  -0.194  15.309  1.0954  2.1571  0.1417
  185DOPC     N22693   8.917   6.160  13.040 -0.4985 -0.3649 -1.2191
  185DOPC   C1222694   8.975   6.291  12.990  0.1943  0.1846  0.0833
  185DOPC  H12A22695   8.892   6.355  12.965 -0.5590 -1.8135 -3.1252
  185DOPC  H12B22696   9.028   6.273  12.898 -0.5216 -0.8712 -0.1431
  185DOPC   C1322697   9.023   6.059  13.061 -0.3263  0.1282  0.6851
  185DOPC  H13A22698   9.097   6.082  13.136  1.1932 -1.3048 -0.2858
  185DOPC  H13B22699   8.987   5.958  13.074 -0.3788  0.1871  1.0086
  185DOPC  H13C22700   9.085   6.063  12.972 -0.2390  0.5193  0.7609
  185DOPC   C1422701   8.816   6.105  12.942 -1.0768  0.1153 -0.5583
  185DOPC  H14A22702   8.743   6.184  12.933  1.4330  2.5560 -0.8888
  185DOPC  H14B22703   8.865   6.076  12.850  3.0713  0.2187  1.3831
  185DOPC  H14C22704   8.776   6.013  12.982  0.2911 -0.8349 -1.2864
  185DOPC   C1522705   8.838   6.178  13.165  0.0948 -0.5902 -0.9409
  185DOPC  H15A22706   8.753   6.244  13.148  0.9059  0.6008 -0.5491
  185DOPC  H15B22707   8.897   6.219  13.246  0.4159 -0.0437 -1.4429
  185DOPC  H15C22708   8.791   6.086  13.197 -1.1491  0.2088 -0.3730
  185DOPC   C1122709   9.068   6.366  13.101 -0.5215 -0.5058  0.1563
  185DOPC  H11A22710   9.133   6.286  13.143  0.2625  0.9056  1.7665
  185DOPC  H11B22711   9.128   6.444  13.050  2.0525 -0.4251  3.0558
  185DOPC     P22712   8.912   6.558  13.192  0.0071 -0.3736 -0.3376
  185DOPC   O1322713   8.802   6.556  13.289 -0.0780  0.3847 -0.1641
  185DOPC   O1422714   8.877   6.576  13.052 -0.3257 -0.1349 -0.1786
  185DOPC   O1222715   8.992   6.430  13.207 -0.6808  0.9825  0.2018
  185DOPC   O1122716   9.019   6.667  13.228  0.3042  0.0548  0.0822
  185DOPC    C122717   8.993   6.804  13.229  0.0462 -0.6078  0.4299
  185DOPC    HA22718   8.899   6.843  13.185  0.0576  1.7576  2.3391
  185DOPC    HB22719   9.073   6.850  13.168 -1.3579  0.3220 -0.7908
  185DOPC    C222720   9.002   6.870  13.367 -0.5206  1.1401 -0.1641
  185DOPC    HS22721   9.104   6.855  13.408 -0.4348  0.7454 -0.5079
  185DOPC   O2122722   8.890   6.813  13.442 -0.0786  0.2842  0.3943
  185DOPC   C2122723   8.922   6.740  13.542 -0.0765 -0.8666 -0.3429
  185DOPC   O2222724   9.037   6.716  13.585 -0.2765  0.0105  0.5259
  185DOPC   C2222725   8.796   6.678  13.610 -0.1894  0.2748  0.0518
  185DOPC   H2R22726   8.755   6.611  13.532  1.2155 -1.1353  0.4616
  185DOPC   H2S22727   8.730   6.767  13.618 -2.3900 -1.4252  1.9476
  185DOPC    C322728   8.976   7.025  13.357 -0.7345 -0.0806 -0.0193
  185DOPC    HX22729   8.883   7.042  13.298 -0.8388 -1.1546 -0.1716
  185DOPC    HY22730   9.060   7.067  13.298 -0.6398 -1.4206 -0.8601
  185DOPC   O3122731   8.965   7.078  13.490 -0.5811 -0.0749 -0.8650
  185DOPC   C3122732   9.083   7.100  13.555 -0.7927 -0.3051  0.2480
  185DOPC   O3222733   9.197   7.086  13.519  0.1140  0.6462 -0.1085
  185DOPC   C3222734   9.046   7.161  13.693 -0.5605  0.1972  0.3563
  185DOPC   H2X22735   8.995   7.258  13.674 -1.4826 -0.4349 -0.5437
  185DOPC   H2Y22736   8.969   7.095  13.739 -1.6076  1.6013  0.6860
  185DOPC   C2322737   8.836   6.603  13.734 -0.3629 -0.5922 -0.0844
  185DOPC   H3R22738   8.864   6.684  13.805 -1.8841  0.3803 -0.5655
  185DOPC   H3S22739   8.912   6.528  13.702 -0.4356 -0.8058  0.2387
  185DOPC   C2422740   8.720   6.526  13.797  0.1322  0.2550 -0.8635
  185DOPC   H4R22741   8.674   6.451  13.729 -1.0360  0.0260  0.1500
  185DOPC   H4S22742   8.641   6.604  13.805 -0.7845 -0.5339 -2.0199
  185DOPC   C2522743   8.756   6.474  13.930  0.3339  0.0601  0.4892
  185DOPC   H5R22744   8.660   6.432  13.967 -0.0036  1.0597  0.7776
  185DOPC   H5S22745   8.786   6.563  13.989  3.1527 -0.3465 -0.1498
  185DOPC   C2622746   8.890   6.389  13.921  0.3550 -0.7241 -0.2087
  185DOPC   H6R22747   8.974   6.461  13.919 -0.4151  0.1947 -0.4473
  185DOPC   H6S22748   8.898   6.321  13.833 -1.0750 -0.3252 -0.6723
  185DOPC   C2722749   8.907   6.317  14.055  0.0587  0.6315 -0.3452
  185DOPC   H7R22750   8.819   6.253  14.079 -0.6531  1.5389 -0.4972
  185DOPC   H7S22751   8.909   6.380  14.147 -0.6662 -0.2307  0.2792
  185DOPC   C2822752   9.042   6.237  14.062  0.1320 -0.0708  0.1717
  185DOPC   H8R22753   9.050   6.188  14.161 -0.3337  1.7374  1.1558
  185DOPC   H8S22754   9.119   6.317  14.055 -2.2672  2.3773  0.0864
  185DOPC   C2922755   9.060   6.144  13.941 -0.2165  0.3424  0.3911
  185DOPC   H9R22756   9.082   6.189  13.843  1.1015 -2.1593 -0.5398
  185DOPC  C21022757   9.062   6.011  13.944 -0.0457 -0.0738  0.7311
  185DOPC  H10R22758   9.086   5.950  13.855  0.1840  0.3436  0.5030
  185DOPC  C21122759   9.046   5.919  14.064  0.3824 -0.8941 -0.3097
  185DOPC  H11R22760   8.971   5.968  14.129 -1.3002 -1.8035 -1.4789
  185DOPC  H11S22761   9.144   5.913  14.116  0.3190 -0.4474 -0.1306
  185DOPC  C21222762   9.005   5.775  14.029  0.4090  0.0204  0.1466
  185DOPC  H12R22763   9.009   5.714  14.122 -2.6560  0.5412  0.7451
  185DOPC  H12S22764   9.062   5.728  13.947  0.0023 -1.4508  0.6738
  185DOPC  C21322765   8.844   5.759  14.014 -0.0535 -0.2517 -0.0067
  185DOPC  H13R22766   8.804   5.836  13.944 -1.4459  1.3953  2.4334
  185DOPC  H13S22767   8.793   5.781  14.111 -1.4287  2.9484 -1.3041
  185DOPC  C21422768   8.806   5.618  13.959  0.6426 -0.1683  0.0987
  185DOPC  H14R22769   8.834   5.537  14.030 -1.6511  0.2668  1.6019
  185DOPC  H14S22770   8.857   5.599  13.862  0.8627  0.8893 -0.0082
  185DOPC  C21522771   8.652   5.609  13.946  0.2218 -0.1506 -0.1628
  185DOPC  H15R22772   8.619   5.665  13.856  0.7641  2.0398  0.9531
  185DOPC  H15S22773   8.596   5.646  14.034 -0.1328 -2.0543  0.4585
  185DOPC  C21622774   8.604   5.460  13.926  0.3866  0.2600  0.1890
  185DOPC  H16R22775   8.499   5.464  13.891  0.0359 -1.6626  0.8942
  185DOPC  H16S22776   8.593   5.401  14.020  0.6334 -0.6555 -0.3447
  185DOPC  C21722777   8.677   5.393  13.813  0.0208 -0.6170  0.1898
  185DOPC  H17R22778   8.779   5.366  13.848  1.2874  2.6605 -0.6866
  185DOPC  H17S22779   8.702   5.460  13.728 -1.2067 -0.2166  0.1317
  185DOPC  C21822780   8.597   5.268  13.759  0.1358 -0.1372  0.0620
  185DOPC  H18R22781   8.551   5.221  13.849 -0.6943 -2.1251 -1.3337
  185DOPC  H18S22782   8.664   5.197  13.707 -0.8057 -1.3697  0.4752
  185DOPC  H18T22783   8.516   5.308  13.695 -0.8968 -0.9156  0.8487
  185DOPC   C3322784   9.175   7.182  13.778 -0.5454 -0.1083 -0.3378
  185DOPC   H3X22785   9.249   7.235  13.714 -2.0032  0.1025 -1.9410
  185DOPC   H3Y22786   9.206   7.078  13.799  1.5336  0.1608 -1.7429
  185DOPC   C3422787   9.149   7.270  13.904 -0.4639 -0.2322  0.7916
  185DOPC   H4X22788   9.123   7.374  13.875 -1.8165 -0.0129  2.6111
  185DOPC   H4Y22789   9.243   7.285  13.960 -0.1560  0.5175  0.0860
  185DOPC   C3522790   9.042   7.204  13.992 -0.0345 -0.3547  0.9236
  185DOPC   H5X22791   9.077   7.101  14.014  2.1969 -0.2584 -1.6922
  185DOPC   H5Y22792   8.948   7.194  13.935 -0.0984 -2.2080  1.3172
  185DOPC   C3622793   9.023   7.277  14.117  0.1451 -0.3889  0.0043
  185DOPC   H6X22794   9.122   7.294  14.164  0.0543 -1.4762  0.6307
  185DOPC   H6Y22795   8.983   7.377  14.092  0.7574  0.3354  1.8095
  185DOPC   C3722796   8.931   7.194  14.209 -0.1686  0.2073  0.8048
  185DOPC   H7X22797   8.848   7.159  14.144  1.8378  0.2659 -1.9737
  185DOPC   H7Y22798   8.971   7.099  14.250 -0.8132 -0.5050 -0.1833
  185DOPC   C3822799   8.874   7.271  14.326  0.1005 -0.2490 -0.2713
  185DOPC   H8X22800   8.796   7.215  14.383 -1.5335 -1.6649 -3.6408
  185DOPC   H8Y22801   8.819   7.353  14.274 -0.8107 -0.6349  0.0542
  185DOPC   C3922802   8.991   7.340  14.404 -0.6360 -0.5685  0.0888
  185DOPC   H9X22803   9.050   7.417  14.352 -2.2361  1.1034  0.6720
  185DOPC  C31022804   9.016   7.317  14.531 -0.1318  0.2308 -0.0830
  185DOPC  H10X22805   9.103   7.364  14.580 -0.5424  0.7764  0.1453
  185DOPC  C31122806   8.935   7.221  14.627 -0.1121  0.5222 -0.0268
  185DOPC  H11X22807   8.897   7.132  14.571 -0.3297  0.4318  0.2609
  185DOPC  H11Y22808   8.840   7.264  14.667  0.3907  0.6559  1.0637
  185DOPC  C31222809   9.022   7.173  14.743 -0.4648  0.1479 -0.1369
  185DOPC  H12X22810   8.952   7.142  14.823 -0.7864 -0.7642 -0.7567
  185DOPC  H12Y22811   9.088   7.257  14.772  0.2448  0.2671 -1.9371
  185DOPC  C31322812   9.096   7.047  14.703 -0.4309  0.4625  0.0598
  185DOPC  H13X22813   9.024   6.967  14.676  1.3872 -0.6997 -1.6629
  185DOPC  H13Y22814   9.151   7.069  14.609 -1.0136  0.9839 -0.1612
  185DOPC  C31422815   9.194   6.994  14.805 -0.9175  0.0484 -0.2973
  185DOPC  H14X22816   9.262   7.078  14.831 -1.0225  1.3149 -3.6334
  185DOPC  H14Y22817   9.134   6.965  14.893  1.3907 -1.2478  0.9263
  185DOPC  C31522818   9.268   6.860  14.773 -0.0310  0.5004  0.3781
  185DOPC  H15X22819   9.330   6.878  14.682 -0.3233  0.2061  0.1167
  185DOPC  H15Y22820   9.187   6.789  14.746 -1.0803  2.5975 -2.4732
  185DOPC  C31622821   9.353   6.791  14.879 -0.3553 -0.1204  0.1183
  185DOPC  H16X22822   9.423   6.718  14.833 -0.3619  0.6791 -1.2370
  185DOPC  H16Y22823   9.412   6.869  14.929 -0.8505  0.5581 -0.3335
  185DOPC  C31722824   9.272   6.708  14.986 -0.1219 -0.3358 -0.2997
  185DOPC  H17X22825   9.200   6.778  15.033  1.5922  1.5115 -0.3092
  185DOPC  H17Y22826   9.228   6.619  14.935  0.7786 -1.4354  0.7594
  185DOPC  C31822827   9.363   6.657  15.103  0.0443 -0.4667  0.1207
  185DOPC  H18X22828   9.458   6.616  15.064 -0.0066  1.1364 -1.8614
  185DOPC  H18Y22829   9.379   6.739  15.177  1.5433 -0.5396 -0.0987
  185DOPC  H18Z22830   9.305   6.579  15.156 -0.9301  1.8695  2.7774
  186DOPC     N22831   0.221   2.582  12.993 -0.0434 -0.1957 -0.1206
  186DOPC   C1222832   0.244   2.567  13.141 -0.4194  0.2613 -0.0518
  186DOPC  H12A22833   0.351   2.573  13.157 -0.3297  0.9075 -0.8120
  186DOPC  H12B22834   0.212   2.478  13.192  0.6474 -1.0244 -1.5191
  186DOPC   C1322835   0.082   2.539  12.962  0.1097 -0.5543 -0.3409
  186DOPC  H13A22836   0.068   2.433  12.978  0.5269 -0.5635 -0.0019
  186DOPC  H13B22837   0.008   2.594  13.017 -1.7136 -0.3352 -2.8484
  186DOPC  H13C22838   0.050   2.549  12.860 -0.7828  1.2144  0.0757
  186DOPC   C1422839   0.323   2.489  12.924  0.2514  0.2876  0.9048
  186DOPC  H14A22840   0.425   2.520  12.939  0.8958 -0.6124 -1.2496
  186DOPC  H14B22841   0.309   2.391  12.968  0.7989 -0.5920 -0.8011
  186DOPC  H14C22842   0.310   2.482  12.817  1.0283  0.4798  0.7931
  186DOPC   C1522843   0.242   2.717  12.935 -0.1005 -0.8314 -0.0730
  186DOPC  H15A22844   0.255   2.715  12.828  0.4407 -1.1851 -0.0058
  186DOPC  H15B22845   0.320   2.766  12.991 -0.8829 -0.0912  0.4019
  186DOPC  H15C22846   0.153   2.778  12.945  0.9163  0.7989 -0.6043
  186DOPC   C1122847   0.176   2.683  13.223  1.2189  1.1430  0.1574
  186DOPC  H11A22848   0.237   2.701  13.314  0.8290  0.5965  0.5295
  186DOPC  H11B22849   0.173   2.778  13.165 -1.0217 -0.1914 -2.1292
  186DOPC     P22850  -0.009   2.557  13.354 -0.6501  0.2395 -0.1483
  186DOPC   O1322851   0.068   2.432  13.339 -0.6114  0.8358  0.0384
  186DOPC   O1422852  -0.151   2.545  13.371 -0.2857 -0.5144  0.1134
  186DOPC   O1222853   0.031   2.656  13.238  0.1654 -0.0551 -0.0172
  186DOPC   O1122854   0.050   2.628  13.483  1.1347  0.1676  0.2530
  186DOPC    C122855   0.014   2.759  13.526 -0.2783  0.9466  0.7288
  186DOPC    HA22856  -0.088   2.784  13.489  0.2970 -0.2826 -1.8987
  186DOPC    HB22857   0.088   2.835  13.492 -0.2746  0.8926  0.6171
  186DOPC    C222858   0.006   2.772  13.679 -0.9675  0.0113  0.0744
  186DOPC    HS22859  -0.027   2.876  13.700 -1.0598 -0.2911  1.5099
  186DOPC   O2122860   0.138   2.754  13.746  0.4671 -0.6679 -1.0007
  186DOPC   C2122861   0.160   2.829  13.857 -1.0325  0.0633  0.2749
  186DOPC   O2222862   0.096   2.922  13.897  0.3906 -0.1794  0.0573
  186DOPC   C2222863   0.289   2.786  13.915  0.2948  0.2374 -0.1786
  186DOPC   H2R22864   0.329   2.847  13.999 -0.2291 -1.1824  1.1471
  186DOPC   H2S22865   0.363   2.797  13.833  2.0727 -3.1245  0.7833
  186DOPC    C322866  -0.098   2.675  13.741  0.1435 -0.0999 -0.0014
  186DOPC    HX22867  -0.057   2.576  13.710  0.1713 -0.7974  2.0881
  186DOPC    HY22868  -0.197   2.688  13.694  0.0167 -0.4528  0.1658
  186DOPC   O3122869  -0.107   2.677  13.887  0.0650  0.3039 -0.0849
  186DOPC   C3122870  -0.212   2.749  13.942 -0.3500 -0.3037 -0.3298
  186DOPC   O3222871  -0.297   2.805  13.883  0.2580  0.0173  1.2648
  186DOPC   C3222872  -0.195   2.754  14.094 -0.1733  0.0922 -0.0925
  186DOPC   H2X22873  -0.147   2.657  14.119 -2.1201 -0.6929  0.7969
  186DOPC   H2Y22874  -0.124   2.839  14.109  0.7056 -0.6298 -0.0686
  186DOPC   C2322875   0.283   2.640  13.961 -0.1277 -0.0291  0.3544
  186DOPC   H3R22876   0.372   2.592  13.915 -1.5432 -1.1599 -1.3421
  186DOPC   H3S22877   0.197   2.588  13.913 -0.5751  1.3413 -0.3767
  186DOPC   C2422878   0.289   2.621  14.115  0.4109  0.6316  0.0792
  186DOPC   H4R22879   0.373   2.676  14.163 -0.5137  0.7157  1.6533
  186DOPC   H4S22880   0.333   2.521  14.136 -0.6125  0.0913 -0.2824
  186DOPC   C2522881   0.156   2.622  14.187  0.7441 -0.1638 -0.2959
  186DOPC   H5R22882   0.122   2.516  14.189 -0.3241  0.1805  0.1769
  186DOPC   H5S22883   0.082   2.667  14.117  0.9044 -0.5329 -0.7128
  186DOPC   C2622884   0.155   2.697  14.314  0.1331  0.6349  0.5793
  186DOPC   H6R22885   0.203   2.797  14.307 -2.2024  1.8171  0.6685
  186DOPC   H6S22886   0.205   2.637  14.393  1.3310  0.2221 -0.4504
  186DOPC   C2722887   0.014   2.719  14.374  0.2342  0.1105 -0.3782
  186DOPC   H7R22888  -0.042   2.624  14.388 -0.0956  0.1245 -1.5604
  186DOPC   H7S22889  -0.048   2.792  14.319  0.1262 -0.0237 -0.4333
  186DOPC   C2822890   0.031   2.785  14.519 -0.4959 -0.2267  0.2168
  186DOPC   H8R22891   0.102   2.867  14.495  0.0781  0.1576  2.9024
  186DOPC   H8S22892   0.068   2.714  14.595 -1.3048 -1.5259 -0.5653
  186DOPC   C2922893  -0.097   2.822  14.570  0.7659  0.1823 -0.1921
  186DOPC   H9R22894  -0.185   2.782  14.518  0.3632 -0.3734  0.8788
  186DOPC  C21022895  -0.115   2.923  14.658 -0.1342  0.0968 -0.2416
  186DOPC  H10R22896  -0.218   2.953  14.682  0.1937  1.0775 -0.0379
  186DOPC  C21122897   0.002   2.996  14.726  0.5408 -0.0928 -0.3795
  186DOPC  H11R22898   0.099   2.942  14.723 -0.2825 -1.7210  0.8597
  186DOPC  H11S22899  -0.023   3.003  14.834 -4.1057 -0.9564 -1.2013
  186DOPC  C21222900   0.033   3.131  14.663 -0.4452 -0.7916  0.4068
  186DOPC  H12R22901   0.100   3.180  14.738 -2.2824  2.8434 -0.1375
  186DOPC  H12S22902  -0.068   3.176  14.660 -1.6437 -3.1830  1.5465
  186DOPC  C21322903   0.087   3.133  14.521  0.4606  0.4825  0.5751
  186DOPC  H13R22904   0.024   3.067  14.457 -0.8536  1.2209  1.0596
  186DOPC  H13S22905   0.197   3.120  14.512  0.2676 -0.1177 -1.3845
  186DOPC  C21422906   0.063   3.266  14.448  0.0452  0.2155  0.5662
  186DOPC  H14R22907   0.112   3.340  14.515  1.6486  0.1198 -0.4730
  186DOPC  H14S22908  -0.043   3.301  14.452  0.7665  2.6212  0.1496
  186DOPC  C21522909   0.121   3.277  14.303 -0.2529 -0.4156  0.3729
  186DOPC  H15R22910   0.068   3.208  14.234  0.6218  0.1200 -0.8666
  186DOPC  H15S22911   0.231   3.263  14.300  0.2239  2.7500 -2.3019
  186DOPC  C21622912   0.110   3.422  14.260  0.0602  0.8462 -0.1392
  186DOPC  H16R22913   0.139   3.476  14.352 -1.5856 -1.2617  1.7256
  186DOPC  H16S22914   0.004   3.446  14.239  0.2922  0.7669 -1.5057
  186DOPC  C21722915   0.191   3.455  14.127 -0.1591 -0.5304  0.6637
  186DOPC  H17R22916   0.155   3.552  14.087 -2.9548 -1.5329  0.5944
  186DOPC  H17S22917   0.149   3.383  14.053  0.4614  0.3411 -0.5848
  186DOPC  C21822918   0.354   3.454  14.126  0.5455  0.1478 -0.3471
  186DOPC  H18R22919   0.378   3.507  14.032 -0.9031 -0.5961 -1.1738
  186DOPC  H18S22920   0.390   3.349  14.126 -0.6429 -0.2790  0.1846
  186DOPC  H18T22921   0.386   3.518  14.211 -3.8720  0.1757  1.5919
  186DOPC   C3322922  -0.325   2.771  14.177  0.0965 -0.6675 -0.7376
  186DOPC   H3X22923  -0.356   2.878  14.171 -1.3757 -0.9785  0.5530
  186DOPC   H3Y22924  -0.300   2.749  14.283  2.4882 -1.7629 -1.4607
  186DOPC   C3422925  -0.442   2.677  14.133 -0.3682 -0.5249  0.0349
  186DOPC   H4X22926  -0.482   2.708  14.033 -0.6487  0.2131  0.3645
  186DOPC   H4Y22927  -0.529   2.686  14.201 -1.4078 -0.5890 -1.2386
  186DOPC   C3522928  -0.405   2.531  14.128  0.1741 -0.5335  0.4004
  186DOPC   H5X22929  -0.382   2.499  14.232 -0.2251 -1.7518  0.1346
  186DOPC   H5Y22930  -0.319   2.506  14.063 -1.2034 -1.7741 -1.0305
  186DOPC   C3622931  -0.528   2.441  14.087 -0.6052  0.3242 -0.0013
  186DOPC   H6X22932  -0.509   2.334  14.108 -1.2309  0.2192  0.0406
  186DOPC   H6Y22933  -0.620   2.466  14.145 -1.9516 -1.4728 -1.2680
  186DOPC   C3722934  -0.567   2.463  13.947 -0.7924  0.5264  0.0599
  186DOPC   H7X22935  -0.611   2.565  13.941 -0.3213  0.7581  0.4494
  186DOPC   H7Y22936  -0.479   2.446  13.882 -1.3540  0.4321 -0.6990
  186DOPC   C3822937  -0.685   2.383  13.897  0.3488 -0.2517 -0.7835
  186DOPC   H8X22938  -0.778   2.419  13.947  0.1408 -1.6851 -0.0808
  186DOPC   H8Y22939  -0.692   2.279  13.934 -1.7638  0.5583  1.3929
  186DOPC   C3922940  -0.685   2.387  13.747 -0.4828  0.2089  0.7588
  186DOPC   H9X22941  -0.608   2.332  13.691 -1.8418  0.2310 -1.2664
  186DOPC  C31022942  -0.777   2.452  13.668  0.1395 -0.5312  0.0128
  186DOPC  H10X22943  -0.760   2.453  13.560  1.2833  1.7128  0.1651
  186DOPC  C31122944  -0.896   2.528  13.723 -0.2786  0.0470  0.5288
  186DOPC  H11X22945  -0.940   2.498  13.820  0.3468  0.2416  0.8776
  186DOPC  H11Y22946  -0.980   2.518  13.651 -1.7734 -0.4160  2.2661
  186DOPC  C31222947  -0.857   2.679  13.740 -0.1416  0.1608  0.7170
  186DOPC  H12X22948  -0.793   2.707  13.654  0.3003 -1.5659  0.4486
  186DOPC  H12Y22949  -0.786   2.689  13.825  0.8514 -0.7231  0.0183
  186DOPC  C31322950  -0.986   2.766  13.749  0.2096 -0.0878  0.3207
  186DOPC  H13X22951  -1.043   2.781  13.654  1.1041 -0.3538 -0.2767
  186DOPC  H13Y22952  -1.043   2.727  13.836 -0.9925  1.2022  0.1475
  186DOPC  C31422953  -0.973   2.913  13.792  0.1739  0.7106 -0.5711
  186DOPC  H14X22954  -0.904   2.931  13.877 -0.0647  1.1416 -0.4670
  186DOPC  H14Y22955  -0.929   2.966  13.704  0.6946  2.1389  0.4999
  186DOPC  C31522956  -1.111   2.970  13.826 -0.2738 -0.5925 -0.4799
  186DOPC  H15X22957  -1.094   3.055  13.896 -2.3425  0.1664 -0.8108
  186DOPC  H15Y22958  -1.183   2.898  13.871 -0.6976 -1.7477 -2.8607
  186DOPC  C31622959  -1.178   3.015  13.702  0.7980 -0.4998 -0.6646
  186DOPC  H16X22960  -1.112   3.074  13.635 -0.0220  0.7103 -0.4435
  186DOPC  H16Y22961  -1.219   2.924  13.653 -1.7169  0.3816 -0.3325
  186DOPC  C31722962  -1.302   3.106  13.732 -0.0953 -0.1547 -0.8299
  186DOPC  H17X22963  -1.355   3.064  13.820  1.0076  2.5797  1.2986
  186DOPC  H17Y22964  -1.275   3.206  13.772 -0.2854 -1.3626  2.7454
  186DOPC  C31822965  -1.394   3.111  13.621 -0.6797 -0.0906  1.5444
  186DOPC  H18X22966  -1.470   3.192  13.632 -0.4763  0.2683  0.4639
  186DOPC  H18Y22967  -1.340   3.130  13.525  0.2378 -0.4654  1.9744
  186DOPC  H18Z22968  -1.438   3.010  13.615  1.0230 -0.8492  1.1598
  187DOPC     N22969   6.107   1.744  12.836 -0.3061  0.0918  0.4498
  187DOPC   C1222970   6.190   1.680  12.947  0.3940  0.2241 -0.0606
  187DOPC  H12A22971   6.163   1.708  13.047  0.4901 -0.5519  0.1884
  187DOPC  H12B22972   6.292   1.707  12.926  0.6614 -0.8585 -0.2276
  187DOPC   C1322973   6.107   1.893  12.842 -0.2747  0.4101 -0.2356
  187DOPC  H13A22974   6.054   1.937  12.925  1.3654  2.4182 -0.1452
  187DOPC  H13B22975   6.209   1.929  12.839  0.7719 -1.9938  2.1120
  187DOPC  H13C22976   6.054   1.934  12.757  0.4027 -0.1189 -0.9297
  187DOPC   C1422977   5.960   1.703  12.830  0.4079  0.2579 -0.2562
  187DOPC  H14A22978   5.916   1.748  12.742  0.1278 -2.3857 -1.5724
  187DOPC  H14B22979   5.949   1.596  12.820 -0.0011 -0.0117  2.3854
  187DOPC  H14C22980   5.909   1.738  12.919 -2.1645  0.0059 -1.5302
  187DOPC   C1522981   6.166   1.717  12.705  0.1299 -0.3675 -0.1323
  187DOPC  H15A22982   6.274   1.719  12.698  0.0793 -0.0420 -1.0050
  187DOPC  H15B22983   6.129   1.785  12.630 -0.3332 -2.0462 -1.4933
  187DOPC  H15C22984   6.147   1.619  12.662  0.5127 -1.8948  2.9433
  187DOPC   C1122985   6.196   1.519  12.939 -0.0812  0.0982 -0.3807
  187DOPC  H11A22986   6.237   1.480  13.035 -0.3204  2.0019  0.5546
  187DOPC  H11B22987   6.090   1.485  12.937  0.1519 -0.7176  0.3622
  187DOPC     P22988   6.396   1.436  12.809 -0.6865  0.2711 -0.1223
  187DOPC   O1322989   6.473   1.563  12.818 -0.3828  0.2253  0.3992
  187DOPC   O1422990   6.414   1.348  12.695  0.2395  0.0790  0.5725
  187DOPC   O1222991   6.252   1.470  12.823  0.3190 -0.7702  0.3811
  187DOPC   O1122992   6.433   1.359  12.946  0.8976  0.1499  0.7729
  187DOPC    C122993   6.368   1.238  12.979  0.0761 -0.1877 -0.1254
  187DOPC    HA22994   6.392   1.166  12.898  3.2433  1.1488 -0.4941
  187DOPC    HB22995   6.257   1.249  12.983  0.0319  0.0049  5.0609
  187DOPC    C222996   6.412   1.170  13.116  0.2667 -0.3333  0.0837
  187DOPC    HS22997   6.346   1.083  13.136  0.5337 -0.7382 -0.7357
  187DOPC   O2122998   6.406   1.264  13.225  0.2782 -0.2489  0.2226
  187DOPC   C2122999   6.282   1.273  13.272  0.0012  0.0802 -0.3603
  187DOPC   O2223000   6.182   1.221  13.227 -0.0447 -0.0327 -0.1235
  187DOPC   C2223001   6.273   1.380  13.379  0.1433  0.1524 -0.4399
  187DOPC   H2R23002   6.300   1.473  13.325  0.2713 -0.9526 -2.3670
  187DOPC   H2S23003   6.348   1.354  13.456 -0.8272  0.1107  0.5105
  187DOPC    C323004   6.554   1.108  13.113  0.8367  0.1564 -0.6132
  187DOPC    HX23005   6.618   1.199  13.118  0.8323  0.1818 -0.9723
  187DOPC    HY23006   6.569   1.066  13.011  0.3451  0.2510 -0.7300
  187DOPC   O3123007   6.591   1.028  13.226  0.3334 -0.2052 -0.4151
  187DOPC   C3123008   6.693   0.951  13.203 -0.5317  0.1942 -0.4754
  187DOPC   O3223009   6.761   0.954  13.101 -0.6448  0.2644  0.4866
  187DOPC   C3223010   6.720   0.851  13.322 -0.1455 -0.5775  0.7387
  187DOPC   H2X23011   6.807   0.898  13.372 -0.2975  0.2246  0.2634
  187DOPC   H2Y23012   6.643   0.841  13.401  0.8034 -0.5112  1.6852
  187DOPC   C2323013   6.128   1.393  13.425  0.2555  0.8296 -0.3721
  187DOPC   H3R23014   6.059   1.401  13.338  2.8835 -2.0665 -2.9832
  187DOPC   H3S23015   6.118   1.486  13.484 -0.8097  0.6968 -0.3224
  187DOPC   C2423016   6.079   1.281  13.529  0.5397  0.1965  1.2169
  187DOPC   H4R23017   6.087   1.178  13.489 -0.0265 -0.0548  1.7466
  187DOPC   H4S23018   5.972   1.307  13.545 -0.3790 -1.7891 -1.0095
  187DOPC   C2523019   6.145   1.286  13.667  0.3938 -0.1019 -0.1428
  187DOPC   H5R23020   6.145   1.390  13.708 -0.6818 -0.5755  1.1165
  187DOPC   H5S23021   6.252   1.257  13.659  0.7795  1.3731 -0.9198
  187DOPC   C2623022   6.085   1.203  13.774 -0.3460 -0.2952 -0.2580
  187DOPC   H6R23023   6.102   1.094  13.761  0.9989 -0.3642  1.7652
  187DOPC   H6S23024   5.975   1.219  13.777 -0.6074 -1.9123 -0.0697
  187DOPC   C2723025   6.142   1.234  13.918  1.0101 -0.4595  1.0574
  187DOPC   H7R23026   6.120   1.339  13.945 -0.2255 -0.3977 -0.0709
  187DOPC   H7S23027   6.253   1.232  13.915  1.0593  0.8103  1.5931
  187DOPC   C2823028   6.089   1.136  14.028 -0.0739 -0.3816 -0.4504
  187DOPC   H8R23029   6.128   1.034  14.012  0.7056 -0.3637  1.1498
  187DOPC   H8S23030   5.978   1.145  14.027 -0.0695  0.0056  0.9112
  187DOPC   C2923031   6.128   1.203  14.159 -0.8726 -0.0096  0.1768
  187DOPC   H9R23032   6.068   1.282  14.205  1.5857  0.9420  1.9910
  187DOPC  C21023033   6.241   1.170  14.228  0.3339  0.0302 -0.1396
  187DOPC  H10R23034   6.263   1.234  14.315  0.1516  1.6223 -1.2161
  187DOPC  C21123035   6.344   1.059  14.201 -0.2629 -0.5286 -0.2147
  187DOPC  H11R23036   6.368   1.070  14.093 -2.8713  2.0967 -0.6597
  187DOPC  H11S23037   6.291   0.963  14.215 -0.4056 -0.7365 -1.9582
  187DOPC  C21223038   6.467   1.075  14.290 -0.3367  0.1576  0.0336
  187DOPC  H12R23039   6.435   1.095  14.394 -1.5092 -0.5744 -0.1613
  187DOPC  H12S23040   6.518   1.165  14.252 -3.1119  1.5810 -0.5658
  187DOPC  C21323041   6.566   0.952  14.275  0.0983 -0.2435 -0.4958
  187DOPC  H13R23042   6.590   0.931  14.168  1.1629 -1.2897 -0.0708
  187DOPC  H13S23043   6.509   0.869  14.321  1.1034  0.7835  2.9336
  187DOPC  C21423044   6.687   0.971  14.368 -0.4614  0.6618 -0.0648
  187DOPC  H14R23045   6.649   0.984  14.471  2.1313  3.5659  0.6757
  187DOPC  H14S23046   6.740   1.062  14.331  0.8667 -0.3809 -0.8053
  187DOPC  C21523047   6.773   0.845  14.365  0.8517 -0.7970 -0.0232
  187DOPC  H15R23048   6.824   0.836  14.267  0.0628 -0.1087 -0.5185
  187DOPC  H15S23049   6.720   0.748  14.374 -0.3528 -0.3442 -1.6785
  187DOPC  C21623050   6.891   0.860  14.460  0.3246 -0.5153 -0.0067
  187DOPC  H16R23051   6.855   0.861  14.566 -0.2812 -0.0214 -0.2139
  187DOPC  H16S23052   6.933   0.959  14.433 -1.8557  0.0939 -1.3799
  187DOPC  C21723053   7.000   0.768  14.435  0.1115  0.3341 -0.1802
  187DOPC  H17R23054   7.090   0.812  14.485 -0.2738 -0.9599  1.7884
  187DOPC  H17S23055   7.014   0.775  14.325 -0.8727 -0.4721 -0.3747
  187DOPC  C21823056   6.966   0.629  14.487 -0.8300  0.0934  0.4373
  187DOPC  H18R23057   6.913   0.578  14.403  0.2710  0.6023 -0.6083
  187DOPC  H18S23058   6.899   0.626  14.575 -0.8097 -2.1873  0.4365
  187DOPC  H18T23059   7.054   0.570  14.520 -0.1351  1.0346  0.3311
  187DOPC   C3323060   6.753   0.706  13.278  0.6468  0.1832  0.6992
  187DOPC   H3X23061   6.835   0.703  13.203 -0.8338  2.4948 -1.1525
  187DOPC   H3Y23062   6.658   0.663  13.239 -0.0482 -0.1133  2.5742
  187DOPC   C3423063   6.809   0.639  13.396  0.7248  0.1489 -0.2682
  187DOPC   H4X23064   6.895   0.702  13.426 -0.0028  1.2577 -0.4249
  187DOPC   H4Y23065   6.858   0.541  13.380  0.1280 -0.5061  1.6784
  187DOPC   C3523066   6.717   0.621  13.520  0.1787  0.3436  0.4472
  187DOPC   H5X23067   6.691   0.720  13.562  0.1991 -0.4943  2.5511
  187DOPC   H5Y23068   6.781   0.561  13.589  0.7194  0.7032  0.2676
  187DOPC   C3623069   6.598   0.527  13.500 -0.6013  0.0878  0.0942
  187DOPC   H6X23070   6.548   0.495  13.594 -3.3468 -1.3013 -1.7326
  187DOPC   H6Y23071   6.530   0.577  13.428 -0.6015 -0.5434 -0.3442
  187DOPC   C3723072   6.637   0.394  13.431  0.6053  0.0676  0.6504
  187DOPC   H7X23073   6.687   0.420  13.335  1.2040 -0.2614  0.8625
  187DOPC   H7Y23074   6.719   0.348  13.490  1.2308 -0.3977 -0.5490
  187DOPC   C3823075   6.526   0.298  13.401  0.2338  0.5269 -0.0266
  187DOPC   H8X23076   6.458   0.345  13.326 -0.1475  0.6632  0.3985
  187DOPC   H8Y23077   6.465   0.295  13.494 -1.1739  1.6517 -0.8615
  187DOPC   C3923078   6.567   0.166  13.359 -0.3644  0.6994  0.4973
  187DOPC   H9X23079   6.643   0.156  13.280  1.0312 -1.6858  2.0126
  187DOPC  C31023080   6.519   0.053  13.401 -0.2085  0.1194 -1.2604
  187DOPC  H10X23081   6.541  -0.045  13.356 -0.7962 -0.6906  0.1330
  187DOPC  C31123082   6.418   0.029  13.517 -0.3394  0.0736  0.2233
  187DOPC  H11X23083   6.362  -0.062  13.486  0.6942  0.0088 -1.6361
  187DOPC  H11Y23084   6.339   0.106  13.524 -0.1604  0.2501  0.2935
  187DOPC  C31223085   6.489   0.028  13.653 -0.4084 -0.2209  0.1487
  187DOPC  H12X23086   6.415   0.041  13.735 -0.8438  0.4871 -0.3481
  187DOPC  H12Y23087   6.560   0.113  13.649 -4.0353  3.0845 -0.5156
  187DOPC  C31323088   6.557  -0.103  13.693  0.0125 -0.0761  0.2750
  187DOPC  H13X23089   6.485  -0.183  13.720 -0.4965  0.9430  2.0346
  187DOPC  H13Y23090   6.628  -0.114  13.608  0.7783  2.6105  0.4864
  187DOPC  C31423091   6.635  -0.079  13.822  0.2949 -0.1024  0.0803
  187DOPC  H14X23092   6.681   0.022  13.820 -0.0233  0.0642  0.8019
  187DOPC  H14Y23093   6.566  -0.078  13.910  0.3832  0.2987  0.1462
  187DOPC  C31523094   6.741  -0.182  13.855  0.4023 -0.3479 -0.5809
  187DOPC  H15X23095   6.829  -0.182  13.787  1.0225 -1.1951  0.2010
  187DOPC  H15Y23096   6.694  -0.282  13.854 -0.8571  0.1468  1.6309
  187DOPC  C31623097   6.787  -0.158  14.003  0.4810 -0.2933  0.5130
  187DOPC  H16X23098   6.869  -0.083  14.004  1.3409 -1.2051  0.3523
  187DOPC  H16Y23099   6.701  -0.130  14.067  0.4753  0.2651  0.2645
  187DOPC  C31723100   6.843  -0.291  14.074  0.9942  0.0066 -0.7038
  187DOPC  H17X23101   6.861  -0.271  14.182  1.3646  0.4897 -0.8505
  187DOPC  H17Y23102   6.751  -0.353  14.077 -0.9841  2.7367 -1.1454
  187DOPC  C31823103   6.956  -0.363  14.002 -0.3477 -0.2553 -1.1283
  187DOPC  H18X23104   6.968  -0.466  14.040  0.3505 -0.0441 -0.7674
  187DOPC  H18Y23105   6.948  -0.351  13.891 -1.4009 -0.0731 -1.0413
  187DOPC  H18Z23106   7.049  -0.307  14.023  0.8318 -2.1501 -1.0655
  188DOPC     N23107   1.118   1.623  13.036 -0.1374 -0.1971  0.1289
  188DOPC   C1223108   1.084   1.484  13.075 -0.1021 -0.0772 -0.4941
  188DOPC  H12A23109   1.168   1.416  13.069 -0.5561 -0.6370 -0.6997
  188DOPC  H12B23110   1.022   1.441  12.997  0.3204  0.1184 -0.9387
  188DOPC   C1323111   1.187   1.688  13.153 -0.3471  0.2412  0.2965
  188DOPC  H13A23112   1.205   1.790  13.123 -0.5043 -0.5826 -3.1272
  188DOPC  H13B23113   1.125   1.691  13.241 -0.8779  2.6028 -0.0675
  188DOPC  H13C23114   1.287   1.653  13.172 -0.4667  0.7821  2.1114
  188DOPC   C1423115   0.996   1.697  12.997 -0.5493  0.1876  0.5666
  188DOPC  H14A23116   0.973   1.673  12.894  0.5426 -2.7712  0.9319
  188DOPC  H14B23117   0.909   1.672  13.056 -0.4465 -4.2242 -0.7963
  188DOPC  H14C23118   1.012   1.804  12.999  0.0921  0.0935  0.5767
  188DOPC   C1523119   1.212   1.625  12.919 -0.0966 -0.2777 -0.7211
  188DOPC  H15A23120   1.288   1.549  12.934  0.8042  0.9623  1.6664
  188DOPC  H15B23121   1.271   1.715  12.910  0.8644 -0.5859  1.6426
  188DOPC  H15C23122   1.159   1.624  12.826 -0.1677  1.3576 -0.7270
  188DOPC   C1123123   1.007   1.467  13.210  0.2280  0.3970 -0.6831
  188DOPC  H11A23124   0.995   1.359  13.234  0.3984  0.1277 -1.7698
  188DOPC  H11B23125   1.063   1.510  13.296  0.4817 -0.2164 -0.5286
  188DOPC     P23126   0.810   1.593  13.316 -0.2729 -0.1191 -0.0204
  188DOPC   O1323127   0.674   1.627  13.275  0.0386  0.5385  0.1605
  188DOPC   O1423128   0.902   1.696  13.369 -0.5382 -0.6221 -0.0467
  188DOPC   O1223129   0.876   1.516  13.199  0.4413 -0.1383  0.1152
  188DOPC   O1123130   0.807   1.474  13.426 -0.1732  0.0021  0.4047
  188DOPC    C123131   0.736   1.355  13.395  0.2574 -0.3542 -0.1742
  188DOPC    HA23132   0.792   1.297  13.319  2.4610 -0.1458  1.1924
  188DOPC    HB23133   0.634   1.376  13.357  0.1393  0.4780  0.5600
  188DOPC    C223134   0.712   1.277  13.523 -0.0698  0.3316  0.2633
  188DOPC    HS23135   0.665   1.179  13.505  0.7931  0.3779 -2.6589
  188DOPC   O2123136   0.631   1.343  13.619  0.1335  0.6118  0.5978
  188DOPC   C2123137   0.506   1.373  13.591  0.1712  0.7421  0.1356
  188DOPC   O2223138   0.445   1.326  13.496  0.1810 -0.0107  0.5582
  188DOPC   C2223139   0.443   1.446  13.708  1.0608  0.0088  0.2844
  188DOPC   H2R23140   0.339   1.474  13.679  1.0450 -0.6235 -0.2786
  188DOPC   H2S23141   0.497   1.543  13.715  0.1611  0.7251 -1.7953
  188DOPC    C323142   0.858   1.252  13.577 -0.6442 -0.3563 -0.0100
  188DOPC    HX23143   0.887   1.352  13.616 -0.6060 -0.7822  1.0852
  188DOPC    HY23144   0.912   1.228  13.483 -1.7688  1.0478 -1.0431
  188DOPC   O3123145   0.865   1.149  13.681  0.8686 -0.4289  0.4985
  188DOPC   C3123146   0.987   1.092  13.695  0.1432 -0.1723 -0.1011
  188DOPC   O3223147   1.090   1.110  13.632  0.0001 -0.1059 -0.1645
  188DOPC   C3223148   0.977   0.988  13.813  0.5845  0.0225 -0.2446
  188DOPC   H2X23149   1.052   1.025  13.886 -0.6251  2.3951 -0.0984
  188DOPC   H2Y23150   0.877   0.986  13.860  0.1009  0.0481 -1.2408
  188DOPC   C2323151   0.439   1.368  13.846 -0.9107  0.5569 -0.0469
  188DOPC   H3R23152   0.532   1.399  13.898  0.7442 -1.8453 -1.3785
  188DOPC   H3S23153   0.437   1.260  13.823  0.7685  0.7222 -1.0879
  188DOPC   C2423154   0.314   1.405  13.933  0.0273 -0.2072 -0.2424
  188DOPC   H4R23155   0.223   1.395  13.870 -0.1490 -3.2138  0.3107
  188DOPC   H4S23156   0.324   1.512  13.960 -2.3804 -0.1971  0.8020
  188DOPC   C2523157   0.307   1.320  14.060 -0.3905 -0.0802 -1.0037
  188DOPC   H5R23158   0.308   1.213  14.032 -1.3048 -0.4709  0.3541
  188DOPC   H5S23159   0.206   1.335  14.103  0.0905 -0.7711  0.4350
  188DOPC   C2623160   0.414   1.338  14.160 -0.7052  0.0581 -0.3981
  188DOPC   H6R23161   0.425   1.443  14.194 -0.6158  0.5255 -1.8289
  188DOPC   H6S23162   0.514   1.303  14.125 -1.3893 -1.6599 -0.7381
  188DOPC   C2723163   0.395   1.250  14.281  0.2602  0.5903 -0.2953
  188DOPC   H7R23164   0.386   1.143  14.254 -1.2708  0.1434  1.6932
  188DOPC   H7S23165   0.298   1.279  14.327 -0.3846 -1.4059 -0.2961
  188DOPC   C2823166   0.497   1.263  14.389 -0.0281  0.0510 -0.4750
  188DOPC   H8R23167   0.486   1.343  14.465 -0.2713  0.3653 -0.8394
  188DOPC   H8S23168   0.593   1.281  14.336  0.2874 -1.8837 -0.6354
  188DOPC   C2923169   0.503   1.139  14.478  0.0304  0.0273 -0.3013
  188DOPC   H9R23170   0.421   1.065  14.471 -0.4745  0.3852  1.4052
  188DOPC  C21023171   0.595   1.101  14.569 -0.4933 -0.3075 -0.0417
  188DOPC  H10R23172   0.589   1.008  14.627 -1.3888  0.2515  0.8003
  188DOPC  C21123173   0.724   1.188  14.588 -0.5096  0.8040 -0.4875
  188DOPC  H11R23174   0.734   1.224  14.693 -2.3009  0.7441 -0.2671
  188DOPC  H11S23175   0.729   1.281  14.526 -1.1882  0.9334 -0.3544
  188DOPC  C21223176   0.855   1.107  14.564  0.6830 -0.1196  0.3000
  188DOPC  H12R23177   0.848   1.068  14.460 -0.6744  1.5598 -0.3056
  188DOPC  H12S23178   0.849   1.011  14.620 -0.4351 -0.2396  0.0069
  188DOPC  C21323179   0.979   1.195  14.588 -0.2403  0.1579 -0.6880
  188DOPC  H13R23180   0.989   1.228  14.694 -0.1329 -0.6222 -0.4546
  188DOPC  H13S23181   0.973   1.286  14.524  0.0684  1.3106  0.8487
  188DOPC  C21423182   1.112   1.125  14.554  0.0969 -0.2573 -0.9305
  188DOPC  H14R23183   1.115   1.108  14.445  5.1834 -3.4303 -0.6383
  188DOPC  H14S23184   1.117   1.027  14.606 -1.5419 -0.1197 -0.4670
  188DOPC  C21523185   1.248   1.187  14.584 -0.4622  0.6358 -0.4727
  188DOPC  H15R23186   1.257   1.192  14.695 -2.5854 -0.9808 -0.1570
  188DOPC  H15S23187   1.254   1.291  14.547 -0.0562 -0.1387 -2.7207
  188DOPC  C21623188   1.366   1.098  14.532  0.3759 -0.4409  0.7145
  188DOPC  H16R23189   1.353   1.081  14.423  0.3168 -0.0658  0.6616
  188DOPC  H16S23190   1.365   0.997  14.578  0.2467 -1.3335 -1.1472
  188DOPC  C21723191   1.499   1.172  14.559  0.1342  0.4683  0.2253
  188DOPC  H17R23192   1.504   1.174  14.670 -0.9700  0.2191  0.2890
  188DOPC  H17S23193   1.511   1.274  14.517  0.3280 -0.3795 -1.8965
  188DOPC  C21823194   1.615   1.087  14.502  0.7763 -0.3450  0.5141
  188DOPC  H18R23195   1.621   0.989  14.554 -1.2325 -0.3786  0.7486
  188DOPC  H18S23196   1.713   1.139  14.507  1.2287 -1.3070  2.9347
  188DOPC  H18T23197   1.582   1.064  14.398  0.8550 -0.7719  0.5784
  188DOPC   C3323198   0.993   0.846  13.767 -0.4294 -0.1838  0.5809
  188DOPC   H3X23199   1.085   0.829  13.706 -0.3033 -2.3850  1.2749
  188DOPC   H3Y23200   0.904   0.815  13.708  0.6180 -2.7916  0.2299
  188DOPC   C3423201   1.015   0.739  13.881 -0.1993 -0.7287  0.4431
  188DOPC   H4X23202   0.930   0.745  13.954  0.5453 -0.0224  1.2787
  188DOPC   H4Y23203   1.104   0.769  13.939 -0.8619  1.8432  0.2724
  188DOPC   C3523204   1.026   0.595  13.826  0.3961  0.2666  0.3437
  188DOPC   H5X23205   1.108   0.600  13.752 -2.2841 -1.7145 -3.0750
  188DOPC   H5Y23206   0.926   0.572  13.782  0.0154  2.3285  0.0226
  188DOPC   C3623207   1.050   0.493  13.940 -1.2730 -0.3418  0.0680
  188DOPC   H6X23208   1.073   0.392  13.900 -2.4282 -1.2541  1.5992
  188DOPC   H6Y23209   1.144   0.531  13.986  0.1126  0.1721 -2.9263
  188DOPC   C3723210   0.945   0.488  14.052  0.3371  0.6045 -0.5062
  188DOPC   H7X23211   0.929   0.588  14.097 -0.7331  0.7339 -1.1528
  188DOPC   H7Y23212   0.850   0.463  14.001 -1.8612  4.6351  1.1707
  188DOPC   C3823213   0.981   0.401  14.174  0.2392 -0.3206 -0.3828
  188DOPC   H8X23214   1.088   0.404  14.202 -0.3501 -0.4752  2.0810
  188DOPC   H8Y23215   0.951   0.297  14.148  0.8830 -0.5907 -0.0623
  188DOPC   C3923216   0.912   0.432  14.302  0.4459  0.5429 -0.6717
  188DOPC   H9X23217   0.846   0.518  14.285  0.1515 -0.0034 -2.4105
  188DOPC  C31023218   0.926   0.367  14.421  0.4219  0.5133 -0.4418
  188DOPC  H10X23219   0.880   0.415  14.509 -0.4580  1.5247 -1.4228
  188DOPC  C31123220   1.018   0.259  14.453 -0.6055  0.1521  0.2999
  188DOPC  H11X23221   1.101   0.248  14.381 -0.1960  0.6615  0.6901
  188DOPC  H11Y23222   0.963   0.163  14.445 -1.2473  0.5298  0.0253
  188DOPC  C31223223   1.072   0.261  14.601  0.1182  0.8933 -0.2042
  188DOPC  H12X23224   0.984   0.258  14.669  0.9116 -1.4140  0.8128
  188DOPC  H12Y23225   1.126   0.357  14.616  1.4118  0.0822  0.5573
  188DOPC  C31323226   1.165   0.141  14.631  0.4318 -0.6268 -0.2245
  188DOPC  H13X23227   1.135   0.038  14.603  2.2224 -1.6254  1.2958
  188DOPC  H13Y23228   1.260   0.161  14.577  0.3065 -0.5458 -0.4151
  188DOPC  C31423229   1.196   0.131  14.781  0.8407 -0.3590 -0.1571
  188DOPC  H14X23230   1.100   0.159  14.831  0.8488  0.9474 -0.8296
  188DOPC  H14Y23231   1.221   0.031  14.823 -0.7556 -0.6974  0.0634
  188DOPC  C31523232   1.298   0.232  14.831 -0.7436  0.1144 -0.2703
  188DOPC  H15X23233   1.278   0.334  14.793  2.3165  0.2338 -1.8166
  188DOPC  H15Y23234   1.401   0.198  14.804 -1.7148 -1.2019 -2.6312
  188DOPC  C31623235   1.288   0.233  14.987 -0.4916 -0.6225  0.3253
  188DOPC  H16X23236   1.187   0.270  15.013  0.2278  1.1966  0.6209
  188DOPC  H16Y23237   1.308   0.131  15.027  2.1622  0.0819  1.0037
  188DOPC  C31723238   1.387   0.330  15.053 -0.1061 -0.2188 -0.0610
  188DOPC  H17X23239   1.489   0.291  15.031  0.3422  0.9295 -0.0958
  188DOPC  H17Y23240   1.387   0.438  15.026  0.1651  0.3938  2.2238
  188DOPC  C31823241   1.377   0.324  15.211  0.0529  0.2137 -0.3082
  188DOPC  H18X23242   1.364   0.221  15.249 -1.2310  0.8137  0.9520
  188DOPC  H18Y23243   1.460   0.377  15.262 -0.8167  0.9659  0.3651
  188DOPC  H18Z23244   1.282   0.369  15.247  0.4698 -0.9498  2.5285
  189DOPC     N23245   3.502   8.733  13.344 -0.1930 -0.0090 -0.2085
  189DOPC   C1223246   3.544   8.872  13.306 -0.6063 -0.5564 -0.0026
  189DOPC  H12A23247   3.513   8.923  13.396  0.8323 -0.0817  0.2391
  189DOPC  H12B23248   3.479   8.908  13.226 -0.1420 -1.9007 -1.0251
  189DOPC   C1323249   3.389   8.731  13.450  0.0278 -0.5407  0.9223
  189DOPC  H13A23250   3.424   8.766  13.546 -2.3914 -0.4479  1.8375
  189DOPC  H13B23251   3.310   8.793  13.409  0.4719  0.2346  1.2232
  189DOPC  H13C23252   3.353   8.631  13.467 -1.4921  0.2614  2.7913
  189DOPC   C1423253   3.610   8.665  13.421  0.3233  0.4732  0.3708
  189DOPC  H14A23254   3.580   8.573  13.468  1.6534  0.1918  0.7105
  189DOPC  H14B23255   3.692   8.633  13.358 -0.6160 -0.6217 -0.3296
  189DOPC  H14C23256   3.642   8.733  13.499 -1.4175  2.5112 -0.5695
  189DOPC   C1523257   3.474   8.656  13.220 -0.3658 -0.3437  0.5717
  189DOPC  H15A23258   3.538   8.691  13.141 -1.0579  1.4071  0.7388
  189DOPC  H15B23259   3.369   8.667  13.193 -0.6215  0.1262  1.7052
  189DOPC  H15C23260   3.483   8.550  13.236 -0.5605 -0.2441  1.3843
  189DOPC   C1123261   3.687   8.903  13.252  0.4074 -0.3290 -0.3542
  189DOPC  H11A23262   3.708   9.011  13.241  0.9594 -0.3821  0.1377
  189DOPC  H11B23263   3.755   8.878  13.336 -1.7095  1.4127  2.0516
  189DOPC     P23264   3.717   8.881  12.986 -0.1340  0.0936  0.1242
  189DOPC   O1323265   3.586   8.937  12.952  0.3463  0.4396  0.0344
  189DOPC   O1423266   3.753   8.766  12.893 -0.5531  0.0743 -0.3742
  189DOPC   O1223267   3.713   8.824  13.129  0.0468  0.2451  0.0722
  189DOPC   O1123268   3.832   8.988  12.993  0.1112  0.2710  0.3255
  189DOPC    C123269   3.966   8.942  12.992  0.7323 -0.2128  0.6611
  189DOPC    HA23270   4.010   8.999  12.908 -2.6792  0.0682 -1.1092
  189DOPC    HB23271   3.985   8.835  12.967  0.6397 -0.5950  2.0869
  189DOPC    C223272   4.044   8.972  13.127 -0.2220  0.6566 -1.0433
  189DOPC    HS23273   4.010   8.894  13.198  0.5004  0.2370 -1.1417
  189DOPC   O2123274   4.016   9.109  13.158 -0.0417 -0.4166  0.4004
  189DOPC   C2123275   3.993   9.138  13.287  0.4520  0.0562  0.4570
  189DOPC   O2223276   4.020   9.060  13.375  0.4808 -0.1755  0.0564
  189DOPC   C2223277   3.964   9.289  13.303 -0.3107 -0.0426  0.4663
  189DOPC   H2R23278   3.857   9.300  13.275  0.0752  0.0659 -1.0387
  189DOPC   H2S23279   4.013   9.342  13.218 -0.2163 -0.7352  0.0816
  189DOPC    C323280   4.200   8.968  13.107 -0.8299  0.0340  0.2014
  189DOPC    HX23281   4.228   9.037  13.024  1.2593 -1.0159 -0.0207
  189DOPC    HY23282   4.221   8.868  13.064 -1.3730 -0.1436  0.3511
  189DOPC   O3123283   4.283   8.997  13.223 -0.3001 -0.3511 -0.0857
  189DOPC   C3123284   4.283   8.904  13.315  0.1521  0.5559 -0.4791
  189DOPC   O3223285   4.252   8.789  13.299 -0.2998  0.0521  0.2860
  189DOPC   C3223286   4.338   8.958  13.452 -0.6088 -0.2393  0.4082
  189DOPC   H2X23287   4.448   8.967  13.436 -0.3251 -2.1266  1.1231
  189DOPC   H2Y23288   4.302   9.062  13.469  1.6358  0.3521  1.9616
  189DOPC   C2323289   3.981   9.344  13.444 -0.2385  0.4233 -0.1705
  189DOPC   H3R23290   3.928   9.268  13.506  1.4420  1.2648  2.4465
  189DOPC   H3S23291   3.942   9.447  13.456  1.2958  1.0945 -0.6315
  189DOPC   C2423292   4.127   9.350  13.492 -0.6640 -0.1918 -0.4558
  189DOPC   H4R23293   4.179   9.435  13.443 -1.6556  1.0864  0.6401
  189DOPC   H4S23294   4.186   9.255  13.487  0.3696  0.3755  0.5912
  189DOPC   C2523295   4.135   9.388  13.641  0.1432  0.2024 -0.4394
  189DOPC   H5R23296   4.223   9.341  13.690 -0.2493 -0.7282 -0.6042
  189DOPC   H5S23297   4.046   9.348  13.694  1.2354 -0.9043  0.6133
  189DOPC   C2623298   4.145   9.542  13.667  0.0532  0.1624 -0.0313
  189DOPC   H6R23299   4.059   9.590  13.616 -0.2146  0.2533  0.5048
  189DOPC   H6S23300   4.245   9.577  13.634  0.4416 -0.5200  0.3980
  189DOPC   C2723301   4.128   9.565  13.812  0.1473 -0.2532  0.1377
  189DOPC   H7R23302   4.216   9.529  13.869  0.1031 -0.3338  0.1559
  189DOPC   H7S23303   4.042   9.506  13.849 -0.2972  1.3539  1.8130
  189DOPC   C2823304   4.079   9.713  13.842 -0.1837 -0.2944 -0.4981
  189DOPC   H8R23305   4.053   9.717  13.950 -1.6431  0.4998 -0.8509
  189DOPC   H8S23306   3.980   9.725  13.793 -0.9291 -0.2163  0.9731
  189DOPC   C2923307   4.180   9.822  13.798  0.7355 -0.1565 -0.0711
  189DOPC   H9R23308   4.205   9.813  13.691 -1.5020 -0.3944 -0.6327
  189DOPC  C21023309   4.238   9.918  13.883  0.1171 -0.1354  0.9435
  189DOPC  H10R23310   4.298   9.994  13.831 -0.1063 -0.3563  0.3472
  189DOPC  C21123311   4.203   9.937  14.027 -0.7886 -0.4526  0.0555
  189DOPC  H11R23312   4.288   9.895  14.085 -0.1015 -0.9731 -1.2803
  189DOPC  H11S23313   4.117   9.876  14.061 -0.3025 -1.7854 -1.0003
  189DOPC  C21223314   4.172  10.084  14.055  0.9136 -0.2909 -0.1207
  189DOPC  H12R23315   4.093  10.132  13.994  1.2289 -1.3652 -1.4270
  189DOPC  H12S23316   4.265  10.144  14.052  2.3112 -2.0828  2.6058
  189DOPC  C21323317   4.118  10.086  14.202 -0.4272 -1.2175  0.4121
  189DOPC  H13R23318   4.147  10.182  14.250  0.5375 -0.7929 -0.9256
  189DOPC  H13S23319   4.162  10.002  14.259 -0.9007 -0.6365  1.6640
  189DOPC  C21423320   3.965  10.070  14.217  0.1533  1.2109 -0.2234
  189DOPC  H14R23321   3.937   9.973  14.171 -0.2296  1.5577 -0.7372
  189DOPC  H14S23322   3.914  10.133  14.140  0.0193  0.2003 -0.9778
  189DOPC  C21523323   3.922  10.089  14.358  0.3468  0.3036 -0.1090
  189DOPC  H15R23324   4.009  10.067  14.424  1.2615 -0.3431 -1.4893
  189DOPC  H15S23325   3.837  10.021  14.379  0.3313  0.4035  0.1539
  189DOPC  C21623326   3.887  10.239  14.391 -0.1656  0.0085 -0.6537
  189DOPC  H16R23327   3.791  10.263  14.340  0.9346 -0.8735 -3.3079
  189DOPC  H16S23328   3.966  10.300  14.342  0.3325  0.5846  0.8237
  189DOPC  C21723329   3.891  10.266  14.535 -0.4781 -0.2377 -0.4914
  189DOPC  H17R23330   3.864  10.372  14.554  2.7757  0.8125 -1.0486
  189DOPC  H17S23331   3.995  10.258  14.574 -0.8007 -0.9522  0.2453
  189DOPC  C21823332   3.793  10.179  14.628 -0.0915 -0.1528  0.3617
  189DOPC  H18R23333   3.817  10.194  14.735  1.7915  1.6060 -0.2451
  189DOPC  H18S23334   3.797  10.072  14.597 -0.1104  0.1392 -0.6910
  189DOPC  H18T23335   3.693  10.224  14.613  0.6483  1.4256 -0.0226
  189DOPC   C3323336   4.318   8.867  13.569  0.2147 -0.3391  0.2123
  189DOPC   H3X23337   4.357   8.765  13.548  0.5076 -0.2682  0.4018
  189DOPC   H3Y23338   4.210   8.857  13.596 -0.2021 -0.5292 -1.4215
  189DOPC   C3423339   4.402   8.910  13.689 -0.5031 -0.4844  0.3870
  189DOPC   H4X23340   4.505   8.872  13.669 -0.6555 -0.8060  0.1953
  189DOPC   H4Y23341   4.366   8.843  13.770 -2.3059 -0.2413 -0.1742
  189DOPC   C3523342   4.396   9.060  13.727  0.4174  0.3452  0.3135
  189DOPC   H5X23343   4.290   9.091  13.721  0.4368  0.0968 -3.3416
  189DOPC   H5Y23344   4.444   9.133  13.658 -1.0597  0.2319 -0.8851
  189DOPC   C3623345   4.457   9.065  13.867 -0.8293 -0.0921 -0.0106
  189DOPC   H6X23346   4.418   9.000  13.948 -0.4388 -0.0174  0.2415
  189DOPC   H6Y23347   4.567   9.056  13.857 -0.8018 -0.1141  0.2938
  189DOPC   C3723348   4.432   9.201  13.934  0.0619 -0.3457 -0.1201
  189DOPC   H7X23349   4.449   9.285  13.863 -1.2249 -1.8702 -2.3616
  189DOPC   H7Y23350   4.332   9.187  13.980  0.7517 -4.3088  0.5172
  189DOPC   C3823351   4.532   9.235  14.052  0.6396  0.5529  0.3422
  189DOPC   H8X23352   4.539   9.340  14.087  2.6030  0.3370  0.6949
  189DOPC   H8Y23353   4.635   9.217  14.015  0.9760  1.6815  0.6858
  189DOPC   C3923354   4.509   9.142  14.169  0.5319 -0.1022 -0.2188
  189DOPC   H9X23355   4.402   9.130  14.191 -0.1009  0.9821 -2.4299
  189DOPC  C31023356   4.603   9.081  14.239 -0.5235  0.7629  0.5401
  189DOPC  H10X23357   4.579   9.024  14.330  1.9719 -1.4668 -0.0661
  189DOPC  C31123358   4.753   9.099  14.221  0.1774  0.3115 -0.0537
  189DOPC  H11X23359   4.787   9.203  14.241  2.6719 -0.3390 -0.5414
  189DOPC  H11Y23360   4.785   9.056  14.124 -1.9973 -2.2654  0.2788
  189DOPC  C31223361   4.833   9.021  14.325 -0.1693  0.3038 -0.2853
  189DOPC  H12X23362   4.941   9.035  14.300 -0.2842 -0.3381 -1.1716
  189DOPC  H12Y23363   4.816   8.912  14.336 -0.4064  0.4348  0.7413
  189DOPC  C31323364   4.821   9.075  14.473  0.6244  0.0131  0.5440
  189DOPC  H13X23365   4.833   9.185  14.481 -0.8735  0.0389  3.9369
  189DOPC  H13Y23366   4.721   9.043  14.509  1.7362 -0.5380  3.4590
  189DOPC  C31423367   4.914   8.997  14.561 -0.4797 -0.0441 -0.0293
  189DOPC  H14X23368   4.883   8.890  14.554  1.7258 -0.8381  1.3166
  189DOPC  H14Y23369   5.016   9.014  14.521 -0.8541 -0.5156 -1.2387
  189DOPC  C31523370   4.904   9.044  14.702  0.5028  0.1607  0.3264
  189DOPC  H15X23371   4.851   8.967  14.762  0.6917  1.0469  1.6809
  189DOPC  H15Y23372   4.848   9.140  14.706  0.5903  0.2508 -0.4737
  189DOPC  C31623373   5.037   9.073  14.763 -0.3529 -0.0025 -0.2272
  189DOPC  H16X23374   5.106   8.986  14.758  0.5812  0.6510  0.9525
  189DOPC  H16Y23375   5.089   9.146  14.697  0.8849 -0.0858  0.6308
  189DOPC  C31723376   5.030   9.117  14.915  0.8184  0.2286  1.0438
  189DOPC  H17X23377   4.977   9.214  14.924 -0.7328 -0.1910 -2.2003
  189DOPC  H17Y23378   4.975   9.030  14.956  1.4441 -0.9391 -0.5219
  189DOPC  C31823379   5.164   9.125  14.981  0.4398 -0.2101 -0.1295
  189DOPC  H18X23380   5.231   9.036  14.978  2.7557  1.2980  2.2441
  189DOPC  H18Y23381   5.216   9.213  14.938  1.0942 -0.5650 -0.0753
  189DOPC  H18Z23382   5.144   9.144  15.089 -0.0727 -0.5181 -0.1668
  190DOPC     N23383   0.926   9.047  13.197 -0.4162  0.0318  0.1667
  190DOPC   C1223384   0.992   9.139  13.300 -0.1598 -0.1859  0.5581
  190DOPC  H12A23385   1.063   9.091  13.366 -0.3200  0.0327  0.8954
  190DOPC  H12B23386   0.909   9.161  13.366 -1.2042  0.3952 -0.9119
  190DOPC   C1323387   0.872   8.922  13.257  0.3198  0.4479  0.4563
  190DOPC  H13A23388   0.849   8.847  13.184 -0.0821 -1.1170  2.1295
  190DOPC  H13B23389   0.943   8.874  13.322  3.3909  1.7503 -1.6799
  190DOPC  H13C23390   0.775   8.940  13.300 -0.2780  2.6029 -1.5280
  190DOPC   C1423391   1.038   9.013  13.100  0.3325  0.4115 -0.4287
  190DOPC  H14A23392   1.131   8.991  13.151  0.3117  0.5889 -0.3117
  190DOPC  H14B23393   0.998   8.947  13.025 -0.5585 -0.5285  0.8276
  190DOPC  H14C23394   1.072   9.109  13.062  1.7066  0.3377  0.5460
  190DOPC   C1523395   0.813   9.118  13.133  0.0741  0.8015  0.8322
  190DOPC  H15A23396   0.799   9.080  13.033  0.2065  0.1463  1.0547
  190DOPC  H15B23397   0.847   9.219  13.115  3.1225 -0.3193 -0.3101
  190DOPC  H15C23398   0.720   9.131  13.187 -0.6847  1.9236 -0.6842
  190DOPC   C1123399   1.054   9.273  13.255  0.5784 -0.3844 -0.2608
  190DOPC  H11A23400   1.089   9.323  13.348 -0.9812 -0.1710  0.2342
  190DOPC  H11B23401   1.143   9.265  13.190  0.8493  2.3241 -0.3539
  190DOPC     P23402   0.915   9.503  13.267  0.3410 -0.5207 -0.3561
  190DOPC   O1323403   0.781   9.542  13.214 -0.5721 -0.1621  0.6337
  190DOPC   O1423404   1.022   9.605  13.257  0.4318 -0.1878  0.7491
  190DOPC   O1223405   0.960   9.363  13.193 -0.3965 -0.3356 -0.7439
  190DOPC   O1123406   0.894   9.452  13.421 -0.2898 -0.6194  0.0054
  190DOPC    C123407   0.762   9.481  13.485 -0.6346  0.4634 -0.0647
  190DOPC    HA23408   0.676   9.461  13.417  2.2455 -2.1997 -3.3077
  190DOPC    HB23409   0.749   9.590  13.504  2.9565  1.7055 -3.2453
  190DOPC    C223410   0.731   9.390  13.607 -0.3914 -0.3036 -0.1576
  190DOPC    HS23411   0.726   9.286  13.568 -1.0959 -0.4149  0.2193
  190DOPC   O2123412   0.599   9.425  13.665 -0.3686 -0.3516 -0.2862
  190DOPC   C2123413   0.538   9.327  13.727  0.1133 -0.3007 -0.0805
  190DOPC   O2223414   0.568   9.209  13.723  0.2038  0.5409  0.3968
  190DOPC   C2223415   0.408   9.384  13.778 -0.2268  0.2360  1.0272
  190DOPC   H2R23416   0.335   9.300  13.770 -0.2973  0.3803  0.0275
  190DOPC   H2S23417   0.375   9.460  13.704  1.6290 -1.1896 -1.4023
  190DOPC    C323418   0.846   9.400  13.710  0.0528 -0.8922  0.5824
  190DOPC    HX23419   0.858   9.509  13.729 -0.6398 -0.5647 -0.7969
  190DOPC    HY23420   0.942   9.364  13.667  1.3667  0.5248  2.1416
  190DOPC   O3123421   0.807   9.343  13.836  0.0081  0.2751 -0.0646
  190DOPC   C3123422   0.867   9.223  13.870 -0.3716  0.8393  1.0834
  190DOPC   O3223423   0.951   9.168  13.798 -0.1303  0.1111 -0.0792
  190DOPC   C3223424   0.805   9.157  13.992  0.0003 -0.1576  0.0011
  190DOPC   H2X23425   0.728   9.084  13.959 -1.3339  1.4099 -0.4768
  190DOPC   H2Y23426   0.883   9.090  14.035 -0.6180 -0.9085 -0.0296
  190DOPC   C2323427   0.420   9.429  13.923 -0.1759  0.1805  0.2192
  190DOPC   H3R23428   0.475   9.346  13.972  0.0397  0.1864 -0.0080
  190DOPC   H3S23429   0.324   9.430  13.978 -0.4809 -0.5590 -0.2802
  190DOPC   C2423430   0.474   9.569  13.928  0.4971 -0.4609 -0.1645
  190DOPC   H4R23431   0.413   9.639  13.867 -1.0657 -1.5884  0.0390
  190DOPC   H4S23432   0.578   9.570  13.891  0.0764 -0.9910 -1.4377
  190DOPC   C2523433   0.464   9.630  14.068  1.0695  0.0139 -0.3013
  190DOPC   H5R23434   0.360   9.669  14.074  1.2132  0.1901  1.4741
  190DOPC   H5S23435   0.511   9.730  14.081  0.3879  0.0522  2.5518
  190DOPC   C2623436   0.494   9.537  14.186  0.3594 -0.4491  0.5473
  190DOPC   H6R23437   0.588   9.487  14.155  0.6132  0.0823  0.4614
  190DOPC   H6S23438   0.410   9.464  14.181 -0.4969  0.5766 -3.0431
  190DOPC   C2723439   0.510   9.622  14.313  0.4533 -0.0640 -0.2707
  190DOPC   H7R23440   0.410   9.667  14.329 -0.1890 -1.8912  1.3007
  190DOPC   H7S23441   0.586   9.696  14.281  1.3071 -0.2891  1.1735
  190DOPC   C2823442   0.557   9.555  14.442 -0.3889 -0.2653 -0.1635
  190DOPC   H8R23443   0.587   9.640  14.507 -1.1816 -0.9867  1.1846
  190DOPC   H8S23444   0.649   9.495  14.421  0.2478  0.6688 -0.1173
  190DOPC   C2923445   0.453   9.475  14.518 -0.2911  0.5663  0.0813
  190DOPC   H9R23446   0.355   9.459  14.471 -1.3711 -0.5276  2.5373
  190DOPC  C21023447   0.486   9.387  14.618 -0.2863 -0.5454 -0.0384
  190DOPC  H10R23448   0.407   9.325  14.664  0.3778  0.3117  2.4347
  190DOPC  C21123449   0.622   9.379  14.679  0.0380  0.5300 -0.4381
  190DOPC  H11R23450   0.643   9.473  14.734  0.8566 -0.4651  1.0539
  190DOPC  H11S23451   0.696   9.356  14.599  0.2794 -0.2893 -0.0034
  190DOPC  C21223452   0.623   9.269  14.786 -0.2328  0.1111  0.3894
  190DOPC  H12R23453   0.590   9.171  14.745  1.1621 -0.9685  1.7574
  190DOPC  H12S23454   0.558   9.294  14.872 -1.0342 -0.2289 -0.1035
  190DOPC  C21323455   0.767   9.254  14.849  0.2368 -0.9980  0.4076
  190DOPC  H13R23456   0.800   9.358  14.872  1.0854 -0.7898 -1.5425
  190DOPC  H13S23457   0.843   9.214  14.779  1.1103 -1.1733  1.4344
  190DOPC  C21423458   0.765   9.173  14.976 -0.0221 -0.2667  0.2293
  190DOPC  H14R23459   0.730   9.069  14.958  0.4704 -0.4823  0.4810
  190DOPC  H14S23460   0.690   9.209  15.049  0.5855 -0.0842  0.7705
  190DOPC  C21523461   0.898   9.168  15.054  0.1638  0.4989 -0.6195
  190DOPC  H15R23462   0.982   9.146  14.984 -1.4343 -0.3560 -2.3509
  190DOPC  H15S23463   0.905   9.085  15.127  0.3159  2.5094  1.7881
  190DOPC  C21623464   0.928   9.303  15.124  0.1126 -0.5771  0.4709
  190DOPC  H16R23465   0.881   9.395  15.083  0.7087  0.2775  1.6279
  190DOPC  H16S23466   1.038   9.309  15.110  0.1319 -1.1849  0.3463
  190DOPC  C21723467   0.894   9.295  15.274  0.3111  0.2158 -0.5306
  190DOPC  H17R23468   0.959   9.217  15.320  1.4264  1.6031  0.3275
  190DOPC  H17S23469   0.801   9.234  15.286  0.9444 -0.5087  1.0719
  190DOPC  C21823470   0.896   9.420  15.357 -0.3315  0.5464  0.5277
  190DOPC  H18R23471   0.998   9.464  15.355  0.4819 -1.2468  0.7998
  190DOPC  H18S23472   0.880   9.402  15.465  0.8218  1.1488  0.8161
  190DOPC  H18T23473   0.812   9.485  15.325 -0.9204 -1.5650 -2.6578
  190DOPC   C3323474   0.771   9.250  14.108  0.2959  0.0268 -0.5937
  190DOPC   H3X23475   0.700   9.333  14.091 -0.4364 -0.8334 -1.9982
  190DOPC   H3Y23476   0.863   9.299  14.145 -1.1781  1.1826  1.7950
  190DOPC   C3423477   0.717   9.169  14.231  0.9155 -0.5230 -0.6559
  190DOPC   H4X23478   0.731   9.238  14.317 -0.4302 -1.8659  0.7038
  190DOPC   H4Y23479   0.773   9.075  14.245  2.2368  0.3028 -0.2699
  190DOPC   C3523480   0.560   9.155  14.212 -0.6932  0.4793  0.2625
  190DOPC   H5X23481   0.557   9.097  14.118  1.3788  2.2043 -0.9524
  190DOPC   H5Y23482   0.518   9.256  14.191 -0.6890  0.7003  1.2600
  190DOPC   C3623483   0.476   9.096  14.321  0.3159  0.0402  0.4074
  190DOPC   H6X23484   0.520   9.001  14.356  1.5398  0.2607 -0.4910
  190DOPC   H6Y23485   0.481   9.164  14.409 -0.7003 -1.6313  1.8294
  190DOPC   C3723486   0.323   9.088  14.296 -0.0626  0.6125  0.3380
  190DOPC   H7X23487   0.294   9.187  14.255 -1.7340 -0.7566 -2.0073
  190DOPC   H7Y23488   0.305   9.018  14.212  0.8810 -0.2570  0.8332
  190DOPC   C3823489   0.235   9.064  14.421  0.3900 -0.8157  0.9389
  190DOPC   H8X23490   0.277   9.136  14.494  0.5789  1.6101 -1.4305
  190DOPC   H8Y23491   0.252   8.963  14.465 -2.2505 -1.8808 -0.2423
  190DOPC   C3923492   0.090   9.073  14.384 -0.2275  0.1928 -0.5730
  190DOPC   H9X23493   0.045   8.991  14.326 -0.0359  1.0931 -2.0471
  190DOPC  C31023494   0.007   9.178  14.399  0.0798 -0.0462  0.5079
  190DOPC  H10X23495  -0.096   9.174  14.358  1.2279  1.1034 -2.8197
  190DOPC  C31123496   0.038   9.310  14.469  0.1026  0.3279 -0.3236
  190DOPC  H11X23497   0.118   9.303  14.545 -0.9723 -0.6657  0.7708
  190DOPC  H11Y23498  -0.056   9.334  14.523  0.8115 -0.5255  1.3351
  190DOPC  C31223499   0.075   9.430  14.379  0.2823  0.6039 -0.8983
  190DOPC  H12X23500   0.170   9.406  14.327  0.0175  0.1854 -1.1942
  190DOPC  H12Y23501   0.101   9.519  14.440  1.6175 -0.6485  0.4492
  190DOPC  C31323502  -0.041   9.475  14.280 -0.0641  0.0183  0.6514
  190DOPC  H13X23503  -0.075   9.396  14.209 -1.7784  0.5315  0.8589
  190DOPC  H13Y23504  -0.135   9.492  14.337  0.6669 -0.5493  2.0455
  190DOPC  C31423505  -0.009   9.608  14.209  0.1285  0.5059  0.7261
  190DOPC  H14X23506  -0.034   9.687  14.282 -1.9677  1.7637 -1.2329
  190DOPC  H14Y23507   0.102   9.618  14.200  0.1941  0.7815  1.7824
  190DOPC  C31523508  -0.069   9.643  14.064 -0.6085 -0.1501  0.7362
  190DOPC  H15X23509  -0.179   9.646  14.057 -0.5477  0.5931 -0.0318
  190DOPC  H15Y23510  -0.026   9.565  13.997  0.7145  0.4051  0.8991
  190DOPC  C31623511  -0.018   9.784  14.034 -0.1799 -0.5128  1.1997
  190DOPC  H16X23512  -0.076   9.854  14.098 -3.6796  0.7689 -2.9178
  190DOPC  H16Y23513   0.091   9.785  14.055  0.9407  1.1026 -3.4532
  190DOPC  C31723514  -0.046   9.819  13.888 -0.0274  0.2921  0.0481
  190DOPC  H17X23515   0.011   9.906  13.851 -0.8096 -0.3472 -2.8888
  190DOPC  H17Y23516  -0.009   9.738  13.821 -2.9992 -2.1367  1.0965
  190DOPC  C31823517  -0.193   9.832  13.849  1.0348 -0.2370 -0.2769
  190DOPC  H18X23518  -0.248   9.737  13.867  0.1651  0.5194  1.2076
  190DOPC  H18Y23519  -0.231   9.917  13.910 -2.6205 -2.1192  0.3148
  190DOPC  H18Z23520  -0.207   9.857  13.742  0.5956  0.7790  0.0136
  191DOPC     N23521   5.792   8.602  12.255  0.5677  0.0216 -0.2760
  191DOPC   C1223522   5.731   8.471  12.291 -0.2956 -0.3922 -0.3111
  191DOPC  H12A23523   5.756   8.398  12.215  1.0682  0.5227 -0.7797
  191DOPC  H12B23524   5.625   8.490  12.288 -0.6546 -2.1604 -0.1645
  191DOPC   C1323525   5.721   8.719  12.325 -0.3099 -0.0329 -0.1728
  191DOPC  H13A23526   5.763   8.814  12.297  4.1399 -2.2666 -2.0821
  191DOPC  H13B23527   5.613   8.712  12.317 -0.3734 -2.0268  1.4123
  191DOPC  H13C23528   5.735   8.701  12.431 -1.6964 -1.7041 -0.2170
  191DOPC   C1423529   5.767   8.611  12.109  1.0568 -0.1921  0.4245
  191DOPC  H14A23530   5.664   8.617  12.079  1.5249  2.8028 -0.9320
  191DOPC  H14B23531   5.810   8.699  12.062  1.0474 -0.1776  0.4421
  191DOPC  H14C23532   5.804   8.526  12.053 -0.0769  1.6915 -3.6012
  191DOPC   C1523533   5.939   8.601  12.286  0.2861  0.0788 -0.2509
  191DOPC  H15A23534   5.988   8.517  12.239 -1.7540 -0.6826 -1.1394
  191DOPC  H15B23535   5.966   8.601  12.391  2.6793 -0.0174 -0.8129
  191DOPC  H15C23536   5.983   8.693  12.252  1.6255  0.7681  2.9829
  191DOPC   C1123537   5.772   8.401  12.431 -0.4737  0.5156  0.7494
  191DOPC  H11A23538   5.709   8.310  12.445 -0.8875  0.6576 -0.0773
  191DOPC  H11B23539   5.874   8.357  12.430 -0.4786  0.4903 -0.5856
  191DOPC     P23540   5.657   8.465  12.659 -0.2991  0.4642  0.1961
  191DOPC   O1323541   5.584   8.335  12.653  0.3743  0.2749  0.2525
  191DOPC   O1423542   5.566   8.581  12.674  0.5093 -0.1986  0.1420
  191DOPC   O1223543   5.758   8.489  12.537 -0.2890  0.4620 -0.5621
  191DOPC   O1123544   5.748   8.462  12.783 -0.1006  0.1025 -0.3019
  191DOPC    C123545   5.704   8.511  12.913  0.2861  0.4281  0.4299
  191DOPC    HA23546   5.595   8.494  12.925  0.1233  2.1567  1.9079
  191DOPC    HB23547   5.721   8.621  12.910 -0.4337  0.5260 -0.5449
  191DOPC    C223548   5.784   8.454  13.037  0.0183 -0.4168  0.3241
  191DOPC    HS23549   5.721   8.368  13.066 -2.4526  1.2919  0.3451
  191DOPC   O2123550   5.798   8.562  13.138 -0.1203  0.4129  0.4052
  191DOPC   C2123551   5.783   8.516  13.259 -0.6531  0.3074  0.8144
  191DOPC   O2223552   5.740   8.404  13.288 -0.0951 -0.5360  0.0723
  191DOPC   C2223553   5.823   8.624  13.353  0.2283 -0.2734 -0.5666
  191DOPC   H2R23554   5.743   8.701  13.340 -1.0113 -1.0851  1.7091
  191DOPC   H2S23555   5.923   8.666  13.332  0.6384 -0.9450  0.0059
  191DOPC    C323556   5.919   8.399  12.996 -0.0272  0.6945  0.0954
  191DOPC    HX23557   5.953   8.435  12.896  0.9348 -0.5262 -0.0426
  191DOPC    HY23558   5.895   8.292  12.981 -0.1900  0.7220  0.1710
  191DOPC   O3123559   6.025   8.425  13.094 -0.7815 -0.0707 -0.1886
  191DOPC   C3123560   6.129   8.352  13.099 -0.2190 -0.0116  1.3942
  191DOPC   O3223561   6.163   8.259  13.022 -0.0300 -0.3449  0.0996
  191DOPC   C3223562   6.206   8.380  13.232 -0.2622 -0.0816 -0.0445
  191DOPC   H2X23563   6.227   8.489  13.228  0.1263 -0.1764 -1.0240
  191DOPC   H2Y23564   6.135   8.360  13.315 -1.1024  0.7275 -0.5460
  191DOPC   C2323565   5.812   8.577  13.497  0.1427 -0.1551 -0.3670
  191DOPC   H3R23566   5.724   8.510  13.501  0.6531 -0.8988 -1.4453
  191DOPC   H3S23567   5.793   8.675  13.548  1.9909  1.1126 -1.9559
  191DOPC   C2423568   5.945   8.516  13.542  0.5107  0.8811 -0.2279
  191DOPC   H4R23569   6.017   8.598  13.560 -0.6065  2.2941 -1.8596
  191DOPC   H4S23570   5.981   8.453  13.458  1.5944  1.6767 -0.3892
  191DOPC   C2523571   5.929   8.442  13.678  0.2781  0.3353 -0.0668
  191DOPC   H5R23572   5.848   8.367  13.664  0.6297  0.0306 -0.4973
  191DOPC   H5S23573   5.910   8.520  13.755 -1.1392  1.2670 -1.2983
  191DOPC   C2623574   6.067   8.375  13.715  0.6363  0.1060  0.4294
  191DOPC   H6R23575   6.132   8.459  13.749  1.3623 -0.8156  1.4141
  191DOPC   H6S23576   6.113   8.315  13.634 -1.5055 -2.5719  1.0528
  191DOPC   C2723577   6.043   8.276  13.836 -0.2316  0.1766  1.0083
  191DOPC   H7R23578   5.981   8.196  13.792 -2.3540  2.2124  0.0836
  191DOPC   H7S23579   5.994   8.341  13.911  0.4957  0.6045  1.1268
  191DOPC   C2823580   6.162   8.213  13.908 -0.0331  0.0211  0.0888
  191DOPC   H8R23581   6.124   8.167  14.001 -0.7999  0.1513 -0.1527
  191DOPC   H8S23582   6.236   8.296  13.922 -1.0232  0.9986 -0.3426
  191DOPC   C2923583   6.221   8.090  13.834  0.3273 -0.1506  0.1816
  191DOPC   H9R23584   6.305   8.105  13.765  0.2189 -2.5096 -0.5694
  191DOPC  C21023585   6.185   7.965  13.848  0.2041  0.2540  0.0714
  191DOPC  H10R23586   6.229   7.898  13.772  1.1990  1.2376 -0.2392
  191DOPC  C21123587   6.069   7.910  13.920  0.8473 -0.0859 -0.2883
  191DOPC  H11R23588   6.016   7.850  13.843  0.4338  0.0703 -0.1307
  191DOPC  H11S23589   5.993   7.985  13.953 -1.2169 -2.1770  0.0417
  191DOPC  C21223590   6.107   7.815  14.026 -0.5152  0.3347 -0.3752
  191DOPC  H12R23591   6.155   7.726  13.979  2.8418  1.4230  0.7217
  191DOPC  H12S23592   6.018   7.775  14.079 -0.6464  1.1590  0.0450
  191DOPC  C21323593   6.196   7.866  14.135  0.9164 -0.2861 -0.4758
  191DOPC  H13R23594   6.292   7.913  14.102  0.9450 -1.8701 -2.8816
  191DOPC  H13S23595   6.229   7.778  14.194  0.4741  0.0478  0.2868
  191DOPC  C21423596   6.119   7.968  14.229 -0.0515 -0.0874 -0.2840
  191DOPC  H14R23597   6.069   8.046  14.168 -1.3023 -0.5741  0.0982
  191DOPC  H14S23598   6.202   8.018  14.284 -0.1560 -1.1866  0.9368
  191DOPC  C21523599   6.015   7.902  14.319 -0.4461  0.4802 -0.3695
  191DOPC  H15R23600   6.065   7.817  14.371 -1.4503  0.0115 -0.1328
  191DOPC  H15S23601   5.923   7.863  14.270 -1.0764  1.8434 -0.3345
  191DOPC  C21623602   5.964   7.982  14.437 -1.0005  0.1754  0.3848
  191DOPC  H16R23603   5.918   8.074  14.396 -0.4859  0.8786  1.3636
  191DOPC  H16S23604   6.048   8.008  14.505 -1.4476  1.7006  0.3830
  191DOPC  C21723605   5.870   7.909  14.532 -0.5641  0.4341  0.6371
  191DOPC  H17R23606   5.907   7.807  14.554  0.4337  0.2809 -1.4367
  191DOPC  H17S23607   5.775   7.896  14.476 -0.6869 -1.7307  1.2644
  191DOPC  C21823608   5.843   7.992  14.659  0.0158  0.1826  0.2456
  191DOPC  H18R23609   5.800   8.089  14.627 -0.6814 -0.1252  0.2455
  191DOPC  H18S23610   5.932   8.008  14.725  0.2654 -0.4880  0.0837
  191DOPC  H18T23611   5.760   7.958  14.725 -1.4969  1.0319 -1.1461
  191DOPC   C3323612   6.341   8.302  13.245  0.1341 -0.5308  0.5225
  191DOPC   H3X23613   6.380   8.329  13.145 -3.6754  0.5983 -0.8297
  191DOPC   H3Y23614   6.335   8.192  13.252  2.5147 -1.0012 -2.6105
  191DOPC   C3423615   6.429   8.348  13.361  0.9138 -0.0692 -0.5312
  191DOPC   H4X23616   6.373   8.319  13.452 -0.2234 -0.8120 -1.4265
  191DOPC   H4Y23617   6.444   8.457  13.369 -0.4160  0.1075 -0.2267
  191DOPC   C3523618   6.565   8.272  13.362  0.1600  0.5712  0.6452
  191DOPC   H5X23619   6.623   8.318  13.280  0.8167  0.7373  1.1874
  191DOPC   H5Y23620   6.536   8.170  13.331 -2.1010  1.3348  0.0745
  191DOPC   C3623621   6.636   8.255  13.497 -0.4240 -0.4009 -0.0431
  191DOPC   H6X23622   6.682   8.351  13.528 -1.4184  0.4482 -1.1088
  191DOPC   H6Y23623   6.560   8.222  13.571  0.1789 -2.6911 -0.3717
  191DOPC   C3723624   6.758   8.161  13.499 -0.4747  0.4647 -0.3611
  191DOPC   H7X23625   6.720   8.068  13.453 -0.5066  1.2389 -1.9803
  191DOPC   H7Y23626   6.835   8.205  13.433 -1.8314  0.7548 -1.8151
  191DOPC   C3823627   6.817   8.139  13.645  1.2655  0.0007 -0.2153
  191DOPC   H8X23628   6.840   8.233  13.699  0.0855 -0.3222  0.9231
  191DOPC   H8Y23629   6.917   8.092  13.639  2.0666  1.6035  0.0556
  191DOPC   C3923630   6.720   8.053  13.719  0.8697  0.5914 -0.3548
  191DOPC   H9X23631   6.614   8.052  13.691  1.4179 -0.7579 -2.6760
  191DOPC  C31023632   6.753   7.963  13.818  0.4022 -1.2155 -0.6553
  191DOPC  H10X23633   6.669   7.924  13.878  0.8813  0.2809  1.0813
  191DOPC  C31123634   6.891   7.944  13.874 -0.2473  0.8803  0.1424
  191DOPC  H11X23635   6.953   8.030  13.841 -1.0819  1.0307 -1.0960
  191DOPC  H11Y23636   6.944   7.853  13.840 -1.0076  0.6438 -0.4382
  191DOPC  C31223637   6.894   7.918  14.029 -0.3435 -0.5756  0.8028
  191DOPC  H12X23638   6.819   7.841  14.057 -0.9478 -0.4464 -0.3914
  191DOPC  H12Y23639   6.878   8.019  14.073 -0.0258 -0.2783  0.2498
  191DOPC  C31323640   7.023   7.877  14.085 -0.4993  0.6355 -0.4953
  191DOPC  H13X23641   7.035   7.769  14.065  0.4481  0.6468 -0.0879
  191DOPC  H13Y23642   7.102   7.932  14.029  0.2801 -0.5958 -0.6403
  191DOPC  C31423643   7.036   7.915  14.234  0.1873  0.1286 -0.8235
  191DOPC  H14X23644   7.032   8.024  14.253 -0.4116  0.0132 -0.2341
  191DOPC  H14Y23645   6.953   7.868  14.291  2.1453 -0.6554  1.5312
  191DOPC  C31523646   7.161   7.854  14.299 -0.5280  0.3467  0.2974
  191DOPC  H15X23647   7.258   7.870  14.246 -0.0462 -1.8079  0.4483
  191DOPC  H15Y23648   7.154   7.743  14.298  0.3462  0.2868 -0.1610
  191DOPC  C31623649   7.184   7.891  14.444  0.3271 -0.0257 -0.3569
  191DOPC  H16X23650   7.292   7.878  14.468  0.7299  1.7508 -1.0266
  191DOPC  H16Y23651   7.178   8.002  14.448 -1.8234 -0.1434  0.7857
  191DOPC  C31723652   7.101   7.814  14.547 -0.0158  0.1187 -0.0440
  191DOPC  H17X23653   6.997   7.817  14.507  0.4922 -0.8243 -1.5098
  191DOPC  H17Y23654   7.134   7.708  14.551  2.0764  0.5875 -2.4591
  191DOPC  C31823655   7.112   7.877  14.684 -0.3491 -0.5744 -0.2108
  191DOPC  H18X23656   7.031   7.847  14.755 -2.9735  3.5246 -1.1244
  191DOPC  H18Y23657   7.212   7.857  14.727  0.6848  0.7182 -1.9367
  191DOPC  H18Z23658   7.112   7.988  14.677  0.1184 -0.5671 -0.1357
  192DOPC     N23659   1.238   5.805  12.806  0.6033 -0.1485 -0.2128
  192DOPC   C1223660   1.277   5.939  12.871 -0.2254 -0.1708  0.2016
  192DOPC  H12A23661   1.190   6.003  12.869 -0.2247 -0.1062  1.3956
  192DOPC  H12B23662   1.345   5.996  12.810  0.7159 -1.7851 -0.3317
  192DOPC   C1323663   1.177   5.824  12.671  0.6154  0.1662  0.1736
  192DOPC  H13A23664   1.090   5.887  12.684  0.7063  0.2322  0.4698
  192DOPC  H13B23665   1.239   5.862  12.592 -0.0972  1.4024  0.1722
  192DOPC  H13C23666   1.155   5.732  12.620 -0.3417  1.9347 -2.8775
  192DOPC   C1423667   1.136   5.738  12.897  0.1656  0.8585 -0.3143
  192DOPC  H14A23668   1.048   5.795  12.922 -1.3830 -0.6399 -2.0935
  192DOPC  H14B23669   1.091   5.653  12.849 -0.2027  0.1960  1.1347
  192DOPC  H14C23670   1.178   5.711  12.993  0.7491 -0.3389 -0.8802
  192DOPC   C1523671   1.362   5.717  12.794 -0.6473 -0.0835 -0.0503
  192DOPC  H15A23672   1.404   5.716  12.894 -3.2555  0.4846  1.1193
  192DOPC  H15B23673   1.439   5.749  12.725 -0.2982  0.0557  0.3982
  192DOPC  H15C23674   1.337   5.615  12.770  1.0223 -0.4101 -0.5355
  192DOPC   C1123675   1.330   5.940  13.017  0.0085  0.4533  0.2419
  192DOPC  H11A23676   1.251   5.888  13.074 -1.4341 -0.8423 -2.7020
  192DOPC  H11B23677   1.431   5.900  13.040  0.7248  2.3254  0.5085
  192DOPC     P23678   1.283   6.148  13.188  0.2907 -0.1611 -0.0677
  192DOPC   O1323679   1.135   6.153  13.167 -0.2590  0.0902  0.7570
  192DOPC   O1423680   1.353   6.271  13.216  0.2541 -0.3071 -0.0639
  192DOPC   O1223681   1.345   6.072  13.057  0.4271  0.1562 -0.3934
  192DOPC   O1123682   1.311   6.046  13.303  0.3875 -0.5006  0.0660
  192DOPC    C123683   1.214   5.996  13.391  0.1617  0.1108 -0.7243
  192DOPC    HA23684   1.263   5.926  13.462 -1.4292 -2.3906 -1.9420
  192DOPC    HB23685   1.146   5.935  13.328  1.0384  0.4145 -2.0111
  192DOPC    C223686   1.139   6.100  13.466 -0.1646  0.2153 -0.1410
  192DOPC    HS23687   1.069   6.156  13.400 -0.9541  0.5287  0.9396
  192DOPC   O2123688   1.235   6.192  13.525  0.2758 -0.2018 -0.0455
  192DOPC   C2123689   1.181   6.309  13.552  0.1446  0.4928 -0.3639
  192DOPC   O2223690   1.070   6.350  13.521  0.1265 -0.4037  0.0278
  192DOPC   C2223691   1.282   6.380  13.640 -0.4143  0.5191  0.0505
  192DOPC   H2R23692   1.330   6.454  13.572  0.1900  1.3492  1.3380
  192DOPC   H2S23693   1.370   6.316  13.661 -1.1722 -1.0151 -1.2899
  192DOPC    C323694   1.054   6.027  13.573 -0.2127  0.0746 -0.3512
  192DOPC    HX23695   1.110   5.948  13.627 -1.3674 -0.1384  0.5728
  192DOPC    HY23696   0.981   5.969  13.511 -0.7849  0.7393 -0.3134
  192DOPC   O3123697   0.975   6.113  13.655  0.9331  0.2457  0.0058
  192DOPC   C3123698   0.860   6.152  13.596 -0.2379  1.0306  0.3093
  192DOPC   O3223699   0.821   6.128  13.481 -0.4981 -0.0682 -0.2561
  192DOPC   C3223700   0.787   6.246  13.689 -0.1719  0.6904  0.6381
  192DOPC   H2X23701   0.802   6.206  13.792  0.4043  1.4466  0.8619
  192DOPC   H2Y23702   0.848   6.339  13.685  0.1287  0.4497 -1.1003
  192DOPC   C2323703   1.222   6.450  13.762  0.1072  0.1484 -0.4638
  192DOPC   H3R23704   1.155   6.530  13.725  0.5288 -0.2153 -2.1005
  192DOPC   H3S23705   1.309   6.490  13.817  0.9252 -1.6262 -0.3863
  192DOPC   C2423706   1.158   6.353  13.866 -0.3316  0.4031  0.0363
  192DOPC   H4R23707   1.056   6.320  13.835  0.5725 -3.5270  0.6646
  192DOPC   H4S23708   1.149   6.413  13.959  0.2781 -0.1348  0.4469
  192DOPC   C2523709   1.229   6.220  13.903  0.6805  0.2731 -0.0298
  192DOPC   H5R23710   1.337   6.242  13.915  1.2208 -2.2628  0.4336
  192DOPC   H5S23711   1.225   6.151  13.816  0.5431 -1.4391  1.2594
  192DOPC   C2623712   1.166   6.157  14.030 -0.1055  0.0525 -0.0969
  192DOPC   H6R23713   1.233   6.072  14.052  2.3627  1.5317 -1.4068
  192DOPC   H6S23714   1.071   6.110  13.997 -0.1518 -0.6789  1.0291
  192DOPC   C2723715   1.146   6.246  14.154 -0.2473  0.2079 -0.1744
  192DOPC   H7R23716   1.065   6.321  14.139 -1.3085 -0.9491 -0.4940
  192DOPC   H7S23717   1.243   6.299  14.161  0.8056 -1.7137  0.3782
  192DOPC   C2823718   1.125   6.173  14.291  0.5384  0.4104  0.3738
  192DOPC   H8R23719   1.098   6.243  14.372  0.2122  2.0985 -1.1361
  192DOPC   H8S23720   1.219   6.125  14.325 -0.8723 -1.9550  1.1768
  192DOPC   C2923721   1.037   6.051  14.285  0.6799  0.0459 -0.0951
  192DOPC   H9R23722   1.081   5.974  14.219 -0.6146 -0.4226 -0.4496
  192DOPC  C21023723   0.921   6.033  14.356  0.0659  0.0769 -0.2404
  192DOPC  H10R23724   0.872   5.946  14.310  0.2298 -0.2938  0.2770
  192DOPC  C21123725   0.852   6.120  14.453  0.5802  0.1977 -0.4141
  192DOPC  H11R23726   0.907   6.216  14.464  1.6356 -0.4276 -0.1679
  192DOPC  H11S23727   0.835   6.073  14.552 -1.2017 -1.2386 -1.3464
  192DOPC  C21223728   0.717   6.150  14.385 -0.6494 -0.4707 -0.2629
  192DOPC  H12R23729   0.647   6.064  14.390 -1.2780  0.0884  0.9936
  192DOPC  H12S23730   0.739   6.183  14.281 -0.9558 -1.4509 -0.6568
  192DOPC  C21323731   0.648   6.263  14.464 -0.2603 -0.5381  0.2281
  192DOPC  H13R23732   0.575   6.306  14.393  0.2883 -0.9766 -0.6223
  192DOPC  H13S23733   0.732   6.327  14.500  1.1589 -1.0713 -1.9604
  192DOPC  C21423734   0.570   6.238  14.592  0.4217 -0.1441 -0.6161
  192DOPC  H14R23735   0.634   6.179  14.661  0.0023 -2.3416 -1.9717
  192DOPC  H14S23736   0.482   6.177  14.564  2.1521 -3.3706  0.4066
  192DOPC  C21523737   0.508   6.370  14.649 -0.0249 -0.0674 -0.0259
  192DOPC  H15R23738   0.439   6.413  14.573 -0.9237 -3.1684 -1.1111
  192DOPC  H15S23739   0.602   6.429  14.659 -0.4377  0.4106  1.2424
  192DOPC  C21623740   0.450   6.351  14.792  0.1610  0.4065 -0.1996
  192DOPC  H16R23741   0.528   6.320  14.865 -1.0698  2.1956  2.0421
  192DOPC  H16S23742   0.374   6.271  14.779 -2.2186  2.5958 -0.5005
  192DOPC  C21723743   0.382   6.477  14.846 -0.2963 -0.2630 -0.1474
  192DOPC  H17R23744   0.348   6.451  14.949  1.3079  1.0198  0.7506
  192DOPC  H17S23745   0.289   6.506  14.792 -0.5603 -0.4708  0.1874
  192DOPC  C21823746   0.481   6.593  14.862  0.1560 -0.0378 -0.0429
  192DOPC  H18R23747   0.569   6.559  14.921  1.1030  0.2179 -1.2447
  192DOPC  H18S23748   0.430   6.681  14.905 -0.2610 -0.1476 -0.3062
  192DOPC  H18T23749   0.508   6.624  14.758  0.6953 -0.3928 -0.0119
  192DOPC   C3323750   0.647   6.276  13.648  0.0111  0.1248  0.2344
  192DOPC   H3X23751   0.586   6.184  13.658  1.4173 -0.8846 -0.1090
  192DOPC   H3Y23752   0.647   6.304  13.541 -1.7068  3.4221  0.9521
  192DOPC   C3423753   0.593   6.388  13.736  0.4966 -0.4969 -0.2633
  192DOPC   H4X23754   0.643   6.483  13.706  1.3611 -1.0699 -0.6999
  192DOPC   H4Y23755   0.606   6.383  13.846  2.2448 -0.4684 -0.4338
  192DOPC   C3523756   0.443   6.411  13.704 -0.4559 -0.1273 -0.2498
  192DOPC   H5X23757   0.380   6.320  13.717 -0.4529  0.0824  1.5070
  192DOPC   H5Y23758   0.432   6.430  13.595  0.8991  1.1405 -0.2024
  192DOPC   C3623759   0.370   6.509  13.799 -0.0646 -0.3805 -0.1089
  192DOPC   H6X23760   0.263   6.482  13.811 -0.0054  0.7580  4.9562
  192DOPC   H6Y23761   0.412   6.496  13.901 -0.3824 -2.3144 -0.1832
  192DOPC   C3723762   0.357   6.654  13.741 -0.6738 -0.3240  0.6403
  192DOPC   H7X23763   0.459   6.699  13.741 -1.0128  0.4693  1.3700
  192DOPC   H7Y23764   0.335   6.652  13.632  0.8023 -3.8403  0.2911
  192DOPC   C3823765   0.256   6.749  13.804 -0.2087 -0.4350 -0.0946
  192DOPC   H8X23766   0.156   6.702  13.818 -0.7539  0.7565  0.1325
  192DOPC   H8Y23767   0.235   6.831  13.732 -0.5113 -0.2433  0.2069
  192DOPC   C3923768   0.298   6.819  13.934 -0.4732 -0.1349  0.1952
  192DOPC   H9X23769   0.274   6.781  14.034 -1.1187  1.4000  0.6642
  192DOPC  C31023770   0.358   6.940  13.946  0.2908 -0.9626  0.4840
  192DOPC  H10X23771   0.380   6.984  14.044  0.1399  0.4271 -0.0741
  192DOPC  C31123772   0.395   7.035  13.831  0.3237  0.2967  0.0922
  192DOPC  H11X23773   0.385   6.998  13.727  0.5144  2.5977 -0.7909
  192DOPC  H11Y23774   0.506   7.044  13.833  0.6450 -2.6572 -0.0742
  192DOPC  C31223775   0.343   7.177  13.865  0.4783  0.3791 -0.4243
  192DOPC  H12X23776   0.241   7.161  13.907  0.4372  2.1314  0.2665
  192DOPC  H12Y23777   0.339   7.235  13.771  1.1602  1.2011  0.0352
  192DOPC  C31323778   0.432   7.251  13.968  0.0024 -0.3370  0.5808
  192DOPC  H13X23779   0.440   7.189  14.060 -2.6371  0.4351  1.4171
  192DOPC  H13Y23780   0.533   7.262  13.924 -0.6994  1.3461 -0.6944
  192DOPC  C31423781   0.378   7.389  14.011  0.0877 -0.0492 -0.2739
  192DOPC  H14X23782   0.307   7.380  14.096  0.9623 -1.1883  0.3652
  192DOPC  H14Y23783   0.464   7.438  14.061  2.0587  0.1786 -3.5840
  192DOPC  C31523784   0.317   7.469  13.902  0.1558  0.2086  0.0090
  192DOPC  H15X23785   0.233   7.411  13.859  1.7292 -2.4630  0.2990
  192DOPC  H15Y23786   0.391   7.500  13.825  2.1408 -0.6567  1.4782
  192DOPC  C31623787   0.258   7.601  13.962 -0.1763 -0.1298 -0.1280
  192DOPC  H16X23788   0.207   7.572  14.057  0.8003 -1.3954  0.0412
  192DOPC  H16Y23789   0.341   7.671  13.985  0.1002  0.0692 -1.6361
  192DOPC  C31723790   0.169   7.676  13.863  0.5727 -0.1812 -0.8335
  192DOPC  H17X23791   0.098   7.598  13.827 -0.0101 -0.3387  0.5964
  192DOPC  H17Y23792   0.114   7.754  13.921 -0.8261 -0.7236 -1.3830
  192DOPC  C31823793   0.242   7.737  13.746  0.3349  0.6409 -0.3821
  192DOPC  H18X23794   0.322   7.807  13.777 -0.5192  1.2277  0.5791
  192DOPC  H18Y23795   0.282   7.652  13.686  0.2585 -1.2754  2.1139
  192DOPC  H18Z23796   0.177   7.803  13.685 -1.8260 -0.2825  0.7665
  193DOPC     N23797   7.831   1.843  12.876 -0.2845 -0.6059 -0.6663
  193DOPC   C1223798   7.982   1.859  12.862 -0.0795  0.0627  0.1150
  193DOPC  H12A23799   8.018   1.932  12.933 -1.4078  1.4535 -0.5918
  193DOPC  H12B23800   7.991   1.900  12.762 -1.6539 -2.8655 -1.3544
  193DOPC   C1323801   7.756   1.975  12.878 -0.0551 -0.2054  0.2218
  193DOPC  H13A23802   7.787   2.043  12.956  0.3526  0.2437 -0.3268
  193DOPC  H13B23803   7.767   2.034  12.788 -1.4660  0.2715  0.3328
  193DOPC  H13C23804   7.649   1.967  12.892 -0.5434 -0.1870 -2.8274
  193DOPC   C1423805   7.796   1.774  13.000  0.7507 -0.0166 -0.5943
  193DOPC  H14A23806   7.701   1.808  13.037  0.9136  0.2653 -0.4339
  193DOPC  H14B23807   7.780   1.668  12.988 -0.8190  0.3847 -2.4974
  193DOPC  H14C23808   7.874   1.799  13.071 -0.5246  1.2041  0.4172
  193DOPC   C1523809   7.786   1.768  12.764  0.4371  0.7664  0.2125
  193DOPC  H15A23810   7.834   1.673  12.745 -1.3158 -0.4132  1.3487
  193DOPC  H15B23811   7.796   1.817  12.669 -0.5074  0.0445 -0.2792
  193DOPC  H15C23812   7.682   1.738  12.771  0.7679 -0.8922 -1.3063
  193DOPC   C1123813   8.068   1.727  12.855 -0.0324  0.1216  0.7046
  193DOPC  H11A23814   8.030   1.677  12.763  0.4559  0.0500  0.5416
  193DOPC  H11B23815   8.172   1.755  12.829 -0.1407 -0.4219 -0.3607
  193DOPC     P23816   8.156   1.662  13.083 -0.0731  0.3629  0.2768
  193DOPC   O1323817   8.147   1.783  13.163 -0.9721  0.5173  0.1279
  193DOPC   O1423818   8.287   1.628  13.022 -0.3157  0.0233  0.7155
  193DOPC   O1223819   8.046   1.655  12.968 -0.1982 -0.5383 -0.4193
  193DOPC   O1123820   8.111   1.537  13.169  0.0141 -0.4605 -0.2294
  193DOPC    C123821   7.968   1.518  13.201 -0.2851 -0.7077 -0.6001
  193DOPC    HA23822   7.927   1.451  13.122  1.8904 -2.0035 -0.7008
  193DOPC    HB23823   7.909   1.611  13.189 -0.8925 -1.0182 -0.1028
  193DOPC    C223824   7.929   1.450  13.334  0.6651 -0.2232 -0.9855
  193DOPC    HS23825   7.827   1.481  13.364  1.0676 -0.6916  1.0191
  193DOPC   O2123826   8.020   1.481  13.441 -0.3627  0.5030 -0.1895
  193DOPC   C2123827   8.010   1.603  13.479 -0.0146  0.0397 -0.2726
  193DOPC   O2223828   7.932   1.688  13.427  0.0070  0.6213 -0.4439
  193DOPC   C2223829   8.107   1.630  13.595 -0.4399  0.0366 -0.2629
  193DOPC   H2R23830   8.206   1.616  13.547 -0.6746 -1.1209 -0.4198
  193DOPC   H2S23831   8.081   1.548  13.665 -1.7149  0.3071 -0.3900
  193DOPC    C323832   7.924   1.298  13.315  0.1919  0.0831 -0.2784
  193DOPC    HX23833   8.027   1.264  13.291 -0.0469  0.1283 -1.4237
  193DOPC    HY23834   7.860   1.283  13.226 -0.3850  1.2275 -0.0684
  193DOPC   O3123835   7.860   1.240  13.434 -0.2083  0.2781 -0.4245
  193DOPC   C3123836   7.736   1.241  13.450  0.1943 -0.8756  0.1382
  193DOPC   O3223837   7.652   1.259  13.360 -0.3762 -0.1849  0.1305
  193DOPC   C3223838   7.711   1.190  13.589  0.0245  0.0980  0.3984
  193DOPC   H2X23839   7.662   1.091  13.576  0.6723 -0.0334 -1.3491
  193DOPC   H2Y23840   7.802   1.151  13.638  0.6001 -1.7336 -1.9145
  193DOPC   C2323841   8.100   1.767  13.660  0.6338  0.1029 -0.2430
  193DOPC   H3R23842   8.098   1.849  13.585  1.5032 -0.1108 -0.5050
  193DOPC   H3S23843   8.190   1.766  13.725  1.1061 -0.1701 -0.8963
  193DOPC   C2423844   7.970   1.774  13.749  0.1695  0.2402  0.4356
  193DOPC   H4R23845   7.895   1.734  13.677 -0.1449 -0.0394  0.9131
  193DOPC   H4S23846   7.952   1.882  13.766 -0.0086  0.1432  0.8802
  193DOPC   C2523847   7.971   1.689  13.874 -0.4732 -0.3354 -0.1282
  193DOPC   H5R23848   8.049   1.721  13.947  0.8634  3.6012 -2.9612
  193DOPC   H5S23849   7.999   1.586  13.843 -0.3248 -0.1111 -0.7483
  193DOPC   C2623850   7.836   1.688  13.953  0.6417  0.1788  0.1460
  193DOPC   H6R23851   7.853   1.629  14.046 -0.5210 -0.0897  0.2028
  193DOPC   H6S23852   7.774   1.623  13.887  2.2946 -0.1887 -1.1044
  193DOPC   C2723853   7.767   1.825  13.978 -0.3523  0.4120 -0.5746
  193DOPC   H7R23854   7.742   1.874  13.882  0.5038  0.6567 -0.6755
  193DOPC   H7S23855   7.833   1.897  14.031 -1.4394  0.9375  0.1017
  193DOPC   C2823856   7.645   1.808  14.065 -0.5249 -0.5225  0.4327
  193DOPC   H8R23857   7.631   1.912  14.102 -1.1679  0.4981 -2.4324
  193DOPC   H8S23858   7.681   1.748  14.151  0.9077  0.4469  0.5625
  193DOPC   C2923859   7.533   1.736  13.988 -0.7670 -0.2365 -0.1663
  193DOPC   H9R23860   7.564   1.652  13.923  0.7961  0.8709 -0.9167
  193DOPC  C21023861   7.407   1.776  13.982 -0.1677 -0.4563  0.1464
  193DOPC  H10R23862   7.330   1.710  13.937 -0.4984 -0.2943  0.4654
  193DOPC  C21123863   7.367   1.893  14.066  0.3271 -0.5585  0.4388
  193DOPC  H11R23864   7.288   1.931  13.998  0.1349 -2.9468 -0.7778
  193DOPC  H11S23865   7.441   1.976  14.058 -1.3709  0.8231 -3.6377
  193DOPC  C21223866   7.297   1.885  14.205 -0.2238 -0.2563  0.0187
  193DOPC  H12R23867   7.380   1.870  14.277 -0.4438 -0.5474  0.2124
  193DOPC  H12S23868   7.222   1.804  14.218  0.2835 -0.6295  0.7083
  193DOPC  C21323869   7.236   2.018  14.254  0.3093 -0.4094 -0.6007
  193DOPC  H13R23870   7.193   2.057  14.159  0.8301 -0.0962 -0.7098
  193DOPC  H13S23871   7.320   2.087  14.278 -0.0066 -0.2109 -0.0437
  193DOPC  C21423872   7.130   2.006  14.363 -0.1308  0.2590  0.2885
  193DOPC  H14R23873   7.040   1.948  14.332  0.7824 -1.6001  0.9633
  193DOPC  H14S23874   7.089   2.099  14.407 -1.5634 -0.3764  0.3624
  193DOPC  C21523875   7.189   1.935  14.488  0.0165 -0.6011 -0.0250
  193DOPC  H15R23876   7.291   1.977  14.501  0.8641 -2.8510  1.1097
  193DOPC  H15S23877   7.211   1.828  14.468 -2.8507 -1.3083  0.1037
  193DOPC  C21623878   7.092   1.947  14.607 -0.3740 -0.1525 -0.1546
  193DOPC  H16R23879   6.988   1.950  14.568 -0.2536 -0.0931 -0.4757
  193DOPC  H16S23880   7.101   2.049  14.652 -0.0584 -0.4457  0.4658
  193DOPC  C21723881   7.118   1.863  14.735 -0.2032  0.5876 -0.4508
  193DOPC  H17R23882   7.095   1.755  14.717 -0.6100  0.1811  2.1170
  193DOPC  H17S23883   7.037   1.902  14.801  1.3951  2.5707  0.4505
  193DOPC  C21823884   7.245   1.885  14.812  0.0022 -0.1736 -0.3836
  193DOPC  H18R23885   7.257   1.824  14.905 -1.4224 -1.1546 -0.8118
  193DOPC  H18S23886   7.243   1.995  14.825 -1.5914 -0.1059 -0.9732
  193DOPC  H18T23887   7.328   1.849  14.748  0.3851  2.5441 -1.5708
  193DOPC   C3323888   7.635   1.292  13.671  0.0916 -0.2749 -0.3404
  193DOPC   H3X23889   7.686   1.390  13.675  0.4859 -0.5041  1.8964
  193DOPC   H3Y23890   7.619   1.250  13.773  0.3024  0.2289 -0.0988
  193DOPC   C3423891   7.490   1.301  13.628 -0.8002 -0.6290  0.0127
  193DOPC   H4X23892   7.439   1.205  13.609  0.5282 -1.3299 -0.1473
  193DOPC   H4Y23893   7.487   1.365  13.537  2.3116  0.2098  0.3771
  193DOPC   C3523894   7.396   1.371  13.734 -0.2423  0.2650 -0.9078
  193DOPC   H5X23895   7.443   1.471  13.743  2.5672 -1.1058  1.4872
  193DOPC   H5Y23896   7.406   1.320  13.833 -1.0672 -1.3119 -1.5882
  193DOPC   C3623897   7.251   1.391  13.688  0.0681  0.3422 -0.4284
  193DOPC   H6X23898   7.231   1.465  13.608 -2.0107 -0.5258 -0.7627
  193DOPC   H6Y23899   7.224   1.289  13.655  1.7659 -0.3455  0.1975
  193DOPC   C3723900   7.167   1.424  13.809  0.0285  0.1891 -0.3856
  193DOPC   H7X23901   7.137   1.327  13.854  2.2830  0.3039  1.6253
  193DOPC   H7Y23902   7.222   1.479  13.889 -0.1219 -1.3693  0.8311
  193DOPC   C3823903   7.032   1.494  13.781  0.7408  0.4430 -0.2682
  193DOPC   H8X23904   6.973   1.499  13.876  2.1368 -1.1396  0.7349
  193DOPC   H8Y23905   6.975   1.428  13.712  0.4770  0.7507 -0.3520
  193DOPC   C3923906   7.043   1.633  13.715  0.0525  0.6204 -0.3538
  193DOPC   H9X23907   7.064   1.635  13.607  0.9193 -1.0669 -0.2424
  193DOPC  C31023908   7.019   1.749  13.775 -0.0391 -0.0795 -0.3397
  193DOPC  H10X23909   7.016   1.839  13.711 -0.3872 -0.6639 -1.1655
  193DOPC  C31123910   6.995   1.775  13.926 -0.1122 -0.2254  0.0239
  193DOPC  H11X23911   7.088   1.828  13.954  0.4486  1.0090 -3.5945
  193DOPC  H11Y23912   6.987   1.683  13.988 -1.1217  1.5327  2.6920
  193DOPC  C31223913   6.872   1.862  13.955 -0.5775  0.0681 -0.2361
  193DOPC  H12X23914   6.783   1.817  13.908 -0.3920 -1.2880  0.6541
  193DOPC  H12Y23915   6.901   1.961  13.913  0.6398  0.7297  2.0043
  193DOPC  C31323916   6.844   1.876  14.104  0.1186 -0.7012  0.6751
  193DOPC  H13X23917   6.860   1.783  14.164  0.8492 -1.9658 -1.3757
  193DOPC  H13Y23918   6.911   1.948  14.156 -0.1824 -0.6594  1.0049
  193DOPC  C31423919   6.697   1.905  14.145  0.1776  0.3971  0.8066
  193DOPC  H14X23920   6.677   2.006  14.102  0.5965 -0.2015 -0.8731
  193DOPC  H14Y23921   6.631   1.824  14.106  1.0317  0.4262 -0.7977
  193DOPC  C31523922   6.685   1.913  14.291 -0.4152  0.3079 -0.1668
  193DOPC  H15X23923   6.782   1.947  14.333 -0.7219 -0.0824  0.9001
  193DOPC  H15Y23924   6.653   1.813  14.327  0.1296  0.2099  0.0528
  193DOPC  C31623925   6.588   2.026  14.332  0.1326  0.4072 -0.2898
  193DOPC  H16X23926   6.615   2.129  14.302 -0.2817  0.7564  0.4925
  193DOPC  H16Y23927   6.485   2.005  14.299  0.2837 -0.1903 -0.3930
  193DOPC  C31723928   6.581   2.034  14.491 -0.5158 -0.0510  0.7510
  193DOPC  H17X23929   6.544   1.934  14.521 -0.6285 -0.3795 -0.4393
  193DOPC  H17Y23930   6.687   2.051  14.518 -0.1336  0.6476 -1.0150
  193DOPC  C31823931   6.488   2.144  14.534  0.0263  0.0664  0.3986
  193DOPC  H18X23932   6.473   2.153  14.644 -0.8064 -0.3326  0.3237
  193DOPC  H18Y23933   6.532   2.246  14.526  0.5680  0.1128  2.9706
  193DOPC  H18Z23934   6.389   2.144  14.485  0.1678  1.9124  0.0421
  194DOPC     N23935   0.282   0.495  12.992 -0.5083  0.3710  0.5491
  194DOPC   C1223936   0.231   0.592  13.095  0.3946  0.6185 -0.2742
  194DOPC  H12A23937   0.249   0.693  13.061  2.8150  0.9317  1.6478
  194DOPC  H12B23938   0.287   0.573  13.186  0.2962 -1.9082 -0.6724
  194DOPC   C1323939   0.196   0.503  12.866  0.3423 -0.4371  0.7129
  194DOPC  H13A23940   0.219   0.417  12.806  1.2169 -0.5571  1.2026
  194DOPC  H13B23941   0.091   0.509  12.888 -0.7810 -0.6794 -3.7101
  194DOPC  H13C23942   0.222   0.585  12.801 -0.4277 -1.2142 -0.6067
  194DOPC   C1423943   0.273   0.352  13.038  0.1499 -0.4050 -0.5124
  194DOPC  H14A23944   0.316   0.347  13.137 -1.6139  1.8866  0.5026
  194DOPC  H14B23945   0.171   0.319  13.050  0.5668 -2.3124 -1.8480
  194DOPC  H14C23946   0.331   0.281  12.981 -1.1110 -0.7128 -1.4607
  194DOPC   C1523947   0.424   0.527  12.953  0.4266 -0.2097  0.6270
  194DOPC  H15A23948   0.494   0.501  13.031  0.2107  1.2398  1.3350
  194DOPC  H15B23949   0.439   0.633  12.943 -1.1990  0.3030  2.8032
  194DOPC  H15C23950   0.456   0.473  12.865 -0.3961  0.0031  0.1771
  194DOPC   C1123951   0.083   0.573  13.137 -0.3060 -0.3988 -0.0487
  194DOPC  H11A23952   0.072   0.470  13.178 -2.3898  0.0492  0.6642
  194DOPC  H11B23953   0.069   0.647  13.219  2.1878  2.2216 -1.8053
  194DOPC     P23954  -0.141   0.501  13.031  0.2123 -0.0372 -0.5814
  194DOPC   O1323955  -0.107   0.388  12.942  0.2664 -0.1751  0.0139
  194DOPC   O1423956  -0.257   0.584  12.996 -0.2135  0.6004 -0.3275
  194DOPC   O1223957  -0.019   0.598  13.036 -0.0496  0.2456 -0.3066
  194DOPC   O1123958  -0.149   0.453  13.183  0.3522  0.0951  0.4724
  194DOPC    C123959  -0.239   0.508  13.279 -0.1413  0.1103 -0.0118
  194DOPC    HA23960  -0.343   0.488  13.247  0.0082 -0.2483 -0.2851
  194DOPC    HB23961  -0.237   0.619  13.285  1.2510  0.2636 -2.1741
  194DOPC    C223962  -0.217   0.459  13.421  0.2388 -0.3239  0.0567
  194DOPC    HS23963  -0.283   0.519  13.487  1.6591 -0.5254  1.7339
  194DOPC   O2123964  -0.074   0.472  13.458  0.4230  0.4762 -0.3838
  194DOPC   C2123965  -0.036   0.600  13.484  0.4214 -0.0839 -0.5572
  194DOPC   O2223966  -0.113   0.694  13.492 -0.4453  0.0737 -0.4851
  194DOPC   C2223967   0.117   0.605  13.522 -0.1670 -0.2097  0.2239
  194DOPC   H2R23968   0.182   0.595  13.433 -0.3641 -0.2212  0.0812
  194DOPC   H2S23969   0.147   0.518  13.585 -0.3102 -0.2769  0.2003
  194DOPC    C323970  -0.262   0.312  13.423  0.4164 -0.5603 -0.8279
  194DOPC    HX23971  -0.181   0.259  13.369 -0.2406 -1.7215 -0.7116
  194DOPC    HY23972  -0.359   0.305  13.370 -1.1452  0.3447  1.7483
  194DOPC   O3123973  -0.282   0.268  13.557  0.2656  0.0121 -0.2218
  194DOPC   C3123974  -0.268   0.132  13.568  0.0742  0.1119  0.2918
  194DOPC   O3223975  -0.235   0.062  13.477  0.2982 -0.0015  0.1840
  194DOPC   C3223976  -0.286   0.086  13.709 -0.3264  0.1167  0.1691
  194DOPC   H2X23977  -0.394   0.107  13.728 -0.2830 -0.4002  1.0629
  194DOPC   H2Y23978  -0.265  -0.022  13.720  0.9307  0.3841  0.5405
  194DOPC   C2323979   0.157   0.738  13.588  0.4014  0.1813  0.3535
  194DOPC   H3R23980   0.122   0.762  13.691 -1.5234  0.8691 -0.4216
  194DOPC   H3S23981   0.113   0.820  13.529 -2.5512 -1.2761  0.3397
  194DOPC   C2423982   0.307   0.765  13.594 -0.4314  0.7413  0.6217
  194DOPC   H4R23983   0.321   0.875  13.601 -1.9349  1.0969 -1.2219
  194DOPC   H4S23984   0.351   0.738  13.496 -0.2747  0.9720  0.6302
  194DOPC   C2523985   0.378   0.689  13.703 -0.1963  0.1187  0.1027
  194DOPC   H5R23986   0.342   0.584  13.696 -1.8757  0.4977  2.1646
  194DOPC   H5S23987   0.356   0.717  13.808  3.2735 -1.4323  1.4216
  194DOPC   C2623988   0.532   0.695  13.697 -0.3285 -0.7955 -0.2752
  194DOPC   H6R23989   0.575   0.659  13.601  0.4541 -0.8111  0.0744
  194DOPC   H6S23990   0.573   0.622  13.770  0.7808  0.3200  0.2382
  194DOPC   C2723991   0.585   0.841  13.719 -0.2336 -0.4978  0.1526
  194DOPC   H7R23992   0.552   0.918  13.646 -0.4460  1.2320  1.9813
  194DOPC   H7S23993   0.696   0.846  13.709 -0.2452  0.2534  0.4009
  194DOPC   C2823994   0.548   0.900  13.862  0.1887 -0.1286  1.1020
  194DOPC   H8R23995   0.579   0.827  13.940  1.4103 -1.7750 -0.7986
  194DOPC   H8S23996   0.438   0.918  13.857  0.2050  0.0896  1.4876
  194DOPC   C2923997   0.615   1.040  13.872 -0.2781 -0.6225  0.5962
  194DOPC   H9R23998   0.638   1.092  13.777 -2.2732  0.6210  0.7511
  194DOPC  C21023999   0.657   1.084  13.987  0.7280  0.1707  0.1419
  194DOPC  H10R24000   0.709   1.181  13.997 -1.1773  1.1003  1.8810
  194DOPC  C21124001   0.641   1.010  14.124 -0.2150 -0.3580  1.0511
  194DOPC  H11R24002   0.544   0.956  14.129 -0.9067  0.8624  1.1576
  194DOPC  H11S24003   0.633   1.081  14.208 -1.9432 -0.5249  1.0534
  194DOPC  C21224004   0.747   0.904  14.179 -0.2281 -0.2478  0.1021
  194DOPC  H12R24005   0.747   0.813  14.116 -1.6432 -0.7265  0.7431
  194DOPC  H12S24006   0.703   0.873  14.277 -0.1447 -2.3226 -0.4727
  194DOPC  C21324007   0.887   0.961  14.193 -0.5014 -0.3986 -0.3667
  194DOPC  H13R24008   0.880   1.055  14.253  1.5927 -1.1372  1.1234
  194DOPC  H13S24009   0.926   0.974  14.090  0.2801 -0.6077 -0.1028
  194DOPC  C21424010   0.986   0.870  14.263 -0.1515  0.1642 -0.2185
  194DOPC  H14R24011   0.975   0.764  14.229 -0.6726  0.5335 -1.2432
  194DOPC  H14S24012   0.961   0.860  14.371  0.5093 -0.4750 -0.1157
  194DOPC  C21524013   1.137   0.902  14.237  0.2135  0.8617 -0.2699
  194DOPC  H15R24014   1.152   1.008  14.267 -1.0549  1.0665 -0.2840
  194DOPC  H15S24015   1.140   0.892  14.127  0.3814  0.7055 -0.2502
  194DOPC  C21624016   1.240   0.823  14.310 -0.3405  0.6119 -0.6559
  194DOPC  H16R24017   1.229   0.848  14.418  2.7688  1.5965 -0.4414
  194DOPC  H16S24018   1.347   0.843  14.288  0.2313 -1.4746  0.0625
  194DOPC  C21724019   1.221   0.671  14.297 -0.1129  0.3788  0.1873
  194DOPC  H17R24020   1.209   0.656  14.187  0.8905  0.2780  0.0830
  194DOPC  H17S24021   1.141   0.626  14.359 -0.2441 -3.3934 -2.3572
  194DOPC  C21824022   1.342   0.593  14.345  0.4954 -0.1331  0.0423
  194DOPC  H18R24023   1.350   0.614  14.454 -0.2768 -1.6830  0.4227
  194DOPC  H18S24024   1.429   0.633  14.290 -0.8242  0.4761 -1.6909
  194DOPC  H18T24025   1.333   0.483  14.335 -2.3990 -0.2396  2.2760
  194DOPC   C3324026  -0.203   0.173  13.807  0.5508 -0.5797 -0.0430
  194DOPC   H3X24027  -0.247   0.272  13.832 -0.5115 -1.0534 -0.0037
  194DOPC   H3Y24028  -0.105   0.203  13.763 -0.2896  0.9495 -0.9648
  194DOPC   C3424029  -0.186   0.094  13.936 -0.2218  0.7310 -0.1040
  194DOPC   H4X24030  -0.109   0.159  13.982  0.5206  1.6606 -2.4857
  194DOPC   H4Y24031  -0.142  -0.006  13.918  1.2277  1.4085 -0.4957
  194DOPC   C3524032  -0.310   0.082  14.025 -0.4726  0.3490  0.0754
  194DOPC   H5X24033  -0.409   0.089  13.975 -1.2711  0.0421  1.5783
  194DOPC   H5Y24034  -0.301   0.168  14.094  0.7486 -0.1385  0.5523
  194DOPC   C3624035  -0.305  -0.047  14.103 -0.5078 -0.3378  0.2245
  194DOPC   H6X24036  -0.313  -0.124  14.023  1.5619  1.3687 -1.7573
  194DOPC   H6Y24037  -0.208  -0.058  14.156 -1.1044 -1.1711  1.1693
  194DOPC   C3724038  -0.415  -0.060  14.202  0.2921  0.6580  0.1949
  194DOPC   H7X24039  -0.414   0.034  14.262 -0.7963  0.6545  0.2419
  194DOPC   H7Y24040  -0.514  -0.074  14.154  1.2088 -0.0714 -1.5672
  194DOPC   C3824041  -0.406  -0.176  14.300 -0.5398  0.5312  0.3619
  194DOPC   H8X24042  -0.310  -0.182  14.355 -1.0060  1.4277  1.3235
  194DOPC   H8Y24043  -0.430  -0.271  14.248  3.9411 -1.6480  1.7788
  194DOPC   C3924044  -0.514  -0.146  14.403 -0.1693 -0.0531  0.6606
  194DOPC   H9X24045  -0.616  -0.142  14.362 -0.6721 -0.8458  1.8045
  194DOPC  C31024046  -0.498  -0.149  14.532 -0.1090 -0.3556 -0.2950
  194DOPC  H10X24047  -0.579  -0.101  14.589  0.0324 -0.3095 -0.1313
  194DOPC  C31124048  -0.374  -0.159  14.621 -0.3405  0.0337  0.8476
  194DOPC  H11X24049  -0.280  -0.185  14.569 -1.1234  1.1380 -1.2045
  194DOPC  H11Y24050  -0.379  -0.246  14.691  2.1418 -1.4170 -0.6455
  194DOPC  C31224051  -0.343  -0.028  14.700 -0.4555 -0.0519  0.1425
  194DOPC  H12X24052  -0.413   0.013  14.776  0.4040  0.6182  0.5838
  194DOPC  H12Y24053  -0.325   0.056  14.630  1.9705 -0.0481  0.6940
  194DOPC  C31324054  -0.215  -0.047  14.780 -0.0272 -0.0787 -0.6474
  194DOPC  H13X24055  -0.130  -0.057  14.709 -0.6316 -3.7340 -1.0617
  194DOPC  H13Y24056  -0.193   0.042  14.843  0.4925 -0.7017  0.0701
  194DOPC  C31424057  -0.211  -0.176  14.867  0.6430 -0.9476 -0.0692
  194DOPC  H14X24058  -0.303  -0.183  14.929  0.2418  0.7008 -0.4494
  194DOPC  H14Y24059  -0.197  -0.266  14.804  2.4878 -2.1185  1.8472
  194DOPC  C31524060  -0.107  -0.168  14.975  0.2234 -0.6604 -1.0402
  194DOPC  H15X24061  -0.092  -0.062  15.007  1.9763 -1.4102  0.9035
  194DOPC  H15Y24062  -0.013  -0.208  14.932 -0.8787 -1.6105 -2.6563
  194DOPC  C31624063  -0.130  -0.244  15.101 -0.5742 -0.0673  0.4688
  194DOPC  H16X24064  -0.210  -0.187  15.152 -0.9607  0.0820 -0.2863
  194DOPC  H16Y24065  -0.168  -0.347  15.084 -0.4231  0.2700 -2.4156
  194DOPC  C31724066  -0.015  -0.260  15.197 -0.0094  0.0713  0.3555
  194DOPC  H17X24067  -0.037  -0.321  15.287  2.3076 -0.5229  0.5802
  194DOPC  H17Y24068   0.065  -0.314  15.141 -0.4661  1.6481 -1.9399
  194DOPC  C31824069   0.052  -0.134  15.247 -0.2879 -0.1439  0.2831
  194DOPC  H18X24070   0.074  -0.070  15.159  0.8471 -0.6374  0.1899
  194DOPC  H18Y24071  -0.023  -0.074  15.303 -0.7148 -1.7152  1.4717
  194DOPC  H18Z24072   0.145  -0.155  15.303 -0.6166 -0.7858  0.5999
  195DOPC     N24073   6.987   7.496  12.889 -0.0759 -0.6831 -0.0695
  195DOPC   C1224074   7.115   7.425  12.860 -0.3145 -0.2002 -0.0463
  195DOPC  H12A24075   7.127   7.408  12.754 -0.7438  0.6928 -0.2573
  195DOPC  H12B24076   7.109   7.329  12.909 -1.7130 -0.0326  0.1588
  195DOPC   C1324077   6.869   7.425  12.845  0.6915  0.1827  0.3073
  195DOPC  H13A24078   6.855   7.332  12.898 -3.6854  1.2770  1.4247
  195DOPC  H13B24079   6.783   7.484  12.871  0.9139  0.1710  1.0804
  195DOPC  H13C24080   6.867   7.404  12.739  0.5769  0.4421  0.2570
  195DOPC   C1424081   6.991   7.619  12.803 -0.7372 -1.1280  0.5432
  195DOPC  H14A24082   6.914   7.691  12.828 -0.6556 -0.6859 -0.4315
  195DOPC  H14B24083   7.086   7.668  12.823 -0.4368 -1.3949 -0.1921
  195DOPC  H14C24084   6.985   7.594  12.699  1.9937  1.2128 -0.3230
  195DOPC   C1524085   6.972   7.536  13.030  0.5267  0.2646  0.4904
  195DOPC  H15A24086   6.880   7.593  13.037  0.4908  0.1731  0.8172
  195DOPC  H15B24087   7.054   7.598  13.062  1.2531 -1.7253  2.8878
  195DOPC  H15C24088   6.968   7.446  13.091 -0.1926 -0.8382 -1.1156
  195DOPC   C1124089   7.254   7.491  12.899 -0.5140 -0.3128  0.1135
  195DOPC  H11A24090   7.242   7.501  13.009  0.7573  1.4054  0.1245
  195DOPC  H11B24091   7.334   7.419  12.869  1.4898  2.8109 -2.9014
  195DOPC     P24092   7.417   7.684  12.855  0.1319 -0.1193 -0.1951
  195DOPC   O1324093   7.403   7.833  12.849  0.2070  0.6927 -0.1263
  195DOPC   O1424094   7.511   7.622  12.762 -0.6403 -0.4463  0.0921
  195DOPC   O1224095   7.278   7.620  12.844  0.2666  0.1715  0.4760
  195DOPC   O1124096   7.457   7.645  13.002 -0.3181 -0.0106 -0.1303
  195DOPC    C124097   7.401   7.712  13.117 -0.1870  0.1621 -0.3231
  195DOPC    HA24098   7.317   7.653  13.159 -1.0853  1.9169  0.4492
  195DOPC    HB24099   7.364   7.815  13.098  0.2631  0.8393  2.1269
  195DOPC    C224100   7.510   7.728  13.229  0.1154 -0.3886 -0.0275
  195DOPC    HS24101   7.563   7.826  13.230  1.6960 -1.2027  1.2386
  195DOPC   O2124102   7.604   7.618  13.232 -0.2373 -0.2887  0.6065
  195DOPC   C2124103   7.717   7.632  13.168 -0.9806 -0.4110  0.2270
  195DOPC   O2224104   7.752   7.735  13.103  0.0940 -0.3075 -0.6508
  195DOPC   C2224105   7.798   7.514  13.189  0.5157  0.2096 -0.1260
  195DOPC   H2R24106   7.882   7.518  13.116 -0.0254 -0.5324 -0.8115
  195DOPC   H2S24107   7.739   7.422  13.169 -0.1164  0.5066  0.3427
  195DOPC    C324108   7.437   7.727  13.373  0.1281  0.0952  0.4158
  195DOPC    HX24109   7.394   7.625  13.373 -0.5285  0.3605 -0.5087
  195DOPC    HY24110   7.357   7.803  13.380  1.0923  1.0422  1.5306
  195DOPC   O3124111   7.531   7.715  13.479  0.1520 -0.8021 -0.1769
  195DOPC   C3124112   7.596   7.834  13.503  0.1739 -0.4583 -1.0316
  195DOPC   O3224113   7.573   7.938  13.446  0.3515  0.5993  0.5451
  195DOPC   C3224114   7.699   7.812  13.624 -0.5414  0.5492 -0.4572
  195DOPC   H2X24115   7.649   7.845  13.717  1.7400  0.9742  0.6844
  195DOPC   H2Y24116   7.723   7.704  13.629 -0.3427  0.6190  0.1353
  195DOPC   C2324117   7.849   7.499  13.334  0.5073  0.5146 -0.0763
  195DOPC   H3R24118   7.884   7.393  13.340  0.8684  0.6903  1.5124
  195DOPC   H3S24119   7.763   7.498  13.405  1.9614 -0.5499  1.7681
  195DOPC   C2424120   7.961   7.586  13.386 -0.1155 -0.0752 -0.1067
  195DOPC   H4R24121   7.949   7.579  13.497 -0.9764 -2.8321 -0.2894
  195DOPC   H4S24122   7.951   7.694  13.362  1.1233 -0.0523 -0.5431
  195DOPC   C2524123   8.101   7.534  13.362 -0.0934 -0.5626  0.0424
  195DOPC   H5R24124   8.113   7.514  13.253 -0.1510 -0.2747 -0.0160
  195DOPC   H5S24125   8.120   7.435  13.410  0.3230  0.0892  1.2666
  195DOPC   C2624126   8.211   7.629  13.412  0.5571  0.5536 -0.0001
  195DOPC   H6R24127   8.176   7.724  13.368 -1.4796 -0.7147 -1.2903
  195DOPC   H6S24128   8.306   7.614  13.357  1.0844 -0.7094  1.1894
  195DOPC   C2724129   8.236   7.632  13.562  0.8839 -0.4550 -0.1468
  195DOPC   H7R24130   8.276   7.536  13.600  3.8551  1.0622  0.8926
  195DOPC   H7S24131   8.139   7.657  13.609  1.8694  0.0204  1.7000
  195DOPC   C2824132   8.341   7.743  13.602  0.3529  0.0218 -0.3598
  195DOPC   H8R24133   8.321   7.771  13.708  2.7761 -0.9114  0.4056
  195DOPC   H8S24134   8.318   7.835  13.545  1.7485  0.8525  0.3626
  195DOPC   C2924135   8.487   7.702  13.587 -0.4349 -0.1864 -0.4349
  195DOPC   H9R24136   8.511   7.624  13.513  1.4931 -0.2527  0.2191
  195DOPC  C21024137   8.592   7.754  13.656  0.1264 -0.5239 -0.0850
  195DOPC  H10R24138   8.691   7.726  13.618  0.2722  0.0796 -0.1600
  195DOPC  C21124139   8.587   7.853  13.770  0.8763  0.2630 -0.1915
  195DOPC  H11R24140   8.588   7.799  13.867 -2.4973  2.9739  1.5926
  195DOPC  H11S24141   8.494   7.913  13.764  0.0766 -0.8310  0.9955
  195DOPC  C21224142   8.708   7.948  13.781 -0.4275 -0.8952 -0.2072
  195DOPC  H12R24143   8.679   8.015  13.865 -2.1900 -2.2054  0.2969
  195DOPC  H12S24144   8.696   7.995  13.681  3.3323 -1.5739 -1.1181
  195DOPC  C21324145   8.849   7.888  13.803 -0.0548 -0.2943  0.2953
  195DOPC  H13R24146   8.915   7.977  13.803 -0.5143  0.0819  2.2025
  195DOPC  H13S24147   8.877   7.825  13.716 -0.6417  0.3916 -0.4084
  195DOPC  C21424148   8.871   7.805  13.929  0.2638  0.0346  0.2284
  195DOPC  H14R24149   8.807   7.714  13.923 -2.4237  1.7547  1.3565
  195DOPC  H14S24150   8.829   7.862  14.014 -1.9550  0.4086 -1.0356
  195DOPC  C21524151   9.017   7.774  13.956  0.4096 -0.8377  0.1287
  195DOPC  H15R24152   9.064   7.873  13.973  1.2603 -1.0985 -0.6256
  195DOPC  H15S24153   9.067   7.732  13.866  1.6319  1.7222 -0.4892
  195DOPC  C21624154   9.037   7.675  14.077  0.2928  0.1030 -0.1271
  195DOPC  H16R24155   9.110   7.601  14.038  1.0304  1.6295 -1.8285
  195DOPC  H16S24156   8.938   7.627  14.091  0.0120 -0.0201 -2.1582
  195DOPC  C21724157   9.088   7.740  14.208  0.0328  0.5130 -1.0024
  195DOPC  H17R24158   9.194   7.773  14.201  0.3415 -0.2381 -0.1947
  195DOPC  H17S24159   9.082   7.644  14.264  1.0750  1.2500  0.4506
  195DOPC  C21824160   8.984   7.838  14.271  0.0467 -0.4370 -0.3071
  195DOPC  H18R24161   8.886   7.786  14.274  0.6029 -1.5891  2.8397
  195DOPC  H18S24162   8.984   7.927  14.205  2.4151  0.9401  1.3902
  195DOPC  H18T24163   9.026   7.862  14.372 -0.2160 -0.5795 -0.1616
  195DOPC   C3324164   7.826   7.890  13.597  0.0772 -0.2384  0.8789
  195DOPC   H3X24165   7.843   7.912  13.489 -1.2487 -3.5271 -0.1227
  195DOPC   H3Y24166   7.914   7.829  13.627 -0.3244 -0.6426  1.2631
  195DOPC   C3424167   7.837   8.023  13.667 -0.1717 -0.7760 -0.5240
  195DOPC   H4X24168   7.760   8.092  13.626  1.2472  0.0635 -1.8737
  195DOPC   H4Y24169   7.931   8.070  13.630 -0.3925  0.8049  0.7796
  195DOPC   C3524170   7.856   8.019  13.818  0.0210 -0.0113 -1.1074
  195DOPC   H5X24171   7.751   7.998  13.846 -0.4850  0.3875 -2.5869
  195DOPC   H5Y24172   7.898   8.115  13.857 -1.1402 -0.1401  0.5392
  195DOPC   C3624173   7.954   7.917  13.873  0.6409 -0.7987 -0.2293
  195DOPC   H6X24174   7.930   7.818  13.828 -0.3165  0.4650 -2.7289
  195DOPC   H6Y24175   8.058   7.949  13.850  1.2409 -1.3554  1.5600
  195DOPC   C3724176   7.949   7.918  14.024 -0.0064  0.2851  0.0213
  195DOPC   H7X24177   7.996   8.009  14.067 -1.3709 -0.0646  2.4401
  195DOPC   H7Y24178   7.847   7.911  14.067 -0.4490  0.3220 -0.9845
  195DOPC   C3824179   8.023   7.795  14.078  0.0672 -0.1205  0.1390
  195DOPC   H8X24180   8.054   7.822  14.181 -1.2671 -0.7594  0.7402
  195DOPC   H8Y24181   8.105   7.762  14.011  0.0318  1.9456 -0.9774
  195DOPC   C3924182   7.934   7.670  14.107  0.0230 -0.0856  0.3842
  195DOPC   H9X24183   7.879   7.679  14.201  0.1047  0.3397  0.3935
  195DOPC  C31024184   7.924   7.556  14.041  0.0255  0.8249 -0.1473
  195DOPC  H10X24185   7.853   7.480  14.077  0.5858 -1.0558 -2.6703
  195DOPC  C31124186   7.998   7.517  13.914 -1.0616  0.2611  0.2866
  195DOPC  H11X24187   8.043   7.415  13.920  0.8113  1.0074 -0.2479
  195DOPC  H11Y24188   8.083   7.584  13.887 -0.2648 -0.7152  0.3041
  195DOPC  C31224189   7.906   7.516  13.787  0.1752 -0.7805  0.1835
  195DOPC  H12X24190   7.973   7.509  13.699  0.7225  1.1635  0.4122
  195DOPC  H12Y24191   7.868   7.619  13.772  0.1288 -0.4850  2.0607
  195DOPC  C31324192   7.803   7.404  13.787 -0.0466  0.0331 -0.2808
  195DOPC  H13X24193   7.856   7.307  13.794 -0.4856 -0.3335 -1.7542
  195DOPC  H13Y24194   7.736   7.416  13.875  0.6043  1.0299  0.0952
  195DOPC  C31424195   7.735   7.385  13.645 -0.0835 -0.0553 -0.2110
  195DOPC  H14X24196   7.693   7.484  13.616 -0.5302 -0.4313 -0.8542
  195DOPC  H14Y24197   7.816   7.359  13.574  0.0428 -0.9775  0.2587
  195DOPC  C31524198   7.640   7.270  13.648  0.1176  0.1497  0.2658
  195DOPC  H15X24199   7.569   7.295  13.730 -0.6182 -1.5052  0.1666
  195DOPC  H15Y24200   7.701   7.178  13.661  1.3638  0.6857 -1.4716
  195DOPC  C31624201   7.556   7.259  13.523 -0.8354  0.0370  0.1115
  195DOPC  H16X24202   7.468   7.199  13.555 -0.7601  0.4261  1.1167
  195DOPC  H16Y24203   7.537   7.364  13.494 -0.2067 -0.0103 -0.4947
  195DOPC  C31724204   7.633   7.191  13.401 -0.1802  0.2180 -0.2907
  195DOPC  H17X24205   7.566   7.214  13.316  2.9291 -0.6918 -3.1928
  195DOPC  H17Y24206   7.726   7.246  13.376 -0.8601  0.9597 -1.2616
  195DOPC  C31824207   7.660   7.044  13.417 -0.4566 -0.0933 -0.2247
  195DOPC  H18X24208   7.559   6.999  13.423 -0.1504 -0.7598 -0.0074
  195DOPC  H18Y24209   7.706   6.990  13.331  0.7643  1.7195 -0.7628
  195DOPC  H18Z24210   7.715   7.033  13.513  0.5579  2.9599 -0.3461
  196DOPC     N24211   8.745   1.643  13.094  0.1613 -0.7511  0.3194
  196DOPC   C1224212   8.757   1.585  13.234  0.9738  0.2034  0.3563
  196DOPC  H12A24213   8.782   1.480  13.230 -0.7325 -0.2415  0.6003
  196DOPC  H12B24214   8.660   1.592  13.282  0.0622  2.0730 -1.6140
  196DOPC   C1324215   8.853   1.593  13.012  0.1714  0.4333  0.1959
  196DOPC  H13A24216   8.944   1.646  13.039 -0.3919  1.4245  0.1687
  196DOPC  H13B24217   8.870   1.489  13.036  2.2832  1.1563  2.2348
  196DOPC  H13C24218   8.834   1.615  12.908 -1.3659  2.5668  0.8568
  196DOPC   C1424219   8.743   1.795  13.090  0.0899  0.3027 -0.4325
  196DOPC  H14A24220   8.658   1.831  13.147 -0.7974 -3.2404  0.6885
  196DOPC  H14B24221   8.833   1.818  13.144  0.6540 -2.4512 -0.0660
  196DOPC  H14C24222   8.743   1.845  12.994 -3.6980 -0.0701 -0.7809
  196DOPC   C1524223   8.620   1.598  13.018  0.3698  0.9564  0.8149
  196DOPC  H15A24224   8.527   1.636  13.058 -0.0282 -0.3702  1.2118
  196DOPC  H15B24225   8.616   1.490  13.015  0.8754  0.9377 -2.5632
  196DOPC  H15C24226   8.635   1.626  12.915 -1.0196  0.0486  0.3479
  196DOPC   C1124227   8.866   1.649  13.315  0.0607  0.7664 -0.2721
  196DOPC  H11A24228   8.861   1.759  13.304  1.3993  0.7397 -1.6035
  196DOPC  H11B24229   8.844   1.615  13.418 -0.6735 -1.3525 -1.0687
  196DOPC     P24230   9.030   1.451  13.277 -0.2154 -0.0266  0.0627
  196DOPC   O1324231   9.036   1.401  13.142  0.3463 -0.0145  1.4372
  196DOPC   O1424232   8.936   1.381  13.366 -0.2884  0.1765 -0.6464
  196DOPC   O1224233   8.997   1.601  13.274 -0.5020  0.1719  0.2991
  196DOPC   O1124234   9.176   1.437  13.336 -0.5020  0.7143 -0.5079
  196DOPC    C124235   9.193   1.504  13.467 -0.3292 -0.0599 -0.6697
  196DOPC    HA24236   9.127   1.592  13.484 -0.3262  0.2299 -2.0551
  196DOPC    HB24237   9.294   1.548  13.454 -1.3555  2.5091 -0.4271
  196DOPC    C224238   9.185   1.405  13.596  0.5727 -0.3193 -0.4983
  196DOPC    HS24239   9.082   1.364  13.608  0.2090  1.1295  2.4234
  196DOPC   O2124240   9.220   1.469  13.718 -0.2625 -0.9531  0.3625
  196DOPC   C2124241   9.138   1.562  13.768 -0.4178 -0.1785  0.0058
  196DOPC   O2224242   9.029   1.581  13.723 -0.1758  0.2938 -0.3347
  196DOPC   C2224243   9.212   1.648  13.872  0.3988  0.1244  0.7591
  196DOPC   H2R24244   9.235   1.742  13.817  1.4108 -0.0424  0.8638
  196DOPC   H2S24245   9.309   1.600  13.901 -0.3675 -1.6755  0.4556
  196DOPC    C324246   9.280   1.291  13.574 -0.2430  0.2655  0.2634
  196DOPC    HX24247   9.385   1.327  13.586 -0.6238  1.9601 -1.0602
  196DOPC    HY24248   9.273   1.247  13.473 -1.9828  3.7707 -1.3280
  196DOPC   O3124249   9.259   1.205  13.690  1.3123 -0.1617  0.2103
  196DOPC   C3124250   9.210   1.087  13.663  0.6061 -0.2454 -0.2843
  196DOPC   O3224251   9.187   1.039  13.555  0.3461 -0.2790 -0.1909
  196DOPC   C3224252   9.183   1.027  13.799  0.3700 -0.2914 -0.7422
  196DOPC   H2X24253   9.101   1.086  13.846  0.7476 -1.1788  1.1220
  196DOPC   H2Y24254   9.141   0.927  13.774  1.4836 -1.0317  0.2454
  196DOPC   C2324255   9.138   1.696  13.998 -0.2672 -0.0024 -0.8147
  196DOPC   H3R24256   9.032   1.723  13.974  0.0813  0.8421 -1.4577
  196DOPC   H3S24257   9.174   1.796  14.028 -0.2015 -0.3819  0.4128
  196DOPC   C2424258   9.150   1.596  14.112  0.2146  0.2272 -0.0877
  196DOPC   H4R24259   9.259   1.579  14.129  0.8005  2.4710 -1.2319
  196DOPC   H4S24260   9.101   1.501  14.082 -0.9074  0.2160  1.6536
  196DOPC   C2524261   9.076   1.637  14.245  0.3117 -0.1841 -0.2614
  196DOPC   H5R24262   8.978   1.679  14.211  0.7201  3.2962  2.2590
  196DOPC   H5S24263   9.117   1.720  14.307 -0.8314 -0.7504  1.3422
  196DOPC   C2624264   9.053   1.521  14.346  0.1278 -0.5894  0.0277
  196DOPC   H6R24265   9.034   1.577  14.440  3.6646  3.7542 -1.4959
  196DOPC   H6S24266   9.154   1.476  14.359  0.0122 -1.2778 -1.3280
  196DOPC   C2724267   8.964   1.409  14.297  0.3289 -0.1842  0.0103
  196DOPC   H7R24268   9.013   1.370  14.205  0.1120 -1.5296  0.4473
  196DOPC   H7S24269   8.865   1.448  14.267 -0.5422 -1.1511  1.4966
  196DOPC   C2824270   8.949   1.292  14.395  0.0672  0.4237 -0.3495
  196DOPC   H8R24271   9.051   1.261  14.427 -0.0461  1.0060  0.6129
  196DOPC   H8S24272   8.903   1.207  14.340  0.4436 -0.4946  0.7108
  196DOPC   C2924273   8.869   1.333  14.515  0.1336 -0.1902  0.6512
  196DOPC   H9R24274   8.881   1.434  14.558  0.1162  0.0427  0.1248
  196DOPC  C21024275   8.781   1.257  14.575 -0.0548 -0.2753 -0.3463
  196DOPC  H10R24276   8.723   1.282  14.665 -0.0359 -2.0161  0.2001
  196DOPC  C21124277   8.739   1.109  14.545  0.5987  0.3595 -0.1899
  196DOPC  H11R24278   8.730   1.053  14.640 -1.4291  1.2151  0.1951
  196DOPC  H11S24279   8.819   1.069  14.480  0.8007  1.1948 -0.4675
  196DOPC  C21224280   8.604   1.094  14.465 -0.7863  0.7156 -0.4069
  196DOPC  H12R24281   8.595   0.986  14.440 -0.7651  0.6856 -0.2878
  196DOPC  H12S24282   8.622   1.150  14.371  0.3631 -0.3588 -0.8504
  196DOPC  C21324283   8.481   1.148  14.540 -0.4964 -0.7445  0.2394
  196DOPC  H13R24284   8.407   1.178  14.462  0.9050  2.0740 -0.1225
  196DOPC  H13S24285   8.507   1.236  14.602 -1.2887 -1.4296  1.5857
  196DOPC  C21424286   8.420   1.033  14.631 -0.1636 -0.2708 -0.1722
  196DOPC  H14R24287   8.498   1.005  14.705  0.4093  1.4976 -0.0596
  196DOPC  H14S24288   8.404   0.949  14.560  3.6126 -1.3075  0.0157
  196DOPC  C21524289   8.300   1.066  14.708  0.5890  0.0640 -0.8262
  196DOPC  H15R24290   8.221   1.127  14.659 -0.0943  1.1427  1.4482
  196DOPC  H15S24291   8.325   1.142  14.785  0.8099  0.3675 -1.1977
  196DOPC  C21624292   8.228   0.948  14.778  0.1279 -0.5806  0.4109
  196DOPC  H16R24293   8.226   0.857  14.713  0.1975 -0.0784 -0.3036
  196DOPC  H16S24294   8.122   0.976  14.796  0.2984  0.4184 -0.1035
  196DOPC  C21724295   8.296   0.911  14.911  0.5474  0.3523 -0.3856
  196DOPC  H17R24296   8.274   0.986  14.990 -1.1875 -0.5431  0.0264
  196DOPC  H17S24297   8.404   0.894  14.893  0.7661  0.4315  0.7796
  196DOPC  C21824298   8.225   0.787  14.974  0.2396 -0.5410 -0.1888
  196DOPC  H18R24299   8.120   0.811  15.002 -0.8075 -3.6230 -1.0724
  196DOPC  H18S24300   8.279   0.745  15.061 -0.2069 -0.0246  0.3451
  196DOPC  H18T24301   8.200   0.697  14.913 -0.3900 -0.9097  0.5983
  196DOPC   C3324302   9.309   1.007  13.890  0.1048 -0.7250 -0.1839
  196DOPC   H3X24303   9.331   1.113  13.916 -0.7765 -0.9310  1.5315
  196DOPC   H3Y24304   9.389   0.964  13.827 -1.3399 -0.9233 -1.9752
  196DOPC   C3424305   9.273   0.933  14.020 -0.3016  0.0079 -0.0280
  196DOPC   H4X24306   9.224   0.834  14.006 -0.4203 -0.0494  0.7575
  196DOPC   H4Y24307   9.201   0.984  14.088 -1.4774 -1.1599 -0.3547
  196DOPC   C3524308   9.404   0.896  14.087  0.6074  0.0221  0.5543
  196DOPC   H5X24309   9.466   0.988  14.080  0.6213 -0.0692 -0.8796
  196DOPC   H5Y24310   9.461   0.814  14.038 -2.3815 -1.5087 -0.6422
  196DOPC   C3624311   9.371   0.860  14.232 -0.1876  0.3421 -0.0951
  196DOPC   H6X24312   9.323   0.948  14.280 -0.2055  0.5761 -0.5408
  196DOPC   H6Y24313   9.301   0.774  14.218  2.4772 -2.0654  0.4430
  196DOPC   C3724314   9.493   0.814  14.313  0.4037 -0.2161  0.5246
  196DOPC   H7X24315   9.544   0.728  14.264  0.7765  1.1062 -1.5181
  196DOPC   H7Y24316   9.561   0.901  14.314  0.3822 -0.1670 -0.6939
  196DOPC   C3824317   9.448   0.762  14.450 -0.1490 -0.3314 -0.0622
  196DOPC   H8X24318   9.353   0.707  14.432 -1.8638  2.2091  0.7572
  196DOPC   H8Y24319   9.429   0.852  14.511 -1.2589 -0.2192 -0.5425
  196DOPC   C3924320   9.559   0.680  14.511 -0.0717  0.7013 -0.5753
  196DOPC   H9X24321   9.662   0.705  14.482  0.7445  0.8378  2.1333
  196DOPC  C31024322   9.542   0.585  14.607  0.5202 -0.1661  0.0804
  196DOPC  H10X24323   9.629   0.551  14.665 -0.2726  0.4290  1.6560
  196DOPC  C31124324   9.411   0.541  14.657 -0.1000  0.7199 -0.2872
  196DOPC  H11X24325   9.417   0.435  14.690 -1.1816  0.6105 -0.3931
  196DOPC  H11Y24326   9.334   0.545  14.576  1.2893 -0.4310 -1.7323
  196DOPC  C31224327   9.359   0.610  14.783  0.2012 -0.1638  0.0063
  196DOPC  H12X24328   9.254   0.576  14.798 -0.1525  1.0522  0.4369
  196DOPC  H12Y24329   9.349   0.717  14.753 -0.3931 -0.1139  0.3713
  196DOPC  C31324330   9.436   0.604  14.918 -0.0933 -0.2960  0.5595
  196DOPC  H13X24331   9.426   0.498  14.951 -0.6938 -0.6737 -0.7588
  196DOPC  H13Y24332   9.542   0.634  14.913  0.7165 -2.7903  1.4055
  196DOPC  C31424333   9.375   0.694  15.024  0.0394  0.3686 -0.2435
  196DOPC  H14X24334   9.357   0.797  14.986 -0.8007  0.3406  0.0690
  196DOPC  H14Y24335   9.273   0.661  15.054  0.2457  1.4239  1.7536
  196DOPC  C31524336   9.461   0.706  15.151  0.1577 -0.0727  0.1718
  196DOPC  H15X24337   9.557   0.748  15.114  0.1169  0.9254  1.1363
  196DOPC  H15Y24338   9.481   0.611  15.205  0.6491 -1.7046 -2.6599
  196DOPC  C31624339   9.401   0.802  15.255 -0.2710  0.0926  0.5711
  196DOPC  H16X24340   9.436   0.900  15.216  0.9283 -0.6637 -0.3321
  196DOPC  H16Y24341   9.290   0.803  15.263 -0.4305  1.9496 -1.0317
  196DOPC  C31724342   9.468   0.780  15.390  0.4179  0.1232 -0.4000
  196DOPC  H17X24343   9.448   0.681  15.437  0.1721 -0.3079 -1.4001
  196DOPC  H17Y24344   9.578   0.783  15.378  0.5889 -1.5422  0.4453
  196DOPC  C31824345   9.414   0.878  15.491 -0.3880  0.5477 -0.2801
  196DOPC  H18X24346   9.447   0.974  15.445  0.4130  0.9996  1.1560
  196DOPC  H18Y24347   9.304   0.874  15.502 -0.1637 -2.0558  2.1697
  196DOPC  H18Z24348   9.453   0.868  15.595  0.3248  3.0201 -0.2191
  197DOPC     N24349   2.141   7.350  13.328 -0.0227  0.1623  0.2480
  197DOPC   C1224350   2.180   7.471  13.411 -0.0028 -0.2819 -0.0186
  197DOPC  H12A24351   2.225   7.427  13.499 -1.1815 -1.5517 -0.0327
  197DOPC  H12B24352   2.093   7.522  13.449  0.1780  1.0781 -1.3407
  197DOPC   C1324353   2.055   7.390  13.207  0.4702 -0.5178 -1.5174
  197DOPC  H13A24354   2.097   7.481  13.165  0.6731 -0.2941 -0.8471
  197DOPC  H13B24355   2.046   7.315  13.129 -0.8808 -1.3713 -0.5899
  197DOPC  H13C24356   1.960   7.426  13.244  3.1321  2.7795  3.1516
  197DOPC   C1424357   2.052   7.255  13.413 -0.2441  0.1435 -0.3919
  197DOPC  H14A24358   1.950   7.289  13.420  0.1057  1.4709 -1.2721
  197DOPC  H14B24359   2.046   7.159  13.365  1.3673  0.2142 -0.8048
  197DOPC  H14C24360   2.090   7.240  13.513  1.4892 -0.6173 -1.1150
  197DOPC   C1524361   2.257   7.280  13.273 -0.3662  0.2157 -1.1613
  197DOPC  H15A24362   2.325   7.241  13.347 -2.3774 -1.5166 -0.1096
  197DOPC  H15B24363   2.314   7.346  13.210  0.7494  0.3809 -0.0144
  197DOPC  H15C24364   2.235   7.200  13.203  2.0755 -0.1881 -1.5645
  197DOPC   C1124365   2.265   7.586  13.346  0.1739 -0.2547 -0.0047
  197DOPC  H11A24366   2.303   7.663  13.417  0.2574  0.5484 -0.8956
  197DOPC  H11B24367   2.351   7.536  13.296  0.4913 -0.9741  1.2192
  197DOPC     P24368   2.057   7.735  13.276 -0.0161  0.2880  0.0796
  197DOPC   O1324369   1.936   7.657  13.248 -0.7871 -0.1844  0.2181
  197DOPC   O1424370   2.069   7.870  13.219 -0.1687  0.0513  0.7031
  197DOPC   O1224371   2.186   7.643  13.243 -0.1177  0.1121  0.1576
  197DOPC   O1124372   2.078   7.758  13.431 -0.3531  0.0971  0.3005
  197DOPC    C124373   1.980   7.728  13.527 -1.0679 -0.3397  0.9106
  197DOPC    HA24374   2.039   7.685  13.610  0.7265 -1.7207 -0.9921
  197DOPC    HB24375   1.920   7.640  13.495  1.4395 -2.3505  1.4533
  197DOPC    C224376   1.899   7.849  13.577 -0.0838 -0.1025 -0.1950
  197DOPC    HS24377   1.854   7.898  13.488 -0.2254 -0.0632 -0.1022
  197DOPC   O2124378   1.991   7.934  13.649 -0.1661 -0.4076  0.3422
  197DOPC   C2124379   1.985   8.062  13.615  0.1819 -0.2212 -0.6153
  197DOPC   O2224380   1.921   8.110  13.523 -0.0128  0.5338 -0.0585
  197DOPC   C2224381   2.077   8.148  13.710  0.1947 -1.0015 -0.7412
  197DOPC   H2R24382   2.151   8.197  13.643 -0.9167  2.2807  0.2281
  197DOPC   H2S24383   2.131   8.080  13.779 -1.4792 -0.7225  0.9199
  197DOPC    C324384   1.789   7.808  13.681  0.0713  0.4376 -0.5819
  197DOPC    HX24385   1.837   7.729  13.743 -0.2506  2.3133  2.2416
  197DOPC    HY24386   1.709   7.748  13.634  0.4947 -0.0943 -0.6459
  197DOPC   O3124387   1.745   7.907  13.777  0.2501  0.5775  0.7644
  197DOPC   C3124388   1.612   7.905  13.806 -0.0187  0.0371 -0.0173
  197DOPC   O3224389   1.534   7.824  13.756  0.3235 -0.3567  0.8741
  197DOPC   C3224390   1.573   8.013  13.901 -0.6612 -0.2666  0.2010
  197DOPC   H2X24391   1.652   8.091  13.907  1.5795 -2.4838  1.0840
  197DOPC   H2Y24392   1.482   8.059  13.856 -0.0927  0.4346 -0.2485
  197DOPC   C2324393   2.004   8.261  13.791  0.0987  0.0522  0.6406
  197DOPC   H3R24394   1.926   8.308  13.728  0.8772  0.5185 -0.0070
  197DOPC   H3S24395   2.076   8.342  13.819  1.2781 -1.3160  1.6861
  197DOPC   C2424396   1.949   8.209  13.922 -0.5814 -0.1007  0.0680
  197DOPC   H4R24397   2.042   8.199  13.982  0.1658 -0.5635 -1.1516
  197DOPC   H4S24398   1.911   8.105  13.930  0.0295 -0.2398  1.7441
  197DOPC   C2524399   1.838   8.303  13.981  0.6392  0.0656 -0.4201
  197DOPC   H5R24400   1.737   8.275  13.944 -1.9391  5.4774  1.4652
  197DOPC   H5S24401   1.853   8.403  13.934  0.0639 -0.3771 -1.5692
  197DOPC   C2624402   1.836   8.306  14.139  0.1072 -0.2658  0.1101
  197DOPC   H6R24403   1.942   8.330  14.162  0.4786 -1.4632 -0.2510
  197DOPC   H6S24404   1.822   8.198  14.164 -0.3504 -0.1600  0.3187
  197DOPC   C2724405   1.731   8.400  14.191  0.1458  0.7278  0.1218
  197DOPC   H7R24406   1.640   8.346  14.158  0.2407  0.5038  0.2267
  197DOPC   H7S24407   1.735   8.501  14.145 -3.7687  0.3051 -1.5187
  197DOPC   C2824408   1.741   8.405  14.348  0.4239 -0.3345  0.2446
  197DOPC   H8R24409   1.829   8.469  14.371 -2.0278  3.3723  0.0708
  197DOPC   H8S24410   1.748   8.302  14.389 -1.6104 -0.6812 -0.1361
  197DOPC   C2924411   1.616   8.477  14.391  0.7557 -0.2996  0.3024
  197DOPC   H9R24412   1.569   8.531  14.308 -2.3310 -2.3941  0.5165
  197DOPC  C21024413   1.551   8.475  14.514 -0.8056 -0.1141 -0.5198
  197DOPC  H10R24414   1.458   8.532  14.522  0.8794  2.8759 -1.0540
  197DOPC  C21124415   1.591   8.394  14.635  0.0479  0.1164 -0.2328
  197DOPC  H11R24416   1.616   8.451  14.727 -1.5487  2.2028 -1.0160
  197DOPC  H11S24417   1.679   8.331  14.609 -0.1146  0.1826 -0.9674
  197DOPC  C21224418   1.480   8.290  14.668  0.1358 -0.0425 -0.0642
  197DOPC  H12R24419   1.502   8.228  14.758 -0.6230  1.1116  0.9485
  197DOPC  H12S24420   1.483   8.227  14.577 -0.8242  0.3314 -0.3630
  197DOPC  C21324421   1.339   8.349  14.698 -0.5648 -0.2164  0.6447
  197DOPC  H13R24422   1.271   8.273  14.743 -1.1233  0.7653  1.4909
  197DOPC  H13S24423   1.303   8.385  14.599  2.6400 -0.7189 -0.8491
  197DOPC  C21424424   1.330   8.472  14.787  0.0013 -0.1888 -0.5728
  197DOPC  H14R24425   1.227   8.509  14.768 -0.1306  0.2698  0.9371
  197DOPC  H14S24426   1.400   8.551  14.753 -0.6043  1.4033  1.6968
  197DOPC  C21524427   1.366   8.447  14.939 -0.3531 -0.5841 -0.2767
  197DOPC  H15R24428   1.348   8.543  14.992 -1.3214 -0.0472 -1.5514
  197DOPC  H15S24429   1.472   8.420  14.955  0.3912  2.0908 -0.2433
  197DOPC  C21624430   1.274   8.342  15.003 -0.7181 -0.2140  0.3309
  197DOPC  H16R24431   1.313   8.245  14.965  0.3249  0.5256 -0.5355
  197DOPC  H16S24432   1.167   8.354  14.974 -0.9955 -2.2584  0.3324
  197DOPC  C21724433   1.293   8.354  15.152  0.7516 -0.4580 -0.3858
  197DOPC  H17R24434   1.233   8.272  15.198  0.6752  0.6253  1.5280
  197DOPC  H17S24435   1.247   8.451  15.180 -1.5893 -1.4756 -0.4341
  197DOPC  C21824436   1.427   8.325  15.217  0.2510  0.2807  0.6429
  197DOPC  H18R24437   1.498   8.402  15.180 -0.8641  0.7967 -0.4720
  197DOPC  H18S24438   1.460   8.223  15.187 -1.6318 -0.8070  2.0414
  197DOPC  H18T24439   1.423   8.315  15.328  0.2689  0.3179  0.6468
  197DOPC   C3324440   1.553   7.947  14.041  0.1912 -0.0694 -0.1792
  197DOPC   H3X24441   1.485   7.859  14.037 -0.5118  0.2756  2.3773
  197DOPC   H3Y24442   1.503   8.025  14.102 -0.8857  0.0599 -1.1947
  197DOPC   C3424443   1.691   7.918  14.107 -0.5933  0.4450 -0.0589
  197DOPC   H4X24444   1.747   8.014  14.103 -0.8196  0.6175  0.7316
  197DOPC   H4Y24445   1.744   7.848  14.040 -0.2704 -0.1006  0.7636
  197DOPC   C3524446   1.672   7.864  14.246  0.1336  0.8593  0.1078
  197DOPC   H5X24447   1.644   7.757  14.245  1.9628  0.2249  3.0410
  197DOPC   H5Y24448   1.602   7.930  14.302 -1.4772 -1.9136  1.5758
  197DOPC   C3624449   1.805   7.876  14.331  0.5054  0.4268  0.0751
  197DOPC   H6X24450   1.878   7.795  14.306 -0.3097  0.3209 -2.1464
  197DOPC   H6Y24451   1.861   7.967  14.302  0.4670  0.1372 -0.9257
  197DOPC   C3724452   1.766   7.902  14.474  0.2439  0.2693 -0.0604
  197DOPC   H7X24453   1.688   7.980  14.488 -0.1333  0.0369 -0.8142
  197DOPC   H7Y24454   1.724   7.808  14.518  0.2756 -0.9738 -2.5503
  197DOPC   C3824455   1.891   7.938  14.561 -0.2260 -0.0805 -0.8229
  197DOPC   H8X24456   1.902   8.049  14.571  0.4682 -0.2260  0.0804
  197DOPC   H8Y24457   1.989   7.900  14.526 -0.2772  1.1954 -2.4748
  197DOPC   C3924458   1.882   7.872  14.701 -0.8327  0.6078  0.9511
  197DOPC   H9X24459   1.936   7.776  14.700 -1.9630 -0.0983 -2.1445
  197DOPC  C31024460   1.789   7.894  14.799  0.1148 -0.6445 -0.0904
  197DOPC  H10X24461   1.808   7.835  14.890  2.1074 -0.5740 -0.4123
  197DOPC  C31124462   1.703   8.016  14.815  0.6456 -0.2909  0.2045
  197DOPC  H11X24463   1.595   7.989  14.816  0.5653  0.0176  0.2355
  197DOPC  H11Y24464   1.716   8.083  14.727 -2.7106 -1.4581 -1.3555
  197DOPC  C31224465   1.717   8.100  14.943 -0.3738 -0.4372  0.2426
  197DOPC  H12X24466   1.722   8.036  15.034 -0.6851  1.4099  1.6115
  197DOPC  H12Y24467   1.614   8.141  14.953 -0.9862 -2.2198  1.6922
  197DOPC  C31324468   1.820   8.217  14.944  0.2379  0.7835  0.3596
  197DOPC  H13X24469   1.911   8.163  14.910 -0.0053  1.8002 -2.1533
  197DOPC  H13Y24470   1.812   8.277  14.850  2.3285 -0.2040 -0.5338
  197DOPC  C31424471   1.835   8.313  15.059  0.5169 -0.1094  0.2076
  197DOPC  H14X24472   1.930   8.368  15.044  0.5850 -0.0660  0.7766
  197DOPC  H14Y24473   1.751   8.385  15.055  0.7503  0.2583  1.4317
  197DOPC  C31524474   1.841   8.252  15.197  0.2990  0.5346  0.2899
  197DOPC  H15X24475   1.947   8.230  15.222 -0.7399 -2.7303  2.4365
  197DOPC  H15Y24476   1.776   8.165  15.218  0.7754  0.0010 -0.4207
  197DOPC  C31624477   1.799   8.355  15.310 -0.2954  0.0824  0.0188
  197DOPC  H16X24478   1.859   8.448  15.304 -0.4030  0.1229 -0.4674
  197DOPC  H16Y24479   1.695   8.380  15.279 -0.7685 -1.7964 -0.0435
  197DOPC  C31724480   1.785   8.293  15.446  0.0025  0.3519  0.4938
  197DOPC  H17X24481   1.719   8.354  15.511  2.8199  2.2382  1.7917
  197DOPC  H17Y24482   1.735   8.194  15.437 -0.7282  0.6899  0.7428
  197DOPC  C31824483   1.922   8.275  15.514 -0.3581  0.3022 -0.3610
  197DOPC  H18X24484   1.913   8.208  15.602 -0.2612  1.1770  0.3311
  197DOPC  H18Y24485   1.993   8.215  15.454  0.7591 -0.7960  1.9383
  197DOPC  H18Z24486   1.977   8.367  15.542  1.5629 -1.0269  0.3784
  198DOPC     N24487   7.983   6.479  12.618  0.4635 -0.3571  0.0874
  198DOPC   C1224488   8.069   6.415  12.718 -0.0389  0.7145 -0.0990
  198DOPC  H12A24489   8.174   6.435  12.708  0.2304 -0.5533 -0.0169
  198DOPC  H12B24490   8.060   6.307  12.716  1.2026  0.5727 -2.3486
  198DOPC   C1324491   8.013   6.627  12.612 -0.8132 -0.0838  0.2121
  198DOPC  H13A24492   7.932   6.685  12.572 -0.5706 -1.5808 -2.7234
  198DOPC  H13B24493   8.028   6.671  12.709  0.3871 -1.4771  0.7005
  198DOPC  H13C24494   8.100   6.654  12.553  0.4451 -1.4564  1.3691
  198DOPC   C1424495   7.832   6.462  12.659 -0.4852 -0.6084  0.2300
  198DOPC  H14A24496   7.812   6.357  12.643  1.2676 -0.8246 -0.9152
  198DOPC  H14B24497   7.813   6.492  12.761 -0.7222  2.8409 -0.7180
  198DOPC  H14C24498   7.768   6.505  12.584  0.4241  0.1827 -0.1122
  198DOPC   C1524499   8.003   6.420  12.477  0.0598  0.5898 -0.2053
  198DOPC  H15A24500   7.983   6.314  12.466 -1.5077  1.0092 -1.7975
  198DOPC  H15B24501   8.099   6.450  12.439  0.3381  0.8824  0.6929
  198DOPC  H15C24502   7.931   6.464  12.410 -0.4041 -0.2063 -0.2513
  198DOPC   C1124503   8.049   6.443  12.866 -0.2213  0.3117  0.5273
  198DOPC  H11A24504   7.947   6.419  12.901  0.3152  1.0809  2.7827
  198DOPC  H11B24505   8.110   6.373  12.927  1.0963  2.9739  2.4599
  198DOPC     P24506   8.218   6.626  12.938  0.1205 -0.0057 -0.2175
  198DOPC   O1324507   8.211   6.772  12.966 -0.1400 -0.0481 -0.1111
  198DOPC   O1424508   8.312   6.577  12.834  0.5252  0.0289 -0.0160
  198DOPC   O1224509   8.077   6.577  12.899 -0.0516 -0.0222 -0.0494
  198DOPC   O1124510   8.242   6.544  13.072  0.0232 -0.7203 -0.4594
  198DOPC    C124511   8.152   6.559  13.185  0.4128  0.1108 -0.4134
  198DOPC    HA24512   8.151   6.463  13.241  1.4122 -1.4147 -2.8648
  198DOPC    HB24513   8.048   6.562  13.145  0.6125  2.4888 -0.8628
  198DOPC    C224514   8.168   6.680  13.277  0.3353 -0.7135  0.0045
  198DOPC    HS24515   8.201   6.764  13.212  0.8864 -0.4633  0.5949
  198DOPC   O2124516   8.266   6.645  13.376  0.0956 -0.2857 -0.1453
  198DOPC   C2124517   8.327   6.745  13.430  0.1753 -0.2668  1.0783
  198DOPC   O2224518   8.326   6.861  13.387 -0.2466 -0.3928  0.1037
  198DOPC   C2224519   8.408   6.690  13.549  0.0334 -0.3770  0.3956
  198DOPC   H2R24520   8.515   6.685  13.521  0.0963  0.4731  0.4467
  198DOPC   H2S24521   8.382   6.583  13.562 -0.3226 -0.2256  0.9646
  198DOPC    C324522   8.027   6.732  13.333  0.4839 -0.1668  0.4069
  198DOPC    HX24523   7.973   6.642  13.370 -0.9635  0.8124  0.7975
  198DOPC    HY24524   7.961   6.768  13.251 -0.5638 -2.6738  0.0705
  198DOPC   O3124525   8.036   6.825  13.442  0.1769 -0.7679  0.1329
  198DOPC   C3124526   8.047   6.958  13.404 -0.0169  0.6098 -0.1772
  198DOPC   O3224527   8.050   6.998  13.290 -0.0784  0.9567  0.8288
  198DOPC   C3224528   8.049   7.049  13.523  0.2489 -0.4286 -0.5704
  198DOPC   H2X24529   7.950   7.099  13.526  1.1157  1.2953  1.0589
  198DOPC   H2Y24530   8.063   6.983  13.612  0.6674 -0.6021 -0.7592
  198DOPC   C2324531   8.374   6.754  13.686 -0.6240  0.4337  0.0385
  198DOPC   H3R24532   8.386   6.864  13.676  0.8498  0.4768  1.7488
  198DOPC   H3S24533   8.442   6.719  13.767  1.2420  0.2471 -1.5558
  198DOPC   C2424534   8.233   6.738  13.731  0.1927  0.4148  0.1970
  198DOPC   H4R24535   8.218   6.630  13.752 -1.7161  0.8779  1.4444
  198DOPC   H4S24536   8.153   6.749  13.655 -0.8456  1.4266  1.4035
  198DOPC   C2524537   8.210   6.819  13.865 -0.5691 -0.2522 -0.1710
  198DOPC   H5R24538   8.233   6.925  13.839  1.3950  0.0715  2.4519
  198DOPC   H5S24539   8.298   6.783  13.922  0.2990 -1.2381 -2.0425
  198DOPC   C2624540   8.079   6.794  13.937 -0.4403 -0.4467 -0.2729
  198DOPC   H6R24541   8.033   6.700  13.899 -0.5457  0.1411 -1.6782
  198DOPC   H6S24542   8.010   6.874  13.903 -0.2423 -0.2601 -0.2355
  198DOPC   C2724543   8.084   6.793  14.090  0.3530  0.0297  0.5584
  198DOPC   H7R24544   8.138   6.702  14.124 -0.3723 -0.4547  0.4320
  198DOPC   H7S24545   7.979   6.780  14.124 -0.2293 -1.3644 -1.5636
  198DOPC   C2824546   8.147   6.921  14.157 -0.3161  0.7360  0.2052
  198DOPC   H8R24547   8.082   7.005  14.125 -1.4014 -0.1648  0.0031
  198DOPC   H8S24548   8.251   6.938  14.120 -0.5857  1.5303 -0.2009
  198DOPC   C2924549   8.146   6.912  14.309  0.7116  0.3734  0.7025
  198DOPC   H9R24550   8.046   6.879  14.342  0.5376  0.9650  0.7784
  198DOPC  C21024551   8.240   6.939  14.398 -0.1598  0.0723 -0.3486
  198DOPC  H10R24552   8.211   6.924  14.503 -1.2025  0.3867 -0.5769
  198DOPC  C21124553   8.379   6.986  14.370 -0.3127  0.2692  0.3525
  198DOPC  H11R24554   8.385   7.069  14.297 -1.5473  0.1593  0.1132
  198DOPC  H11S24555   8.430   6.896  14.328 -3.8709 -1.3078 -0.9621
  198DOPC  C21224556   8.455   7.029  14.493  0.1504  0.2005 -0.9291
  198DOPC  H12R24557   8.554   7.035  14.443  0.3105  0.4309 -0.5874
  198DOPC  H12S24558   8.452   6.961  14.581 -3.0678  0.8365 -0.4265
  198DOPC  C21324559   8.415   7.162  14.555 -0.2109 -0.4809  0.5997
  198DOPC  H13R24560   8.305   7.163  14.570 -0.1699 -1.0755  0.9583
  198DOPC  H13S24561   8.441   7.240  14.480  2.3883 -2.8015 -1.0806
  198DOPC  C21424562   8.489   7.200  14.690 -0.1899 -0.3394 -0.3016
  198DOPC  H14R24563   8.600   7.210  14.682 -0.2555  1.1217  0.4466
  198DOPC  H14S24564   8.472   7.114  14.758 -0.8314 -1.0703 -1.3592
  198DOPC  C21524565   8.444   7.337  14.754 -0.5176  0.6110  0.3612
  198DOPC  H15R24566   8.334   7.327  14.764 -0.4607 -1.1717 -0.3879
  198DOPC  H15S24567   8.466   7.424  14.689 -0.7792 -0.6929 -1.5751
  198DOPC  C21624568   8.511   7.365  14.888 -0.5065  0.6732  0.9442
  198DOPC  H16R24569   8.616   7.396  14.870 -0.1160 -1.1284 -0.1910
  198DOPC  H16S24570   8.509   7.269  14.944 -0.4426 -0.0421 -0.2252
  198DOPC  C21724571   8.433   7.470  14.964  0.5561  0.4696 -0.4467
  198DOPC  H17R24572   8.326   7.444  14.979  0.7112 -0.6074 -1.0638
  198DOPC  H17S24573   8.428   7.556  14.894  0.1540  0.4719 -0.4128
  198DOPC  C21824574   8.508   7.514  15.088 -0.6205  0.0049  0.7852
  198DOPC  H18R24575   8.487   7.440  15.168  1.3553 -2.7853 -1.0940
  198DOPC  H18S24576   8.479   7.618  15.115 -0.1433  0.1382  0.7860
  198DOPC  H18T24577   8.617   7.524  15.075 -0.7094  0.0623  0.0395
  198DOPC   C3324578   8.178   7.137  13.513  0.4319  0.0383 -0.4442
  198DOPC   H3X24579   8.172   7.216  13.436  0.0195 -0.5675 -1.0401
  198DOPC   H3Y24580   8.263   7.070  13.488 -0.1914 -1.3145  0.8586
  198DOPC   C3424581   8.217   7.206  13.644  0.1213  0.4474 -0.0295
  198DOPC   H4X24582   8.191   7.143  13.731 -0.1737  2.1730  1.1964
  198DOPC   H4Y24583   8.165   7.303  13.659  0.6190  0.6082  0.7371
  198DOPC   C3524584   8.363   7.228  13.647 -0.1576  0.1061 -0.4899
  198DOPC   H5X24585   8.401   7.274  13.553  0.0459 -0.2675 -0.5909
  198DOPC   H5Y24586   8.412   7.129  13.649 -0.1878  0.0597 -1.4930
  198DOPC   C3624587   8.411   7.311  13.764 -0.0116  0.3826  1.1184
  198DOPC   H6X24588   8.346   7.400  13.782  0.7534  1.2827 -0.3155
  198DOPC   H6Y24589   8.412   7.239  13.848  0.4303 -1.2375 -0.2156
  198DOPC   C3724590   8.549   7.371  13.744  0.1370  0.1853  0.0547
  198DOPC   H7X24591   8.577   7.370  13.637  3.0500 -0.5468  0.7354
  198DOPC   H7Y24592   8.560   7.476  13.778  0.5172  1.0344 -2.5256
  198DOPC   C3824593   8.654   7.278  13.814 -0.0998 -0.6621  0.1543
  198DOPC   H8X24594   8.629   7.261  13.921  0.2569 -1.0909  0.1713
  198DOPC   H8Y24595   8.747   7.337  13.804 -0.5245 -0.2527 -1.6926
  198DOPC   C3924596   8.668   7.137  13.744 -0.6378  0.0633 -0.3728
  198DOPC   H9X24597   8.722   7.134  13.648 -0.6479  1.5529 -0.4419
  198DOPC  C31024598   8.636   7.017  13.796 -0.7070  0.5333  0.5536
  198DOPC  H10X24599   8.653   6.928  13.734  0.7554  1.0421  0.1941
  198DOPC  C31124600   8.571   6.983  13.924 -0.8424 -0.3101  0.2083
  198DOPC  H11X24601   8.468   6.945  13.905 -0.8082  0.0530 -0.8207
  198DOPC  H11Y24602   8.566   7.069  13.994 -0.1123 -0.1039  0.0182
  198DOPC  C31224603   8.661   6.874  13.994  0.6072 -0.1688  0.6004
  198DOPC  H12X24604   8.766   6.911  14.000 -0.5704  3.3182  1.8025
  198DOPC  H12Y24605   8.662   6.777  13.940  0.6478 -0.7499  1.6189
  198DOPC  C31324606   8.603   6.845  14.134 -0.0828  0.3515  0.0195
  198DOPC  H13X24607   8.622   6.938  14.192 -0.0051  0.4488 -0.1623
  198DOPC  H13Y24608   8.496   6.820  14.117  0.0204 -1.1575  1.3452
  198DOPC  C31424609   8.663   6.724  14.204  0.2131  0.0993  0.0652
  198DOPC  H14X24610   8.612   6.694  14.298  0.7010  1.9960  0.9934
  198DOPC  H14Y24611   8.648   6.635  14.139  0.8159 -1.0293  1.4223
  198DOPC  C31524612   8.807   6.743  14.251 -0.2703  0.1403  0.6360
  198DOPC  H15X24613   8.823   6.841  14.302  0.9761  1.1460 -1.5772
  198DOPC  H15Y24614   8.864   6.745  14.156 -0.5573 -1.5875  0.3953
  198DOPC  C31624615   8.854   6.629  14.344  0.0455 -0.7667 -0.2521
  198DOPC  H16X24616   8.820   6.531  14.306 -0.3378 -0.6348 -0.2456
  198DOPC  H16Y24617   8.964   6.636  14.359  0.1326  1.7591 -1.5268
  198DOPC  C31724618   8.796   6.630  14.489  0.1299 -0.2651  0.2958
  198DOPC  H17X24619   8.712   6.703  14.495  0.8895  0.7019 -0.4818
  198DOPC  H17Y24620   8.760   6.527  14.505 -0.6395 -0.0540 -0.0232
  198DOPC  C31824621   8.893   6.689  14.589  0.7465  0.3097 -0.3089
  198DOPC  H18X24622   8.969   6.616  14.624 -0.2757 -0.6680 -0.0578
  198DOPC  H18Y24623   8.937   6.782  14.548  0.0566  0.0165 -1.7948
  198DOPC  H18Z24624   8.846   6.722  14.684  0.3979  1.0905 -0.7423
  199DOPC     N24625   7.176   8.548  12.942 -0.8277 -0.8338  0.8940
  199DOPC   C1224626   7.199   8.693  12.998 -0.0256 -0.3382  0.1570
  199DOPC  H12A24627   7.153   8.759  12.927 -0.6048 -1.9935 -1.0586
  199DOPC  H12B24628   7.307   8.703  12.993  0.0013 -0.9937 -1.0442
  199DOPC   C1324629   7.252   8.443  13.025  0.6195  0.0112  0.0433
  199DOPC  H13A24630   7.357   8.464  13.035  0.6438 -0.8972  2.1907
  199DOPC  H13B24631   7.207   8.454  13.123 -0.7421  2.3518 -0.7673
  199DOPC  H13C24632   7.245   8.340  12.993 -1.7424  0.5803 -1.5690
  199DOPC   C1424633   7.224   8.539  12.801  0.0236 -0.5345 -0.2462
  199DOPC  H14A24634   7.225   8.439  12.760 -0.2486 -1.0213  0.8890
  199DOPC  H14B24635   7.168   8.611  12.744  2.2477  1.5340  0.0043
  199DOPC  H14C24636   7.327   8.571  12.792  0.4363 -2.0037 -1.2487
  199DOPC   C1524637   7.024   8.526  12.946 -0.2780  0.4006 -0.0920
  199DOPC  H15A24638   6.997   8.535  13.050 -3.0269 -0.2984 -0.6694
  199DOPC  H15B24639   7.000   8.429  12.906  1.1740 -0.1087  0.2244
  199DOPC  H15C24640   6.972   8.596  12.882 -0.0241 -1.4118 -2.4105
  199DOPC   C1124641   7.139   8.718  13.147 -0.2752 -0.2895  0.7344
  199DOPC  H11A24642   7.172   8.637  13.215 -2.8726 -1.0766  1.1556
  199DOPC  H11B24643   7.182   8.815  13.182 -2.5752  0.5212  1.4884
  199DOPC     P24644   6.916   8.843  13.094  0.2735  0.1814  0.1703
  199DOPC   O1324645   6.774   8.795  13.077 -0.4048  0.1148 -0.2050
  199DOPC   O1424646   6.987   8.912  12.985  0.2324  0.2347 -0.2849
  199DOPC   O1224647   6.998   8.719  13.152 -0.0512 -0.1306 -0.3398
  199DOPC   O1124648   6.915   8.944  13.216 -0.3053  0.7174 -0.1138
  199DOPC    C124649   6.799   8.953  13.301  1.3097 -0.4870 -0.1761
  199DOPC    HA24650   6.701   8.949  13.248  2.2267  2.4016 -2.3438
  199DOPC    HB24651   6.797   9.051  13.355 -0.4893 -0.2883 -0.5389
  199DOPC    C224652   6.800   8.849  13.409 -0.3954 -0.1177 -0.2615
  199DOPC    HS24653   6.815   8.749  13.364 -0.7067 -1.7998  3.0109
  199DOPC   O2124654   6.674   8.858  13.475 -0.6424 -0.0645  0.0863
  199DOPC   C2124655   6.573   8.777  13.434  0.2955  0.4676 -0.4327
  199DOPC   O2224656   6.584   8.681  13.358 -0.1422 -0.1068  0.2341
  199DOPC   C2224657   6.440   8.822  13.497 -0.0067  0.8188  0.8185
  199DOPC   H2R24658   6.369   8.833  13.412 -0.0062  1.7153  0.9205
  199DOPC   H2S24659   6.445   8.917  13.554  0.0061  0.7767  0.8850
  199DOPC    C324660   6.904   8.863  13.517 -0.7496 -0.1075 -0.2833
  199DOPC    HX24661   6.887   8.968  13.551  0.1346 -0.0699  0.0606
  199DOPC    HY24662   7.009   8.862  13.479 -1.4958  1.7655 -2.6988
  199DOPC   O3124663   6.876   8.779  13.633  0.2682 -0.4843 -0.0795
  199DOPC   C3124664   6.931   8.660  13.625 -0.0855  0.4110  0.0797
  199DOPC   O3224665   6.984   8.618  13.523  0.5499 -0.0071 -0.9660
  199DOPC   C3224666   6.914   8.569  13.745  0.0173 -0.2082  0.1190
  199DOPC   H2X24667   6.910   8.635  13.834 -2.0717  1.7823 -1.3191
  199DOPC   H2Y24668   6.819   8.512  13.740  0.3506 -0.6982 -0.8463
  199DOPC   C2324669   6.372   8.715  13.588 -0.1184  0.0242 -0.2723
  199DOPC   H3R24670   6.375   8.612  13.548  0.2510  0.0906 -0.4205
  199DOPC   H3S24671   6.266   8.746  13.606  0.5068  1.7067  0.7618
  199DOPC   C2424672   6.458   8.695  13.711  0.4211  0.5398  0.0319
  199DOPC   H4R24673   6.466   8.790  13.768 -1.9121 -0.6330  2.5780
  199DOPC   H4S24674   6.556   8.650  13.684  0.6523 -0.4511  2.2642
  199DOPC   C2524675   6.387   8.594  13.808  0.5789 -0.5461 -0.2924
  199DOPC   H5R24676   6.374   8.495  13.760 -0.5648 -0.6381  0.1835
  199DOPC   H5S24677   6.283   8.625  13.831 -0.1927 -3.2635  0.1723
  199DOPC   C2624678   6.473   8.554  13.926 -0.4343 -0.9328 -0.2661
  199DOPC   H6R24679   6.565   8.518  13.875  0.0146  2.2476 -1.9615
  199DOPC   H6S24680   6.412   8.483  13.986  0.3298  0.3651  2.2190
  199DOPC   C2724681   6.511   8.677  14.012  0.4393  0.3990  0.1704
  199DOPC   H7R24682   6.423   8.736  14.045  0.2593  0.2809 -0.1058
  199DOPC   H7S24683   6.571   8.751  13.954 -1.4724  1.2320 -0.8307
  199DOPC   C2824684   6.598   8.642  14.137 -0.6708  0.2308  0.0337
  199DOPC   H8R24685   6.525   8.580  14.194 -0.5730  0.8695  0.8826
  199DOPC   H8S24686   6.621   8.726  14.206  0.6988 -1.2518  1.4933
  199DOPC   C2924687   6.722   8.568  14.084 -0.4403 -0.2674  0.6600
  199DOPC   H9R24688   6.753   8.596  13.983 -0.7693  0.1387  0.6634
  199DOPC  C21024689   6.773   8.454  14.132  0.2404  0.6209 -0.2439
  199DOPC  H10R24690   6.856   8.409  14.075  0.0829 -0.8107  0.6011
  199DOPC  C21124691   6.727   8.385  14.263 -0.0103  0.0793 -0.3264
  199DOPC  H11R24692   6.738   8.275  14.273 -1.8266 -0.0466  0.8565
  199DOPC  H11S24693   6.617   8.397  14.279 -0.0567 -0.2154 -0.4263
  199DOPC  C21224694   6.796   8.457  14.385 -0.1784  0.1069 -0.2424
  199DOPC  H12R24695   6.733   8.427  14.471 -1.6239 -0.2544 -1.3794
  199DOPC  H12S24696   6.779   8.566  14.373  1.8191  0.2572 -2.6198
  199DOPC  C21324697   6.942   8.425  14.413 -0.4799 -0.4932  0.5541
  199DOPC  H13R24698   6.980   8.457  14.513  0.7573  0.8018 -0.2810
  199DOPC  H13S24699   7.009   8.477  14.341 -0.2395 -0.4203  0.8271
  199DOPC  C21424700   6.963   8.275  14.413  0.7297  0.2990 -0.5002
  199DOPC  H14R24701   7.072   8.262  14.424  0.5025 -0.7583  0.8704
  199DOPC  H14S24702   6.935   8.229  14.316  1.2922 -0.5923 -0.2517
  199DOPC  C21524703   6.886   8.184  14.521  0.4850 -0.4693  0.1763
  199DOPC  H15R24704   6.916   8.077  14.509 -0.2667 -0.7415  0.6725
  199DOPC  H15S24705   6.780   8.203  14.496  0.7317  1.9059  0.6932
  199DOPC  C21624706   6.901   8.214  14.668 -0.4587 -0.8537  0.4644
  199DOPC  H16R24707   6.881   8.317  14.703 -2.4720 -0.8940 -0.4145
  199DOPC  H16S24708   7.003   8.189  14.703  0.6297  0.9341 -1.2340
  199DOPC  C21724709   6.802   8.134  14.759 -0.5527  0.1767  0.4767
  199DOPC  H17R24710   6.836   8.155  14.863 -2.2937  2.3819  0.6712
  199DOPC  H17S24711   6.815   8.026  14.738 -1.0191 -0.1096  1.5731
  199DOPC  C21824712   6.654   8.166  14.748 -0.3259 -0.4768 -0.4559
  199DOPC  H18R24713   6.609   8.092  14.679 -2.6332  0.0516  0.3878
  199DOPC  H18S24714   6.642   8.271  14.711  0.9737 -0.0268  0.3129
  199DOPC  H18T24715   6.601   8.165  14.845 -2.0936 -0.0376 -1.3818
  199DOPC   C3324716   7.036   8.477  13.740  0.5698  0.0609 -0.0145
  199DOPC   H3X24717   7.134   8.530  13.734  0.0976  0.8275 -1.4337
  199DOPC   H3Y24718   7.030   8.399  13.661 -2.9410  0.4250 -0.2313
  199DOPC   C3424719   7.052   8.386  13.871 -0.6948 -0.5223  0.0650
  199DOPC   H4X24720   7.104   8.293  13.840 -1.0430 -0.6012 -0.3011
  199DOPC   H4Y24721   6.947   8.366  13.901 -0.8458 -0.6114 -0.5099
  199DOPC   C3524722   7.144   8.456  13.973  0.4233  0.2524  0.0761
  199DOPC   H5X24723   7.113   8.559  14.002 -0.0199  0.2187 -0.2585
  199DOPC   H5Y24724   7.239   8.461  13.916 -1.2339 -0.9402 -3.0244
  199DOPC   C3624725   7.173   8.369  14.098 -0.3901  0.6719 -0.4958
  199DOPC   H6X24726   7.077   8.353  14.152  0.3738 -0.2793  0.6112
  199DOPC   H6Y24727   7.199   8.267  14.064 -3.2047  0.0386 -1.0399
  199DOPC   C3724728   7.280   8.431  14.188  0.1006 -0.0096  0.7095
  199DOPC   H7X24729   7.359   8.470  14.121 -1.4690  2.2421  0.0609
  199DOPC   H7Y24730   7.237   8.520  14.239  0.3043  0.1067  0.6795
  199DOPC   C3824731   7.345   8.321  14.273 -0.5803 -0.6767  0.3136
  199DOPC   H8X24732   7.343   8.233  14.205  0.6506  0.6075 -1.4487
  199DOPC   H8Y24733   7.280   8.308  14.362 -0.6116  0.0769  0.4070
  199DOPC   C3924734   7.483   8.350  14.321 -0.0710 -0.0321  0.3841
  199DOPC   H9X24735   7.501   8.436  14.388  2.7585  0.7345 -1.1915
  199DOPC  C31024736   7.593   8.278  14.300  1.1822 -0.5043 -0.2352
  199DOPC  H10X24737   7.694   8.311  14.329  0.9036 -2.4216  3.4881
  199DOPC  C31124738   7.590   8.146  14.229 -0.5855  0.2347 -0.7579
  199DOPC  H11X24739   7.494   8.092  14.239 -0.8932  1.2067  2.5152
  199DOPC  H11Y24740   7.669   8.082  14.274 -0.0219  0.8412 -0.8690
  199DOPC  C31224741   7.626   8.167  14.075 -0.0242  0.4438 -0.5466
  199DOPC  H12X24742   7.661   8.074  14.025  0.3476  0.0962  0.3501
  199DOPC  H12Y24743   7.713   8.237  14.066  0.2878  0.3252  1.2307
  199DOPC  C31324744   7.508   8.217  13.996 -0.0202 -0.0096  0.0714
  199DOPC  H13X24745   7.420   8.154  14.021  1.1174 -0.9171  2.0144
  199DOPC  H13Y24746   7.491   8.323  14.026 -0.0437  0.0738 -0.2316
  199DOPC  C31424747   7.531   8.203  13.843 -0.0425  0.5608 -0.1172
  199DOPC  H14X24748   7.623   8.260  13.819  2.0798 -1.6459  2.1631
  199DOPC  H14Y24749   7.544   8.097  13.811  0.9879  0.5614  0.2480
  199DOPC  C31524750   7.417   8.267  13.766  0.5219  0.8875  0.0150
  199DOPC  H15X24751   7.410   8.372  13.802  0.3657  0.7012  0.5354
  199DOPC  H15Y24752   7.316   8.224  13.779  1.0970 -0.3067  0.6899
  199DOPC  C31624753   7.450   8.250  13.619  0.5908  0.0065 -0.9307
  199DOPC  H16X24754   7.558   8.265  13.600  0.6231  3.0598  1.0895
  199DOPC  H16Y24755   7.436   8.141  13.599 -2.3053 -0.0470  0.8611
  199DOPC  C31724756   7.361   8.330  13.523  0.2592 -1.4183  0.2844
  199DOPC  H17X24757   7.380   8.294  13.419  1.3037 -0.3235  0.0697
  199DOPC  H17Y24758   7.252   8.311  13.536  0.0464 -0.3172  0.2012
  199DOPC  C31824759   7.396   8.479  13.529 -0.5005  0.6350 -0.9698
  199DOPC  H18X24760   7.369   8.538  13.619  0.8290  3.3921 -2.2440
  199DOPC  H18Y24761   7.504   8.487  13.506 -0.9447  1.8413 -2.9352
  199DOPC  H18Z24762   7.345   8.535  13.446 -1.9307 -0.1721 -0.6729
  200DOPC     N24763   9.003   0.997  13.252 -0.0228 -0.2588 -0.0199
  200DOPC   C1224764   8.980   0.931  13.387 -0.1403 -0.2401  1.0266
  200DOPC  H12A24765   9.017   0.998  13.464 -0.8206 -0.5920  1.6720
  200DOPC  H12B24766   9.050   0.850  13.399  1.1806  0.8426  0.8518
  200DOPC   C1324767   8.988   0.896  13.145 -0.0760  0.2383  0.7917
  200DOPC  H13A24768   9.057   0.814  13.156 -0.9328 -0.3523  2.0121
  200DOPC  H13B24769   8.890   0.850  13.138  0.3414 -0.4625 -1.0547
  200DOPC  H13C24770   9.014   0.944  13.052  0.3150 -0.4692  0.5299
  200DOPC   C1424771   9.151   1.036  13.238 -0.0831  0.0799  0.3387
  200DOPC  H14A24772   9.178   1.080  13.333  2.3950 -4.4780  2.0774
  200DOPC  H14B24773   9.215   0.949  13.231  0.0305  0.0756  1.3292
  200DOPC  H14C24774   9.154   1.107  13.156  1.8085 -0.7959 -0.4163
  200DOPC   C1524775   8.920   1.111  13.230 -0.0737 -0.1409 -0.0761
  200DOPC  H15A24776   8.922   1.158  13.133 -0.5726 -0.2746 -0.1550
  200DOPC  H15B24777   8.942   1.192  13.298  1.5491 -1.1422  0.6574
  200DOPC  H15C24778   8.819   1.092  13.263  0.2978 -0.3598  0.9660
  200DOPC   C1124779   8.832   0.893  13.428 -0.0811 -0.5980 -0.8422
  200DOPC  H11A24780   8.788   0.823  13.355 -1.9444  1.1861 -1.5363
  200DOPC  H11B24781   8.841   0.851  13.531 -1.8007 -0.9508 -0.8153
  200DOPC     P24782   8.599   1.022  13.438 -0.5774 -0.0298 -0.3465
  200DOPC   O1324783   8.568   1.004  13.298  0.3732 -0.5879  0.4997
  200DOPC   O1424784   8.536   1.134  13.512 -0.2283  0.2929 -0.1866
  200DOPC   O1224785   8.757   1.021  13.442  0.1381 -0.3061 -0.9120
  200DOPC   O1124786   8.571   0.885  13.510  1.2291 -0.0723  0.4262
  200DOPC    C124787   8.504   0.880  13.638  0.4360  0.4534  0.0601
  200DOPC    HA24788   8.400   0.851  13.609  1.4208 -1.2871 -2.0501
  200DOPC    HB24789   8.497   0.974  13.697 -2.1767 -0.7195  1.8267
  200DOPC    C224790   8.569   0.788  13.734 -0.6639  0.2304  0.4015
  200DOPC    HS24791   8.501   0.777  13.822 -0.3439  0.1806  0.6431
  200DOPC   O2124792   8.696   0.836  13.782  0.2747 -0.2569 -0.2465
  200DOPC   C2124793   8.689   0.935  13.866  0.1169  0.7707 -0.2883
  200DOPC   O2224794   8.589   0.982  13.917 -0.1900 -0.2768 -0.3995
  200DOPC   C2224795   8.830   0.972  13.908 -0.1784 -0.9216  0.3570
  200DOPC   H2R24796   8.842   1.078  13.876  2.3921 -1.0320  0.7693
  200DOPC   H2S24797   8.910   0.905  13.870 -1.3312 -1.8071 -0.5910
  200DOPC    C324798   8.579   0.646  13.691 -1.1925 -0.4671 -0.7775
  200DOPC    HX24799   8.663   0.633  13.619  0.0213  1.3656  0.2358
  200DOPC    HY24800   8.479   0.623  13.650 -0.6187  0.3064 -2.7093
  200DOPC   O3124801   8.600   0.568  13.805  0.0241 -0.6623  0.5396
  200DOPC   C3124802   8.632   0.444  13.771  0.6505  0.1003  0.0445
  200DOPC   O3224803   8.672   0.405  13.662  0.4558 -0.1048  0.1718
  200DOPC   C3224804   8.612   0.352  13.888  0.0620 -0.2068 -0.7744
  200DOPC   H2X24805   8.505   0.325  13.894 -0.2679  1.2503  0.3859
  200DOPC   H2Y24806   8.674   0.263  13.861  1.3821  0.4089  0.1155
  200DOPC   C2324807   8.830   0.978  14.060 -0.1614 -0.3202 -0.3018
  200DOPC   H3R24808   8.751   1.042  14.104  0.3606  2.7400 -3.3892
  200DOPC   H3S24809   8.923   1.033  14.086  0.1886 -0.2843 -1.5438
  200DOPC   C2424810   8.843   0.838  14.128 -0.3326 -0.3056  0.7459
  200DOPC   H4R24811   8.933   0.798  14.077 -0.7872  0.1788 -0.4917
  200DOPC   H4S24812   8.753   0.776  14.105  0.3394 -0.2811 -2.4068
  200DOPC   C2524813   8.883   0.857  14.274 -0.1048 -0.1480 -0.4220
  200DOPC   H5R24814   8.805   0.914  14.329 -0.3326 -1.3211  0.5097
  200DOPC   H5S24815   8.978   0.915  14.275  0.5575 -1.2128  0.2470
  200DOPC   C2624816   8.924   0.718  14.337  0.6978 -0.3896 -0.4231
  200DOPC   H6R24817   9.010   0.680  14.278 -0.9202  0.0098 -3.2406
  200DOPC   H6S24818   8.845   0.644  14.311  1.1359 -0.2797 -2.1917
  200DOPC   C2724819   8.964   0.739  14.483  0.3131  0.1961 -0.6796
  200DOPC   H7R24820   8.883   0.793  14.536  0.3644 -0.2342 -0.1582
  200DOPC   H7S24821   9.058   0.799  14.489 -0.7348  1.8805 -0.3022
  200DOPC   C2824822   9.004   0.606  14.552 -0.5456  0.4773  0.3456
  200DOPC   H8R24823   9.037   0.620  14.658 -2.2342  2.6911  0.6383
  200DOPC   H8S24824   9.083   0.575  14.480 -1.1804 -1.6889  0.5312
  200DOPC   C2924825   8.906   0.493  14.548 -0.1870 -0.0352  0.2511
  200DOPC   H9R24826   8.847   0.488  14.455  0.9460 -0.4892 -0.4704
  200DOPC  C21024827   8.909   0.386  14.625 -0.0832 -0.4669 -0.2264
  200DOPC  H10R24828   8.842   0.307  14.588 -1.3558 -0.2281  1.4105
  200DOPC  C21124829   9.007   0.356  14.735 -0.0799 -0.3247 -0.3160
  200DOPC  H11R24830   9.103   0.411  14.734 -0.9557  1.4548  2.5343
  200DOPC  H11S24831   9.031   0.247  14.727 -0.5471 -0.5010  0.6219
  200DOPC  C21224832   8.962   0.377  14.880  0.7143  0.1147  0.1934
  200DOPC  H12R24833   8.887   0.301  14.909  1.5147 -0.4591  0.7866
  200DOPC  H12S24834   8.915   0.477  14.887  0.7986  0.3065 -1.5613
  200DOPC  C21324835   9.082   0.367  14.970 -0.4231 -0.1816  0.1718
  200DOPC  H13R24836   9.157   0.444  14.942  1.5278 -2.6177 -1.6940
  200DOPC  H13S24837   9.125   0.264  14.968 -1.4890 -0.6399  0.1920
  200DOPC  C21424838   9.048   0.393  15.119  0.6902  0.6130  0.1073
  200DOPC  H14R24839   8.973   0.321  15.159  0.7271  1.2097  1.2846
  200DOPC  H14S24840   8.998   0.492  15.126 -1.8391 -0.6213  0.6302
  200DOPC  C21524841   9.175   0.379  15.204  0.3444 -0.1433  0.1116
  200DOPC  H15R24842   9.139   0.431  15.296  0.0554  0.2876 -0.2377
  200DOPC  H15S24843   9.255   0.451  15.175 -0.0599 -0.0013 -0.6834
  200DOPC  C21624844   9.205   0.236  15.235 -0.1712  0.1119  0.1270
  200DOPC  H16R24845   9.240   0.181  15.145  1.8301 -1.5858  1.8298
  200DOPC  H16S24846   9.122   0.177  15.279 -1.6233  1.3159 -0.8968
  200DOPC  C21724847   9.331   0.219  15.325 -0.2183 -0.1129  0.1247
  200DOPC  H17R24848   9.421   0.204  15.262 -0.2497  1.5106 -0.3462
  200DOPC  H17S24849   9.314   0.119  15.370 -2.0623  1.0264  2.1855
  200DOPC  C21824850   9.362   0.330  15.430  0.5774  0.2126 -0.6157
  200DOPC  H18R24851   9.457   0.311  15.484 -0.4258  0.5888  1.4058
  200DOPC  H18S24852   9.279   0.337  15.504  0.5309  1.0933 -0.7410
  200DOPC  H18T24853   9.374   0.429  15.382  1.1394 -0.1792 -1.3006
  200DOPC   C3324854   8.646   0.407  14.032 -0.2212 -0.0551 -0.4366
  200DOPC   H3X24855   8.592   0.499  14.062 -0.2703 -0.8124  1.9948
  200DOPC   H3Y24856   8.755   0.424  14.029 -0.0818 -0.9324 -0.8512
  200DOPC   C3424857   8.604   0.312  14.146  0.2400  0.1308  0.0520
  200DOPC   H4X24858   8.640   0.209  14.124  0.4223  0.4937 -1.4851
  200DOPC   H4Y24859   8.493   0.308  14.147  0.2020 -0.4574 -1.9134
  200DOPC   C3524860   8.654   0.349  14.280  0.2701  0.5481 -0.2007
  200DOPC   H5X24861   8.635   0.457  14.299  1.9604  1.0759 -1.2346
  200DOPC   H5Y24862   8.765   0.340  14.283  0.1540 -1.2903 -0.1708
  200DOPC   C3624863   8.607   0.265  14.391  0.2105  0.0696 -0.5886
  200DOPC   H6X24864   8.664   0.171  14.407  0.3090  0.0807 -0.8726
  200DOPC   H6Y24865   8.635   0.325  14.481  1.0194 -2.3089  0.8395
  200DOPC   C3724866   8.454   0.237  14.399  0.0397 -0.1474  0.2750
  200DOPC   H7X24867   8.403   0.335  14.412 -1.3186 -0.8276  0.1495
  200DOPC   H7Y24868   8.414   0.197  14.303 -0.8197  1.6753 -0.1729
  200DOPC   C3824869   8.427   0.138  14.519 -0.1141  0.3527 -0.0267
  200DOPC   H8X24870   8.518   0.145  14.583  0.5738  0.5188 -1.0067
  200DOPC   H8Y24871   8.443   0.036  14.477  3.2360  0.2072  1.2567
  200DOPC   C3924872   8.295   0.157  14.589  0.3709  0.2327 -0.7625
  200DOPC   H9X24873   8.213   0.203  14.533  1.7878  1.6450 -1.7300
  200DOPC  C31024874   8.277   0.123  14.723 -0.5011  0.4863  0.3646
  200DOPC  H10X24875   8.180   0.143  14.772  0.1656  1.9679  1.1539
  200DOPC  C31124876   8.384   0.067  14.819 -0.4677 -0.0708 -0.2644
  200DOPC  H11X24877   8.445  -0.011  14.768  1.7448  0.5604  1.2464
  200DOPC  H11Y24878   8.342   0.013  14.907 -1.8146  1.7508  0.2836
  200DOPC  C31224879   8.473   0.167  14.886  0.2013 -0.1077 -0.2684
  200DOPC  H12X24880   8.418   0.250  14.935  1.0751  0.2368  0.1695
  200DOPC  H12Y24881   8.546   0.218  14.820  1.4017 -0.0366  1.0554
  200DOPC  C31324882   8.553   0.111  15.004  0.2159 -0.8159  0.1814
  200DOPC  H13X24883   8.483   0.050  15.065 -1.1941 -0.9332 -1.4675
  200DOPC  H13Y24884   8.613   0.024  14.970 -0.5185 -1.8496  1.4222
  200DOPC  C31424885   8.631   0.216  15.078  0.0500  0.4031  0.3085
  200DOPC  H14X24886   8.690   0.155  15.150  1.1492  1.5152  0.3833
  200DOPC  H14Y24887   8.699   0.263  15.005  1.2077 -1.5068  0.1037
  200DOPC  C31524888   8.554   0.331  15.154 -0.2832 -0.1940 -0.6139
  200DOPC  H15X24889   8.487   0.286  15.231 -0.7723 -1.1675 -1.5706
  200DOPC  H15Y24890   8.490   0.382  15.079  0.2106  2.1729  0.4848
  200DOPC  C31624891   8.656   0.433  15.213 -0.2219  0.1309 -0.0727
  200DOPC  H16X24892   8.725   0.384  15.285  0.5984  1.8674  0.3657
  200DOPC  H16Y24893   8.713   0.481  15.131 -0.8297  1.0461  0.0234
  200DOPC  C31724894   8.588   0.548  15.291  0.2678  0.1822  0.0582
  200DOPC  H17X24895   8.667   0.615  15.330  0.8863  0.8892 -2.2345
  200DOPC  H17Y24896   8.536   0.614  15.218  0.2528 -1.5950 -1.6241
  200DOPC  C31824897   8.486   0.503  15.401 -0.0801 -0.1673 -0.0228
  200DOPC  H18X24898   8.417   0.586  15.424  0.2655  0.4972 -1.2763
  200DOPC  H18Y24899   8.414   0.431  15.357  0.5952  0.6413 -2.6941
  200DOPC  H18Z24900   8.547   0.476  15.489 -0.1035  0.2283  0.1170
  201SOD    SOD24901   2.160   3.399  16.995 -0.0251  0.0767  0.1624
  202SOD    SOD24902   6.573   0.877  12.523  0.2252 -0.5339 -0.3037
  203SOD    SOD24903   3.915   4.233  16.017  0.2670 -0.2175 -0.3814
  204SOD    SOD24904   6.956   9.191  12.581  0.3813  0.4631  0.0151
  205SOD    SOD24905   5.255   1.301  17.554  0.1930 -0.0509  0.1132
  206SOD    SOD24906   7.354   7.146  12.632  0.2957  0.2017 -0.3942
  207SOD    SOD24907   3.928   3.217  12.613 -0.0821  0.2789 -0.1713
  208SOD    SOD24908   3.137   2.111  17.433 -0.1326  0.4795 -0.2046
  209SOD    SOD24909   7.079   7.332  12.084 -0.6275  0.3535 -0.1409
  210SOD    SOD24910   2.291   1.806  16.568  0.0285 -0.0416  0.1305
  211SOD    SOD24911   7.988   2.665  16.535  0.4217  0.2241 -0.1692
  212SOD    SOD24912   5.124   1.871  17.394 -0.1578 -0.0657  0.1917
  213SOD    SOD24913   6.719   8.640  11.850  0.0481 -0.1522  0.0138
  214SOD    SOD24914   4.169   2.513  16.720 -0.2131 -0.3137 -0.4968
  215SOD    SOD24915   6.269   8.634  16.312 -0.2936  0.3352 -0.2468
  216SOD    SOD24916   8.839   4.056  16.848 -0.0373 -0.4372  0.8946
  217SOD    SOD24917   8.575   1.078  11.906 -0.0234  0.3078  0.3186
  218SOD    SOD24918   5.316   8.196  17.135 -0.0814 -0.3978 -0.4683
  219SOD    SOD24919   1.463   7.700  17.081 -0.1957  0.0667  0.5965
  220SOD    SOD24920   2.407   4.162  12.637  0.0422 -0.2385 -0.2068
  221SOD    SOD24921   0.324   4.062  12.038  0.2127 -0.2553 -0.2209
  222SOD    SOD24922   2.127   6.919  16.593  0.2335 -0.1390 -0.3473
  223SOD    SOD24923   1.941   7.990  13.070 -0.0908 -0.3256  0.1420
  224SOD    SOD24924   6.438   3.438  12.465 -0.3090  0.5604  0.1435
  225SOD    SOD24925   1.459   0.626  12.243 -0.1880  0.0016  0.0025
  226SOD    SOD24926   7.321   5.216  16.957  0.1888 -0.6238  0.1993
  227CLA    CLA24927   0.804   6.231  12.185  0.2702 -0.4357 -0.0770
  228CLA    CLA24928   9.034   2.474  12.147 -0.0308  0.2312  0.1794
  229CLA    CLA24929   5.980   2.092  12.604  0.0844 -0.0125 -0.3520
  230CLA    CLA24930   3.353   4.267  16.575  0.0472  0.2622 -0.0872
  231CLA    CLA24931   0.742   1.941  16.811 -0.4782  0.0684 -0.3387
  232CLA    CLA24932   2.297   7.467  17.369 -0.0899 -0.2356  0.5866
  233CLA    CLA24933   3.145   3.453  16.548 -0.4138  0.1511  0.2093
  234CLA    CLA24934   7.095   2.819  17.514 -0.1229 -0.2367 -0.4957
  235CLA    CLA24935   7.252   5.223  12.710  0.1033  0.0873  0.0294
  236CLA    CLA24936   8.054   9.069  17.567 -0.5751  0.0747 -0.3431
  237CLA    CLA24937   4.603   2.541  16.873 -0.1325 -0.2818 -0.2518
  238CLA    CLA24938   3.850   2.344  12.158 -0.3547  0.0204  0.2408
  239CLA    CLA24939   0.315   8.155  12.321  0.0358 -0.1045  0.3666
  240CLA    CLA24940   2.814   1.859  16.927  0.1513 -0.1376 -0.5875
  241CLA    CLA24941   3.480   1.102  12.755 -0.4038 -0.0783 -0.0956
  242CLA    CLA24942   0.718   0.168  16.428  0.4731  0.0444  0.1337
  243CLA    CLA24943   4.769   6.751  12.807 -0.0025 -0.2005  0.7142
  244CLA    CLA24944   4.750   8.024  12.862 -0.2292  0.5815 -0.0744
  245CLA    CLA24945   7.067   3.100  11.974 -0.2690 -0.3469 -0.3060
  246CLA    CLA24946   5.641   0.966  17.342  0.3712 -0.1802  0.1326
  247CLA    CLA24947   1.502   8.106  12.497 -0.2251 -0.0083  0.1255
  248CLA    CLA24948   1.810   5.562  12.273  0.0759  0.1922 -0.0499
  249CLA    CLA24949   6.446   4.345  12.622  0.2293  0.3484  0.5606
  250CLA    CLA24950   3.450   2.396  17.094 -0.0880 -0.0079 -0.2461
  251CLA    CLA24951   0.770   8.303  16.289  0.0148  0.0380 -0.3182
  252CLA    CLA24952   6.241   3.587  12.333 -0.1072  0.0980 -0.1891
  253TIP3   OH224953   6.497   7.383  16.409  0.1731 -0.7106  0.0060
  253TIP3    H124954   6.502   7.377  16.504  0.8005 -0.9351 -0.0361
  253TIP3    H224955   6.511   7.294  16.378  0.9816 -0.4794 -0.3265
  254TIP3   OH224956   0.159   3.205  17.361  0.6104  0.2453  0.2113
  254TIP3    H124957   0.252   3.224  17.351  1.1837 -2.7919 -1.4830
  254TIP3    H224958   0.115   3.269  17.306  1.6747  1.4697  0.7236
  255TIP3   OH224959   9.174   0.122  17.674  0.1074 -0.1393  0.2428
  255TIP3    H124960   9.201   0.032  17.690  1.0422  0.1707  0.4687
  255TIP3    H224961   9.220   0.147  17.594 -1.3254 -0.3409 -0.6714
  256TIP3   OH224962   5.884   9.037  16.871  0.2605  0.7221  0.3292
  256TIP3    H124963   5.852   8.957  16.914  0.7830  0.3313  0.0020
  256TIP3    H224964   5.951   9.071  16.930  1.5450 -0.2462 -0.5105
  257TIP3   OH224965   3.797   4.031  16.922 -0.0506  0.8719 -0.2999
  257TIP3    H124966   3.779   4.116  16.963 -1.3497  0.0479  0.9381
  257TIP3    H224967   3.732   4.024  16.852 -0.5917  0.5101  0.2255
  258TIP3   OH224968   1.585   1.990  17.829  0.5353  0.1636 -0.0695
  258TIP3    H124969   1.613   2.037  17.750 -1.5661  0.7129 -0.5435
  258TIP3    H224970   1.576   2.058  17.896  0.6945 -0.0685  0.1931
  259TIP3   OH224971   8.173   3.200  17.230 -0.3061 -0.3701  1.0488
  259TIP3    H124972   8.095   3.155  17.263  0.2783 -0.9495  1.6796
  259TIP3    H224973   8.165   3.289  17.266 -1.0928 -0.1654  0.4058
  260TIP3   OH224974   7.812   8.027  18.054  0.7255  0.3171  0.2265
  260TIP3    H124975   7.906   8.039  18.042  0.5905 -0.0517 -1.3937
  260TIP3    H224976   7.793   7.940  18.020 -0.2872  0.6310 -0.0772
  261TIP3   OH224977   8.189   5.972  15.630 -0.2083 -0.4258  0.3945
  261TIP3    H124978   8.266   6.024  15.652  1.5027 -1.4638 -2.5201
  261TIP3    H224979   8.115   6.031  15.645  1.5362  2.4938 -1.4505
  262TIP3   OH224980   1.167   9.022  15.884 -0.2203 -0.0371  0.5355
  262TIP3    H124981   1.089   9.074  15.900  0.0546  0.1453  1.3120
  262TIP3    H224982   1.134   8.942  15.842 -0.8069  0.0695  0.7864
  263TIP3   OH224983   3.635   7.097  17.690  0.4887  0.1816  0.1200
  263TIP3    H124984   3.685   7.100  17.609 -0.2797  1.6252 -0.3407
  263TIP3    H224985   3.691   7.049  17.751  1.0478 -1.0093 -1.2590
  264TIP3   OH224986   5.704   6.825  16.169 -0.7710 -0.1869 -0.6751
  264TIP3    H124987   5.649   6.885  16.119 -1.5802 -0.3472  0.0034
  264TIP3    H224988   5.649   6.797  16.242  0.3880  0.0740  0.3353
  265TIP3   OH224989   3.303   2.644  16.374 -0.0780  0.3180  0.2847
  265TIP3    H124990   3.312   2.551  16.391  0.0137  0.1350 -0.6843
  265TIP3    H224991   3.393   2.677  16.369 -0.0154 -0.0442 -1.8476
  266TIP3   OH224992   0.632   0.969  16.803 -0.3279 -0.0064 -0.1960
  266TIP3    H124993   0.621   0.890  16.855  0.0221  0.4886  0.6584
  266TIP3    H224994   0.612   1.040  16.864 -0.4618  0.5709 -0.9011
  267TIP3   OH224995   0.226   9.204  16.120 -0.9341  0.2412 -0.1436
  267TIP3    H124996   0.160   9.273  16.125 -1.3332 -0.1378 -0.0577
  267TIP3    H224997   0.308   9.246  16.145 -1.2911  0.5289  0.5674
  268TIP3   OH224998   5.737   2.417  17.695  0.2017  0.3188  0.1115
  268TIP3    H124999   5.830   2.398  17.682 -0.0089 -1.3799  0.9059
  268TIP3    H225000   5.727   2.422  17.790 -0.5735  0.1756  0.0405
  269TIP3   OH225001   6.289   6.097  17.193  1.1424 -0.5556 -0.2223
  269TIP3    H125002   6.200   6.060  17.192 -0.0482  2.1137 -0.8036
  269TIP3    H225003   6.341   6.033  17.242 -1.4243 -1.4936  1.4695
  270TIP3   OH225004   0.008   2.941  16.917 -0.8197 -0.6848 -0.1625
  270TIP3    H125005   0.029   2.932  16.825  0.2560  1.1518 -0.1422
  270TIP3    H225006   0.091   2.924  16.963 -0.3759  2.0217  0.1992
  271TIP3   OH225007   5.999   2.351  16.855 -0.4146 -0.0475  0.1488
  271TIP3    H125008   5.916   2.378  16.816 -0.5833  0.3262  0.7498
  271TIP3    H225009   6.058   2.424  16.838  0.1744 -0.8506 -1.4099
  272TIP3   OH225010   2.705   3.674  16.404 -0.0386  0.5001 -0.4596
  272TIP3    H125011   2.729   3.625  16.482  0.6514  0.6327 -0.5833
  272TIP3    H225012   2.773   3.740  16.394  0.1490  0.1768 -1.4426
  273TIP3   OH225013   1.156   2.511  16.913  0.3806  0.3947 -0.1837
  273TIP3    H125014   1.171   2.511  17.007 -0.1757 -1.1436 -0.0676
  273TIP3    H225015   1.062   2.528  16.903  0.3123 -0.0830 -0.4170
  274TIP3   OH225016   0.759   1.180  16.466 -0.2099 -0.5045 -0.3013
  274TIP3    H125017   0.665   1.174  16.452 -0.7164  1.7936  1.5001
  274TIP3    H225018   0.769   1.182  16.562  1.5194  0.8550 -0.4550
  275TIP3   OH225019   0.796   0.765  16.287  0.6512  0.0809 -0.0003
  275TIP3    H125020   0.844   0.687  16.257 -0.6788 -0.8006  0.0749
  275TIP3    H225021   0.864   0.823  16.321  1.6886 -0.9975 -0.1547
  276TIP3   OH225022   3.327   6.120  17.774  0.3266 -0.3843 -1.0282
  276TIP3    H125023   3.412   6.138  17.815 -0.2832 -0.5229  0.3494
  276TIP3    H225024   3.344   6.043  17.719  1.6217  0.9664 -2.6511
  277TIP3   OH225025   2.967   2.044  17.568 -0.0864  0.3636 -0.3011
  277TIP3    H125026   2.880   2.080  17.588  0.0305  0.2506  0.4651
  277TIP3    H225027   2.992   1.997  17.648  0.9871  1.0008 -0.2378
  278TIP3   OH225028   0.237   7.451  17.606 -0.1972  0.0227 -0.2699
  278TIP3    H125029   0.265   7.521  17.664 -1.5983 -0.3306  0.9184
  278TIP3    H225030   0.284   7.373  17.636 -0.4529 -0.0293  0.0025
  279TIP3   OH225031   6.141   3.238  17.600  0.1282 -0.1950  0.7690
  279TIP3    H125032   6.050   3.268  17.594  0.0542 -0.6713 -1.4416
  279TIP3    H225033   6.138   3.147  17.572  1.3841  0.0440 -0.2417
  280TIP3   OH225034   8.789   8.125  16.887  0.1355 -0.1604 -0.3479
  280TIP3    H125035   8.821   8.207  16.926  2.0903 -0.7149 -0.6480
  280TIP3    H225036   8.759   8.074  16.962 -0.0410  0.3999 -0.0283
  281TIP3   OH225037   2.918   4.926  17.504 -0.3894 -0.1966  0.3483
  281TIP3    H125038   2.981   4.942  17.434  0.4556 -0.2653  1.0727
  281TIP3    H225039   2.891   4.836  17.492  0.2435 -0.4126  0.4816
  282TIP3   OH225040   8.707   2.732  16.897  1.1581 -0.5957  0.0844
  282TIP3    H125041   8.649   2.706  16.968  0.6542 -2.2758 -0.8710
  282TIP3    H225042   8.766   2.797  16.936 -1.2334  1.0714  1.1205
  283TIP3   OH225043   4.631   3.084  16.534 -0.2039  0.3455  0.2824
  283TIP3    H125044   4.612   3.114  16.623 -1.5759  0.7594 -0.1247
  283TIP3    H225045   4.564   3.018  16.516 -0.6435  1.0728 -0.8324
  284TIP3   OH225046   7.339   5.767  12.110  0.2147 -0.3723  0.2789
  284TIP3    H125047   7.293   5.731  12.186  1.1917 -2.1882  0.0629
  284TIP3    H225048   7.283   5.746  12.036  1.0053 -1.9543  0.0974
  285TIP3   OH225049   5.447   4.356  12.152 -0.5525 -0.3539  0.6526
  285TIP3    H125050   5.387   4.387  12.084 -0.6679 -1.6388  0.1375
  285TIP3    H225051   5.392   4.303  12.210 -0.1618 -0.4558  0.9318
  286TIP3   OH225052   3.889   6.835  11.848 -0.2584 -0.4678  0.2119
  286TIP3    H125053   3.933   6.858  11.930  0.1695  0.7597 -0.3405
  286TIP3    H225054   3.936   6.758  11.816  1.8590  1.0441 -0.5702
  287TIP3   OH225055   2.216   1.975  11.985 -0.3926  0.3117  0.2098
  287TIP3    H125056   2.181   1.905  12.041  0.0095 -0.0641  0.0038
  287TIP3    H225057   2.220   2.052  12.041  1.0876 -0.3290  1.0573
  288TIP3   OH225058   0.952   8.210  12.203  0.7017  0.0479 -0.2345
  288TIP3    H125059   0.979   8.126  12.167 -0.6972 -0.9340  0.8636
  288TIP3    H225060   0.856   8.209  12.197  0.6227  1.2647  0.4372
  289TIP3   OH225061   3.836   3.263  12.393 -0.0364 -0.4236 -0.3880
  289TIP3    H125062   3.871   3.251  12.305 -0.0705 -0.6110 -0.3743
  289TIP3    H225063   3.747   3.296  12.379  0.3162  0.5401 -0.4194
  290TIP3   OH225064   3.949   6.698  12.696 -0.2227 -0.0972  1.0016
  290TIP3    H125065   3.958   6.733  12.608  0.2689 -3.1647 -0.2900
  290TIP3    H225066   4.032   6.720  12.739 -0.2495  0.9536  0.5447
  291TIP3   OH225067   3.506   3.927  11.592  0.1001 -0.1812  0.0795
  291TIP3    H125068   3.447   3.973  11.532 -1.4049 -0.5500  1.2007
  291TIP3    H225069   3.452   3.858  11.631  0.7323  0.5307  2.4148
  292TIP3   OH225070   7.734   3.026  11.569  0.0659  0.0191  0.1826
  292TIP3    H125071   7.685   3.071  11.638 -0.1463  2.1791 -1.2561
  292TIP3    H225072   7.666   2.987  11.514  0.0204  1.1434 -0.5967
  293TIP3   OH225073   7.742   2.986  12.851  0.5660 -0.0610  0.3282
  293TIP3    H125074   7.809   3.042  12.811 -0.7120  0.1287 -1.6552
  293TIP3    H225075   7.735   2.911  12.792  0.0420 -0.7980  1.3036
  294TIP3   OH225076   2.113   3.616  13.380 -0.2676  0.5492 -0.5660
  294TIP3    H125077   2.034   3.595  13.431 -0.2066 -2.0659 -1.3714
  294TIP3    H225078   2.176   3.646  13.445 -1.2865  0.6888  0.3864
  295TIP3   OH225079   2.161   4.684  12.510 -0.3127  0.0650  0.0599
  295TIP3    H125080   2.151   4.682  12.415 -2.4958  2.0346  0.1520
  295TIP3    H225081   2.238   4.738  12.526 -0.6446  0.7611 -0.6168
  296TIP3   OH225082   4.786   2.685  12.529 -0.2738 -0.2013 -0.9494
  296TIP3    H125083   4.856   2.743  12.560 -0.3450 -0.9846  0.7708
  296TIP3    H225084   4.766   2.717  12.441  1.5964  0.6289 -1.1162
  297TIP3   OH225085   1.334   8.979  12.919  0.0936  0.0735 -0.1170
  297TIP3    H125086   1.257   8.956  12.867 -2.2802 -0.0971  3.1260
  297TIP3    H225087   1.354   8.900  12.968  1.9175  0.3623 -0.3500
  298TIP3   OH225088   0.739   4.981  13.148 -0.0838 -0.1063  0.1312
  298TIP3    H125089   0.724   5.049  13.082 -0.4748  0.4601  0.7888
  298TIP3    H225090   0.653   4.941  13.160  0.2214 -0.9784 -0.5203
  299TIP3   OH225091   9.111   8.461  12.134 -0.1141 -0.1622 -0.0456
  299TIP3    H125092   9.060   8.463  12.053  1.0554 -0.0839 -0.8062
  299TIP3    H225093   9.151   8.375  12.136 -0.3786 -0.2827  0.6291
  300TIP3   OH225094   4.702   7.911  12.204 -0.0345 -0.6722 -0.0094
  300TIP3    H125095   4.688   7.827  12.160  1.2318 -0.6164 -0.5786
  300TIP3    H225096   4.639   7.970  12.164  0.1468 -0.9766 -0.7656
  301TIP3   OH225097   6.331   2.567  11.982  0.1389  0.0962 -0.1436
  301TIP3    H125098   6.251   2.560  12.033  1.1328  2.6643  2.0258
  301TIP3    H225099   6.308   2.624  11.909 -0.4454 -0.7795 -0.6652
  302TIP3   OH225100   2.108   6.411  12.060  0.0172  0.7606 -0.3594
  302TIP3    H125101   2.117   6.351  11.986  3.1655  0.6922 -0.0680
  302TIP3    H225102   2.142   6.495  12.027 -1.0005  1.4420  0.2700
  303TIP3   OH225103   0.692   0.804  13.062  0.2876  0.5178  0.3582
  303TIP3    H125104   0.723   0.740  12.998 -0.6108  1.5362 -1.1702
  303TIP3    H225105   0.699   0.888  13.017  2.2794  1.6770  2.6154
  304TIP3   OH225106   3.795   4.586  11.372  0.0711  0.3985 -0.5162
  304TIP3    H125107   3.800   4.641  11.295 -1.8605  0.2833 -0.7842
  304TIP3    H225108   3.886   4.570  11.397  0.7309  3.8944 -0.2381
  305TIP3   OH225109   4.346   4.457  12.936  0.1775  0.0829  0.1558
  305TIP3    H125110   4.354   4.548  12.910 -1.4719  0.5604  1.1687
  305TIP3    H225111   4.434   4.421  12.926  1.0279  1.9712  0.4481
  306TIP3   OH225112   4.670   3.337  12.170  0.4719  0.2428  0.0043
  306TIP3    H125113   4.598   3.307  12.114  0.7322  0.2038 -0.3088
  306TIP3    H225114   4.638   3.419  12.207  0.3053  0.2804 -0.2180
  307TIP3   OH225115   1.599   4.570  12.316 -0.4451 -0.5712  0.2147
  307TIP3    H125116   1.675   4.512  12.318  1.0005  1.1583 -1.2673
  307TIP3    H225117   1.563   4.565  12.405  1.4272 -1.4032  0.9789
  308TIP3   OH225118   8.537   8.833  12.091 -0.2433  0.4547  0.5091
  308TIP3    H125119   8.449   8.851  12.126 -0.4825 -0.4967  0.4483
  308TIP3    H225120   8.544   8.737  12.095 -0.1507  0.3158 -1.7233
  309TIP3   OH225121   1.856   5.897  13.675 -0.3073 -0.6854 -0.0928
  309TIP3    H125122   1.864   5.825  13.612 -1.1610 -1.0176  0.1682
  309TIP3    H225123   1.763   5.900  13.698 -0.5850  1.4332 -1.1867
  310TIP3   OH225124   7.068   8.148  11.807 -0.1633 -0.7044 -0.4583
  310TIP3    H125125   7.044   8.075  11.863 -0.3079 -0.1131  0.2755
  310TIP3    H225126   7.131   8.199  11.859 -0.2244 -0.1983 -0.8648
  311TIP3   OH225127   3.363   5.009  11.735 -0.1461 -0.0583  0.1011
  311TIP3    H125128   3.335   5.095  11.766 -0.0445 -0.1605  0.4750
  311TIP3    H225129   3.459   5.012  11.738 -0.0679  0.4782 -1.6752
  312TIP3   OH225130   3.112   8.310  13.290  0.4298 -0.1356 -0.0984
  312TIP3    H125131   3.017   8.319  13.294  0.5118  0.7583 -0.0391
  312TIP3    H225132   3.134   8.314  13.197  0.4687  0.3638 -0.0706
  313TIP3   OH225133   6.077   2.096  13.074 -0.0027 -0.3418  0.1696
  313TIP3    H125134   6.050   2.082  13.164  0.4268 -0.3306  0.3016
  313TIP3    H225135   6.090   2.191  13.066 -1.4182 -0.1596 -0.3013
  314TIP3   OH225136   2.857   1.419  12.960 -0.0154  0.6916 -0.0933
  314TIP3    H125137   2.807   1.408  12.880  0.6183  1.5145 -0.6119
  314TIP3    H225138   2.796   1.460  13.021 -0.8927 -1.0628  0.2882
  315TIP3   OH225139   6.601   7.547  12.067  0.2781 -0.2845  0.1550
  315TIP3    H125140   6.554   7.500  12.137 -0.9621  0.7396  0.0414
  315TIP3    H225141   6.656   7.610  12.114  0.5498 -0.5956  0.2536
  316TIP3   OH225142   7.395   0.088  13.061  0.0597  0.3372 -0.1880
  316TIP3    H125143   7.323   0.031  13.035  0.2260  0.3134 -0.5977
  316TIP3    H225144   7.405   0.149  12.988  0.6688  0.1400 -0.2699
  317TIP3   OH225145   7.690   4.126  12.060 -0.1552  0.1079 -0.4649
  317TIP3    H125146   7.677   4.178  11.980  1.2562 -0.3943 -1.0472
  317TIP3    H225147   7.773   4.080  12.046  1.3147  1.7183  2.2288
  318TIP3   OH225148   0.239   5.371  12.801 -0.7457  0.3567 -0.2580
  318TIP3    H125149   0.309   5.432  12.779  0.5196 -1.3816 -1.2579
  318TIP3    H225150   0.278   5.309  12.863 -1.6302 -0.1640 -0.1983
  319TIP3   OH225151   3.980   3.156  12.968  0.1183 -0.0255  0.2347
  319TIP3    H125152   4.048   3.133  13.032  0.7177 -2.0869 -1.0291
  319TIP3    H225153   3.976   3.252  12.970  1.6841  0.0580  1.7370
  320TIP3   OH225154   1.287   2.590  13.632 -0.4042  0.1599  0.0337
  320TIP3    H125155   1.355   2.525  13.615  1.6775  2.8776 -3.3574
  320TIP3    H225156   1.207   2.551  13.598  0.6813 -0.8545 -1.4924
  321TIP3   OH225157   1.032   7.128  11.876 -0.7387 -0.0870 -0.6021
  321TIP3    H125158   0.955   7.151  11.929 -0.2713 -0.1021  0.1023
  321TIP3    H225159   1.044   7.035  11.890 -0.0903  0.0750 -0.0151
  322TIP3   OH225160   4.445   7.575  13.347 -0.2650 -0.1582 -0.4115
  322TIP3    H125161   4.371   7.581  13.408 -0.1115 -0.0233 -0.2353
  322TIP3    H225162   4.483   7.663  13.348  0.0915 -0.3116 -0.2517
  323TIP3   OH225163   8.471   3.892  16.754 -0.1263  0.1993  0.0711
  323TIP3    H125164   8.433   3.922  16.672 -1.1779 -1.6247 -0.1575
  323TIP3    H225165   8.563   3.874  16.733 -0.0357  1.1143 -0.3287
  324TIP3   OH225166   3.003   6.056  16.745 -0.4681 -0.5572  0.0699
  324TIP3    H125167   2.924   6.097  16.712 -1.1274 -1.5572  0.3739
  324TIP3    H225168   2.998   6.068  16.840  1.1174  1.7701 -0.0355
  325TIP3   OH225169   6.024   5.606  16.414 -0.7160  0.0507 -0.1790
  325TIP3    H125170   5.987   5.522  16.387 -1.0616  0.3880 -0.7634
  325TIP3    H225171   6.043   5.594  16.507  1.0075 -1.3089 -0.6557
  326TIP3   OH225172   2.074   3.113  17.838  0.6537  0.0397 -0.0948
  326TIP3    H125173   2.008   3.063  17.789  1.3910  0.3441 -1.4450
  326TIP3    H225174   2.061   3.086  17.929 -0.3486 -1.0238 -0.5199
  327TIP3   OH225175   7.752   7.364  16.585  0.1629 -0.5592  0.0146
  327TIP3    H125176   7.747   7.433  16.651 -1.0037  0.5270 -1.1329
  327TIP3    H225177   7.831   7.383  16.536  0.0638 -0.2735 -0.0364
  328TIP3   OH225178   1.434   7.166  16.048  0.1673 -0.4533  0.3702
  328TIP3    H125179   1.356   7.172  15.994  1.0408 -0.8576 -0.9904
  328TIP3    H225180   1.455   7.073  16.050  1.7956 -0.1775 -1.1148
  329TIP3   OH225181   7.448   9.127  17.800  0.1744 -0.0327  0.0131
  329TIP3    H125182   7.446   9.153  17.707  0.0773  2.8812  0.7256
  329TIP3    H225183   7.541   9.113  17.819  0.4673  1.7371  0.0082
  330TIP3   OH225184   1.405   1.840  17.677 -1.0444  0.7503 -0.2294
  330TIP3    H125185   1.417   1.864  17.585  1.2782 -2.0360 -0.7747
  330TIP3    H225186   1.459   1.903  17.725 -2.5012  2.4103 -0.6356
  331TIP3   OH225187   7.842   1.071  17.639 -0.1227 -0.0437 -0.3951
  331TIP3    H125188   7.831   1.115  17.555  0.2311  0.2621 -0.2850
  331TIP3    H225189   7.880   0.986  17.618  0.8837  0.4186 -0.4734
  332TIP3   OH225190   4.473   1.902  17.175  0.1895  0.6936 -0.1186
  332TIP3    H125191   4.468   1.859  17.260 -0.2347 -0.5301 -0.7461
  332TIP3    H225192   4.453   1.834  17.112 -0.8489  1.8706 -1.1338
  333TIP3   OH225193   8.438   6.771  16.985 -0.6987  0.4914  1.0010
  333TIP3    H125194   8.480   6.846  17.026  2.6487 -0.7240  0.1342
  333TIP3    H225195   8.510   6.712  16.964 -2.6545 -0.9721 -2.4686
  334TIP3   OH225196   2.199   5.748  17.766 -0.0102 -0.1859 -0.2961
  334TIP3    H125197   2.115   5.733  17.808  1.2644 -0.6827  2.2792
  334TIP3    H225198   2.212   5.671  17.711 -1.4189  0.1487 -1.1564
  335TIP3   OH225199   8.447   0.198  17.715  0.5768 -0.4643  0.4487
  335TIP3    H125200   8.407   0.111  17.705  0.0559 -0.3364  1.3571
  335TIP3    H225201   8.516   0.185  17.780  0.1282 -0.0850  1.0068
  336TIP3   OH225202   6.978   2.768  16.901 -0.0013 -0.2985  0.0350
  336TIP3    H125203   6.972   2.847  16.848  0.0426  0.3009  0.8972
  336TIP3    H225204   6.946   2.794  16.987  2.0461 -0.6229  0.9612
  337TIP3   OH225205   1.034   4.250  17.222  0.0349 -0.0690 -0.1864
  337TIP3    H125206   1.114   4.296  17.197 -0.0845  0.4153  0.2871
  337TIP3    H225207   0.967   4.287  17.165 -0.0763  0.4149  0.2482
  338TIP3   OH225208   2.703   7.697  16.995  0.4825 -0.0520  0.0818
  338TIP3    H125209   2.709   7.793  16.989  1.4314 -0.1827 -2.0633
  338TIP3    H225210   2.622   7.681  17.042 -1.3902  1.8349 -2.2321
  339TIP3   OH225211   1.353   5.545  17.612 -0.1801  0.4434 -0.4044
  339TIP3    H125212   1.428   5.493  17.640 -0.4605 -0.2912 -1.0104
  339TIP3    H225213   1.386   5.598  17.539 -0.3621 -0.1948 -0.9512
  340TIP3   OH225214   3.277   4.612  16.826 -0.3291 -0.6384 -0.1561
  340TIP3    H125215   3.309   4.669  16.756 -1.0414 -0.3666 -0.2643
  340TIP3    H225216   3.196   4.653  16.855 -0.5935 -1.3318  0.0966
  341TIP3   OH225217   6.297   5.023  16.318  0.0891 -0.2372  0.3773
  341TIP3    H125218   6.385   5.053  16.299 -0.5470  1.2293 -0.4642
  341TIP3    H225219   6.250   5.032  16.235 -1.0443 -0.2762  0.9846
  342TIP3   OH225220   8.018   4.349  17.213  0.0718  0.4482  0.0114
  342TIP3    H125221   8.030   4.396  17.130  0.1233  0.3418 -0.0413
  342TIP3    H225222   7.964   4.274  17.190 -1.2113  1.2233  0.3465
  343TIP3   OH225223   5.977   6.421  17.274 -0.3082 -0.2142  0.3813
  343TIP3    H125224   5.946   6.378  17.354  3.2229 -0.6159  1.6966
  343TIP3    H225225   5.912   6.489  17.257 -1.5419 -0.5358  3.1880
  344TIP3   OH225226   8.633   0.537  17.415  0.1058  0.3584  0.0521
  344TIP3    H125227   8.585   0.474  17.361  0.1731 -0.7524  1.2475
  344TIP3    H225228   8.683   0.590  17.352  1.1544 -1.6956 -0.9372
  345TIP3   OH225229   2.962   0.780  16.220 -0.1761 -0.1621  0.3821
  345TIP3    H125230   3.047   0.738  16.207 -0.4018 -0.5516  0.1464
  345TIP3    H225231   2.905   0.739  16.155 -0.2190  1.0376 -0.3742
  346TIP3   OH225232   6.286   3.476  17.107  0.0751 -0.3661 -0.3072
  346TIP3    H125233   6.220   3.446  17.169 -3.4979  2.6305 -2.2728
  346TIP3    H225234   6.339   3.539  17.156 -1.0055  0.0280  0.3848
  347TIP3   OH225235   8.378   5.883  16.461  0.1474 -0.5930 -0.2756
  347TIP3    H125236   8.418   5.933  16.390 -0.0428 -0.9866 -0.6602
  347TIP3    H225237   8.342   5.805  16.419  0.1806 -0.9124  0.2753
  348TIP3   OH225238   0.220   2.012  16.041 -0.1068  0.8546 -0.0659
  348TIP3    H125239   0.306   2.009  16.001  0.0529  0.4455  0.3024
  348TIP3    H225240   0.226   1.953  16.116 -0.5977  1.1012  0.1733
  349TIP3   OH225241   0.485   7.079  16.646  0.7052 -1.1932 -0.1734
  349TIP3    H125242   0.431   7.007  16.614 -0.4445  0.2731 -1.6886
  349TIP3    H225243   0.428   7.156  16.644  2.7330  0.4021 -1.6420
  350TIP3   OH225244   3.300   8.519  17.198 -0.4347 -0.1501  0.6132
  350TIP3    H125245   3.367   8.456  17.169 -0.4916 -0.6001  1.4276
  350TIP3    H225246   3.228   8.464  17.228 -0.2449  0.2909  1.9211
  351TIP3   OH225247   4.802   0.304  17.299 -0.2562  0.4354 -0.3337
  351TIP3    H125248   4.873   0.245  17.275 -0.7476 -0.7203  0.9326
  351TIP3    H225249   4.737   0.292  17.229 -0.6856 -1.1430  0.2888
  352TIP3   OH225250   5.725   8.348  16.376  0.2726  0.3005  0.2921
  352TIP3    H125251   5.765   8.435  16.385  1.3891  0.0404 -1.4938
  352TIP3    H225252   5.799   8.290  16.359 -0.5907 -0.7588  0.0367
  353TIP3   OH225253   3.579   2.906  16.987 -0.0601  0.5029  0.7726
  353TIP3    H125254   3.551   2.824  17.028  0.1480  0.0316 -0.0037
  353TIP3    H225255   3.597   2.965  17.060 -0.3984 -0.0839  1.3354
  354TIP3   OH225256   1.047   6.179  17.465  0.4759  0.2005 -0.5134
  354TIP3    H125257   1.063   6.110  17.530  1.1743 -0.3967 -1.2943
  354TIP3    H225258   1.101   6.252  17.494 -1.6305  1.1580  1.3423
  355TIP3   OH225259   3.364   9.215  16.342 -0.1047 -0.0606 -0.1569
  355TIP3    H125260   3.376   9.137  16.288 -0.4290 -0.2159 -0.0112
  355TIP3    H225261   3.452   9.253  16.349  0.1546 -0.7068  0.2135
  356TIP3   OH225262   4.866   0.482  16.191 -0.4260  0.2836 -0.2345
  356TIP3    H125263   4.894   0.409  16.247 -0.0917  0.0668 -0.6822
  356TIP3    H225264   4.808   0.441  16.127  0.2403  0.3034 -0.8604
  357TIP3   OH225265   0.779   5.749  16.705 -0.4398 -0.1570  0.9322
  357TIP3    H125266   0.765   5.836  16.742 -0.3392  1.6017 -2.6885
  357TIP3    H225267   0.694   5.726  16.668  0.0396 -0.6806  0.1392
  358TIP3   OH225268   0.866   1.562  16.246 -0.0510  0.1001  0.2094
  358TIP3    H125269   0.891   1.473  16.222  1.0156  0.3815  0.2004
  358TIP3    H225270   0.919   1.618  16.189  0.8736  0.7531  1.6509
  359TIP3   OH225271   4.730   8.747  17.741  0.2893 -0.1358  0.3126
  359TIP3    H125272   4.790   8.679  17.709 -0.7947 -0.5921 -0.8413
  359TIP3    H225273   4.678   8.704  17.808  0.8225  0.0830  0.8709
  360TIP3   OH225274   4.081   8.355  17.839 -0.7037  0.6191 -0.0724
  360TIP3    H125275   4.043   8.269  17.822 -1.3960  0.6318  1.2860
  360TIP3    H225276   4.008   8.408  17.870 -0.3229  1.7756 -1.0938
  361TIP3   OH225277   9.200   4.014  16.421  0.4905  0.1230 -0.4335
  361TIP3    H125278   9.232   4.090  16.469 -1.0957  0.6809 -0.1997
  361TIP3    H225279   9.261   3.944  16.444  0.7600  0.8064  1.0301
  362TIP3   OH225280   6.597   6.121  15.863  0.5134 -0.0727 -0.1297
  362TIP3    H125281   6.641   6.051  15.814 -0.3762  0.1959 -1.3346
  362TIP3    H225282   6.551   6.075  15.933  0.4351 -0.6397 -0.5433
  363TIP3   OH225283   3.527   4.964  17.502 -0.5282 -0.0843 -0.4005
  363TIP3    H125284   3.591   4.972  17.431 -0.8010 -2.8266 -1.0587
  363TIP3    H225285   3.473   5.043  17.494  2.4315  2.1347 -0.0743
  364TIP3   OH225286   6.878   1.924  16.892 -0.0391 -0.2273  0.1649
  364TIP3    H125287   6.823   1.954  16.964  2.2586  1.2766  1.3901
  364TIP3    H225288   6.837   1.962  16.814 -1.3240 -0.0479  0.8972
  365TIP3   OH225289   4.178   3.995  16.560  0.2777 -0.3008 -0.0632
  365TIP3    H125290   4.123   3.920  16.582  0.1708 -0.2759 -0.2475
  365TIP3    H225291   4.119   4.070  16.563  0.4199 -0.1978  0.2862
  366TIP3   OH225292   5.395   0.642  17.144 -0.1117  0.2896  0.0493
  366TIP3    H125293   5.390   0.685  17.230  1.9634  0.5054  0.1119
  366TIP3    H225294   5.324   0.681  17.093 -1.3323  0.2293  1.6096
  367TIP3   OH225295   4.203   7.795  15.887  0.1400  0.1250 -0.3704
  367TIP3    H125296   4.108   7.795  15.876 -0.3115 -1.4175  2.5100
  367TIP3    H225297   4.220   7.866  15.949  0.9640  0.7503 -1.2877
  368TIP3   OH225298   1.674   0.292  16.727  0.2209 -0.3374 -0.6623
  368TIP3    H125299   1.654   0.357  16.660 -0.0856  0.5803  0.2933
  368TIP3    H225300   1.616   0.218  16.707 -1.3229  0.7112 -0.2771
  369TIP3   OH225301   0.799   2.930  16.242 -0.1740 -0.1897  0.0273
  369TIP3    H125302   0.874   2.987  16.255 -0.3810  0.3402 -0.9801
  369TIP3    H225303   0.837   2.845  16.218  0.1277 -0.4546  1.3418
  370TIP3   OH225304   8.608   8.133  16.022  0.0011  0.2813  0.2647
  370TIP3    H125305   8.616   8.198  16.092 -3.3190  0.5368  0.5838
  370TIP3    H225306   8.623   8.182  15.941  1.0362  0.6153  0.6485
  371TIP3   OH225307   5.316   6.234  16.573  0.4284  0.5967 -0.1045
  371TIP3    H125308   5.258   6.258  16.500  1.0571  0.4253 -0.6644
  371TIP3    H225309   5.321   6.314  16.626 -0.2576  0.6374 -0.0898
  372TIP3   OH225310   2.370   6.656  17.693  0.0145  0.0529 -0.0998
  372TIP3    H125311   2.314   6.656  17.615 -2.2963 -0.4599  1.4599
  372TIP3    H225312   2.360   6.743  17.730  0.7757  0.1582 -0.1195
  373TIP3   OH225313   0.694   1.182  17.514  0.2863  0.4382  0.0083
  373TIP3    H125314   0.675   1.115  17.447 -0.0079  1.2080 -0.6911
  373TIP3    H225315   0.767   1.145  17.563  1.5454  0.4951 -1.7119
  374TIP3   OH225316   6.881   5.273  17.020  0.3042  0.0748  0.4225
  374TIP3    H125317   6.805   5.301  16.968  0.8916  0.7567 -0.0906
  374TIP3    H225318   6.848   5.271  17.110  0.2797  2.8887  0.5773
  375TIP3   OH225319   3.725   5.382  16.871 -0.1388  0.3045  0.0713
  375TIP3    H125320   3.799   5.385  16.810  1.0860 -1.2130  1.3759
  375TIP3    H225321   3.740   5.302  16.922 -2.4871  0.1865  0.6596
  376TIP3   OH225322   3.163   3.084  17.728 -0.0909  0.3258  0.2620
  376TIP3    H125323   3.127   3.134  17.801 -1.2862  2.0492 -1.4006
  376TIP3    H225324   3.212   3.149  17.677  2.2481 -1.2022  0.4319
  377TIP3   OH225325   6.341   1.071  17.078 -0.1575 -0.2154  0.2711
  377TIP3    H125326   6.307   1.124  17.150  2.3055  0.2544  1.1935
  377TIP3    H225327   6.344   1.132  17.004 -2.1298 -0.5372 -0.1280
  378TIP3   OH225328   2.073   7.276  17.867  0.1896 -0.8122 -0.3333
  378TIP3    H125329   2.056   7.303  17.777 -1.1319  0.3970  0.2476
  378TIP3    H225330   2.135   7.203  17.859  0.4939 -0.3898 -2.1785
  379TIP3   OH225331   1.343   8.700  16.416  0.0054  0.0716 -0.1857
  379TIP3    H125332   1.364   8.695  16.509  1.2685 -0.7520 -0.4931
  379TIP3    H225333   1.272   8.637  16.405  1.3084 -1.4769 -0.1327
  380TIP3   OH225334   1.166   0.388  17.861 -0.0974 -0.0296  0.2283
  380TIP3    H125335   1.109   0.365  17.934  1.8347 -0.5537  1.6518
  380TIP3    H225336   1.228   0.315  17.856  0.7304  0.7341 -0.9653
  381TIP3   OH225337   5.066   6.593  16.008 -0.1069 -0.2170  0.2398
  381TIP3    H125338   4.978   6.626  15.994 -0.4727 -0.1018  2.4212
  381TIP3    H225339   5.119   6.635  15.940 -1.3853  1.1810  0.0580
  382TIP3   OH225340   0.819   8.125  16.561 -0.8626 -0.4833 -0.2195
  382TIP3    H125341   0.820   8.179  16.483 -0.6163 -2.3884 -1.5996
  382TIP3    H225342   0.836   8.036  16.530  0.7798 -1.1176  2.1500
  383TIP3   OH225343   4.269   2.462  16.936 -0.1945  0.4772 -0.7939
  383TIP3    H125344   4.364   2.473  16.933  0.6778 -3.7813  1.6916
  383TIP3    H225345   4.246   2.483  17.027 -1.3200 -0.1356 -0.9253
  384TIP3   OH225346   4.848   6.677  16.913  0.2419 -0.1186 -0.1848
  384TIP3    H125347   4.934   6.693  16.874  0.8790  0.0625  1.2273
  384TIP3    H225348   4.868   6.634  16.997 -1.0070  0.5307  0.4638
  385TIP3   OH225349   2.670   0.812  16.722 -0.2885  0.0050  0.2432
  385TIP3    H125350   2.735   0.744  16.700 -1.4376 -1.4410  1.1215
  385TIP3    H225351   2.640   0.843  16.637  0.4995 -0.3434 -0.1839
  386TIP3   OH225352   7.347   7.496  17.106 -0.1443 -0.2351 -0.8202
  386TIP3    H125353   7.412   7.514  17.038  0.3875 -1.5676 -0.7145
  386TIP3    H225354   7.395   7.444  17.171 -1.1664 -0.7630 -0.4574
  387TIP3   OH225355   1.231   3.240  16.000 -0.0786  0.1824  0.0502
  387TIP3    H125356   1.261   3.177  16.066 -0.3155  0.6901  0.6554
  387TIP3    H225357   1.287   3.224  15.925  0.6971  0.0904  0.6320
  388TIP3   OH225358   3.762   4.956  17.319  0.1497  0.5230 -0.7466
  388TIP3    H125359   3.852   4.988  17.326  0.0288  0.6393  0.3457
  388TIP3    H225360   3.721   5.015  17.256  0.7379  0.6731 -1.0015
  389TIP3   OH225361   6.965   9.053  17.610 -0.1191 -0.0554 -0.7986
  389TIP3    H125362   7.048   9.046  17.563 -0.0065  3.0111 -1.2471
  389TIP3    H225363   6.923   8.968  17.597  3.4518 -2.2839  0.5903
  390TIP3   OH225364   1.697   4.904  16.421 -0.5102 -0.2930  0.1968
  390TIP3    H125365   1.756   4.831  16.401  0.0355  0.8477 -2.9328
  390TIP3    H225366   1.651   4.877  16.501  1.1493 -3.1057  0.3237
  391TIP3   OH225367   3.631   5.206  16.417 -0.6016 -0.1387  0.1983
  391TIP3    H125368   3.691   5.274  16.384 -0.7913 -0.5639 -1.0888
  391TIP3    H225369   3.671   5.124  16.389 -0.3707 -0.5863  1.7574
  392TIP3   OH225370   4.014   7.592  17.993 -0.2406 -0.2503  0.0881
  392TIP3    H125371   4.047   7.596  18.083  0.3017 -2.8482  0.0806
  392TIP3    H225372   4.026   7.500  17.967 -0.0525  0.4856 -2.7720
  393TIP3   OH225373   7.557   2.407  16.807  0.1985 -0.9029  0.4538
  393TIP3    H125374   7.568   2.325  16.760  1.5554 -0.8144  0.5754
  393TIP3    H225375   7.535   2.381  16.897 -0.8670 -1.0871  0.1585
  394TIP3   OH225376   0.181   0.807  17.710  0.4095  0.1092  0.0335
  394TIP3    H125377   0.251   0.780  17.650 -1.2014 -0.1882 -1.8004
  394TIP3    H225378   0.118   0.735  17.708 -0.7989  1.1243  0.2527
  395TIP3   OH225379   5.681   4.319  15.889 -0.4872  0.4971  0.5678
  395TIP3    H125380   5.758   4.270  15.861 -2.1934 -2.6482  0.8839
  395TIP3    H225381   5.672   4.389  15.824  1.1630 -0.6165 -0.9597
  396TIP3   OH225382   7.072   2.093  16.288  1.1713 -0.5531 -0.1801
  396TIP3    H125383   7.032   2.164  16.340  0.5314 -0.4460 -0.7982
  396TIP3    H225384   7.137   2.137  16.234  0.5991 -0.3755 -0.7478
  397TIP3   OH225385   0.304   8.151  17.717  0.3923 -0.3452 -0.4041
  397TIP3    H125386   0.347   8.235  17.703 -1.1052  0.4429 -0.5172
  397TIP3    H225387   0.374   8.087  17.710  1.3793  0.7934 -1.5630
  398TIP3   OH225388   8.780   9.094  15.720 -0.0146  0.1219 -0.5323
  398TIP3    H125389   8.694   9.136  15.719  0.2645  0.7862  0.6589
  398TIP3    H225390   8.839   9.160  15.686  0.3536  0.5566  0.8781
  399TIP3   OH225391   6.749   1.062  17.337 -0.9653  0.7693  0.0953
  399TIP3    H125392   6.717   1.006  17.267  0.1339  0.6027 -0.2934
  399TIP3    H225393   6.828   1.103  17.302 -0.0203  0.1881  1.4292
  400TIP3   OH225394   2.180   0.799  16.563  0.0541 -0.1108  0.1871
  400TIP3    H125395   2.235   0.724  16.583 -0.3235 -0.5780 -0.4684
  400TIP3    H225396   2.230   0.875  16.593  0.9537 -0.5419 -0.1847
  401TIP3   OH225397   3.962   7.958  16.294 -0.1726  0.5218 -0.0431
  401TIP3    H125398   3.870   7.951  16.269  0.1100  0.9130 -1.2593
  401TIP3    H225399   3.980   8.052  16.291  0.0547  0.5180  1.0187
  402TIP3   OH225400   1.885   4.835  17.457 -0.7908  0.3795 -0.1453
  402TIP3    H125401   1.942   4.779  17.509 -0.7480  0.7862  0.2551
  402TIP3    H225402   1.812   4.778  17.431  0.0221 -0.2669 -1.0616
  403TIP3   OH225403   7.059   3.770  17.222  0.3184  0.3243 -0.4131
  403TIP3    H125404   7.098   3.688  17.190 -0.2113 -0.1470  0.1132
  403TIP3    H225405   7.024   3.812  17.144 -1.6627 -1.1858 -0.4335
  404TIP3   OH225406   6.781   6.168  16.063 -0.1408  0.2941 -0.8930
  404TIP3    H125407   6.796   6.078  16.092 -1.9005  1.0562  3.0812
  404TIP3    H225408   6.717   6.161  15.993  0.3809 -1.5450 -1.2480
  405TIP3   OH225409   0.334   8.430  16.386 -0.1127  0.3722 -0.0269
  405TIP3    H125410   0.380   8.371  16.325  2.0747  1.5754  0.3670
  405TIP3    H225411   0.305   8.503  16.331 -0.7315  0.0678 -0.1104
  406TIP3   OH225412   7.458   6.695  17.075 -0.3013  0.7653 -0.0390
  406TIP3    H125413   7.496   6.629  17.133 -0.4999  1.6560  1.1497
  406TIP3    H225414   7.364   6.684  17.084 -0.3581  0.0238 -1.2691
  407TIP3   OH225415   3.900   7.766  17.502  0.7554  0.3641  0.2500
  407TIP3    H125416   3.914   7.676  17.476  1.1417  0.1953  1.0040
  407TIP3    H225417   3.822   7.763  17.558  1.0110  0.4213  0.6187
  408TIP3   OH225418   2.459   1.842  17.261  0.0028  0.6945  0.2808
  408TIP3    H125419   2.416   1.826  17.177 -0.1017  1.9257  0.0780
  408TIP3    H225420   2.533   1.899  17.240 -0.0197  1.0060  1.0177
  409TIP3   OH225421   2.397   4.212  16.676 -0.8073  0.4474  0.0648
  409TIP3    H125422   2.368   4.193  16.587  0.8703  1.1373 -0.6791
  409TIP3    H225423   2.478   4.163  16.686 -1.3031 -0.1256  1.4669
  410TIP3   OH225424   3.989   2.530  17.628 -0.3121 -0.1271 -0.3274
  410TIP3    H125425   4.062   2.475  17.654 -0.6890 -0.5278 -0.0982
  410TIP3    H225426   4.005   2.614  17.672  0.6746  0.2262 -1.3067
  411TIP3   OH225427   0.410   7.248  17.662  0.0360  0.6850 -0.0405
  411TIP3    H125428   0.437   7.204  17.581  1.0207 -0.1200  0.6993
  411TIP3    H225429   0.490   7.254  17.714 -0.8740 -0.4080  1.5966
  412TIP3   OH225430   1.569   1.806  15.681  0.0821  0.2529 -0.8046
  412TIP3    H125431   1.537   1.836  15.596  1.9228  1.3113 -1.1641
  412TIP3    H225432   1.627   1.733  15.660 -2.1079 -1.8132 -0.1407
  413TIP3   OH225433   4.207   2.764  17.097 -0.3472  0.4134  0.3961
  413TIP3    H125434   4.285   2.743  17.147  0.3917 -1.2386 -1.3458
  413TIP3    H225435   4.135   2.729  17.149  0.2158  0.3265  1.1353
  414TIP3   OH225436   2.218   5.992  17.306 -0.2357  0.3752 -0.2564
  414TIP3    H125437   2.130   5.962  17.328 -0.5028 -0.0020 -1.7095
  414TIP3    H225438   2.277   5.935  17.355 -0.7959  0.1499  0.1556
  415TIP3   OH225439   6.807   5.473  17.878  0.9506  0.2560  0.8466
  415TIP3    H125440   6.888   5.488  17.830  0.2340 -0.1885 -0.5564
  415TIP3    H225441   6.816   5.384  17.913 -0.5542 -1.6561 -2.9513
  416TIP3   OH225442   0.413   3.402  17.651 -0.3316 -0.5084 -0.0370
  416TIP3    H125443   0.320   3.419  17.641 -0.3536 -0.6383 -0.0513
  416TIP3    H225444   0.419   3.310  17.677 -0.2231 -0.4147  0.2706
  417TIP3   OH225445   0.670   4.642  16.210 -0.1112  0.7002  0.8789
  417TIP3    H125446   0.688   4.736  16.213 -2.0517  1.1284  0.6729
  417TIP3    H225447   0.748   4.601  16.246  1.0545  2.3500  0.3142
  418TIP3   OH225448   1.536   5.117  17.323  0.0384 -0.4192  0.1678
  418TIP3    H125449   1.602   5.107  17.392  0.3866  1.2819  0.1355
  418TIP3    H225450   1.562   5.196  17.277 -1.8625  0.1452 -0.0258
  419TIP3   OH225451   3.639   3.452  15.660  0.2172  0.0143 -0.0748
  419TIP3    H125452   3.631   3.379  15.598 -0.3382 -0.0281  0.0476
  419TIP3    H225453   3.691   3.417  15.732  2.1607  0.4902 -1.1732
  420TIP3   OH225454   2.834   8.160  17.721 -0.0808 -0.4723 -0.5185
  420TIP3    H125455   2.767   8.119  17.776  0.4067  1.0608  1.3005
  420TIP3    H225456   2.914   8.155  17.774  1.0187 -1.2387 -2.1798
  421TIP3   OH225457   2.103   9.133  16.990 -0.2966 -0.5082  0.1367
  421TIP3    H125458   2.137   9.054  16.947 -1.9233 -2.0286  1.4552
  421TIP3    H225459   2.135   9.126  17.080  0.4310  0.9381  0.0136
  422TIP3   OH225460   2.787   2.267  16.139 -0.0736  0.1759 -0.4381
  422TIP3    H125461   2.701   2.234  16.166 -0.7303  0.6855 -1.7666
  422TIP3    H225462   2.836   2.188  16.115 -0.4852 -0.0618 -0.5143
  423TIP3   OH225463   8.878   6.388  16.979  0.5957  0.3458  0.2275
  423TIP3    H125464   8.881   6.308  17.031  1.0372  0.2717  0.0939
  423TIP3    H225465   8.790   6.389  16.941  0.5738 -0.0503  0.2658
  424TIP3   OH225466   5.240   2.313  17.758  0.3879  0.4875 -0.6673
  424TIP3    H125467   5.309   2.267  17.710 -0.7884 -0.7952 -1.1842
  424TIP3    H225468   5.263   2.301  17.850 -1.1537 -3.3659 -0.6378
  425TIP3   OH225469   4.642   4.002  17.577 -0.1537 -0.2579 -0.4149
  425TIP3    H125470   4.566   3.951  17.549 -1.2705  0.5936  0.8737
  425TIP3    H225471   4.605   4.085  17.607  1.5168  1.0101 -1.6488
  426TIP3   OH225472   8.191   7.568  17.436  0.0342  0.2391 -0.5504
  426TIP3    H125473   8.278   7.605  17.450 -0.5766  1.6589 -0.3025
  426TIP3    H225474   8.167   7.595  17.347 -0.2628  0.1026 -0.5121
  427TIP3   OH225475   1.613   7.420  17.988 -0.3500 -0.1417 -0.0949
  427TIP3    H125476   1.703   7.446  18.007 -0.4397  0.9335 -1.0107
  427TIP3    H225477   1.605   7.431  17.893 -0.3811 -3.6779 -0.6649
  428TIP3   OH225478   0.013   1.805  15.802  1.1835 -0.0342 -0.0850
  428TIP3    H125479  -0.007   1.898  15.804 -0.6031 -0.2706 -2.5382
  428TIP3    H225480   0.107   1.801  15.784  1.5977  1.2113  1.5098
  429TIP3   OH225481   4.100   8.530  16.770  0.4973  0.2234  0.3323
  429TIP3    H125482   4.023   8.473  16.774  0.8793 -0.3982 -0.7637
  429TIP3    H225483   4.109   8.564  16.859  0.1044 -1.2393  0.9662
  430TIP3   OH225484   3.077   0.469  17.144  0.3684 -0.7344  0.0139
  430TIP3    H125485   3.027   0.389  17.128 -0.3280 -0.3587  0.2672
  430TIP3    H225486   3.082   0.512  17.059  0.4381 -0.8695 -0.0503
  431TIP3   OH225487   4.524   5.847  15.790  0.1538  0.0285  0.2192
  431TIP3    H125488   4.615   5.871  15.805  0.7089 -1.4291 -0.6317
  431TIP3    H225489   4.473   5.921  15.825  1.6991  1.9540 -1.3491
  432TIP3   OH225490   0.765   3.615  16.456 -0.2421 -0.4468  0.1382
  432TIP3    H125491   0.690   3.634  16.401 -0.0818 -0.5562 -0.1230
  432TIP3    H225492   0.829   3.683  16.433  0.3743 -1.3346 -0.8775
  433TIP3   OH225493   9.176   1.304  16.667 -0.2744  0.0077 -0.1737
  433TIP3    H125494   9.121   1.376  16.638 -1.1202 -0.9208 -0.9498
  433TIP3    H225495   9.180   1.245  16.592  1.6082 -0.0621 -0.0597
  434TIP3   OH225496   5.715   1.925  17.759 -0.4578  0.7319 -0.2543
  434TIP3    H125497   5.777   1.863  17.795 -0.9640  1.1671  1.4440
  434TIP3    H225498   5.760   1.963  17.684  1.3087  0.9922  0.8823
  435TIP3   OH225499   4.356   1.252  16.503  0.9995  0.0090  0.1872
  435TIP3    H125500   4.428   1.229  16.561  1.6799  0.7118 -0.3657
  435TIP3    H225501   4.396   1.263  16.417  0.4635  1.7002  0.1274
  436TIP3   OH225502   2.394   1.368  16.153 -0.1496  0.1380 -0.4904
  436TIP3    H125503   2.446   1.290  16.135 -0.8655 -0.4103 -0.2317
  436TIP3    H225504   2.364   1.398  16.067  0.0275  0.0576 -0.5789
  437TIP3   OH225505   3.477   7.147  16.480 -0.0535  0.4330 -0.7757
  437TIP3    H125506   3.537   7.219  16.499 -0.0942  0.1944  0.3272
  437TIP3    H225507   3.515   7.072  16.525 -1.4709  0.4090  0.4677
  438TIP3   OH225508   3.070   7.929  17.056 -0.3391  0.1841  0.1075
  438TIP3    H125509   3.029   7.947  16.971 -0.3741  1.2392  0.3450
  438TIP3    H225510   3.032   7.993  17.115  1.8282  1.3985  0.2889
  439TIP3   OH225511   8.472   6.475  16.451  0.1180  0.0934  0.7072
  439TIP3    H125512   8.544   6.417  16.428  0.2992  0.3235  0.6853
  439TIP3    H225513   8.393   6.428  16.425  0.3111  0.2883 -0.2485
  440TIP3   OH225514   6.206   8.784  16.828 -0.4150  0.3540 -0.0103
  440TIP3    H125515   6.228   8.877  16.834 -0.4287  0.3264  0.5165
  440TIP3    H225516   6.138   8.771  16.895  2.0834 -0.7775  2.5182
  441TIP3   OH225517   6.585   5.800  15.997 -0.3281 -0.5967 -0.3391
  441TIP3    H125518   6.639   5.808  15.919 -0.5142 -2.1860 -0.6604
  441TIP3    H225519   6.616   5.870  16.055  1.1932 -0.6542 -1.0363
  442TIP3   OH225520   3.824   2.990  16.839  0.3550 -0.4660  0.2266
  442TIP3    H125521   3.846   2.945  16.758  1.2120 -0.2502  0.3237
  442TIP3    H225522   3.730   3.005  16.834  0.5825  0.7370 -1.3617
  443TIP3   OH225523   6.216   9.067  16.799 -0.5022 -0.3212  0.5268
  443TIP3    H125524   6.162   9.121  16.856  0.4872  0.3206  0.8879
  443TIP3    H225525   6.224   9.118  16.718  0.0088 -0.1474  0.6815
  444TIP3   OH225526   4.569   8.557  17.866 -0.4229 -0.0623 -0.2611
  444TIP3    H125527   4.505   8.519  17.925  0.8628 -0.2444  1.0659
  444TIP3    H225528   4.552   8.515  17.781  0.2126 -2.8366  0.8772
  445TIP3   OH225529   5.939   5.391  16.279 -0.1012 -0.3085  0.0685
  445TIP3    H125530   5.961   5.390  16.186 -0.1297  0.1996  0.0534
  445TIP3    H225531   5.977   5.310  16.314  0.5171 -0.1573 -0.2428
  446TIP3   OH225532   6.699   7.409  16.015 -0.5366 -0.4756  0.3346
  446TIP3    H125533   6.621   7.356  16.001 -0.3136 -0.7137 -0.0207
  446TIP3    H225534   6.706   7.463  15.937  0.0254 -0.9317  0.0631
  447TIP3   OH225535   1.200   3.396  17.197  0.6517 -0.7085 -0.0180
  447TIP3    H125536   1.217   3.413  17.105  1.0366 -2.7333 -0.3712
  447TIP3    H225537   1.246   3.465  17.244 -1.0426  1.4352 -1.3490
  448TIP3   OH225538   0.061   8.228  16.233  0.7189 -0.5387 -0.0172
  448TIP3    H125539   0.129   8.169  16.201  1.6497  0.7454 -0.5296
  448TIP3    H225540   0.071   8.307  16.179 -0.1701  0.2702  0.9549
  449TIP3   OH225541   2.327   0.481  16.812  0.0662  0.0583  0.0608
  449TIP3    H125542   2.342   0.574  16.793  0.0413  0.0221 -0.1386
  449TIP3    H225543   2.415   0.444  16.824  0.1736 -0.2124 -1.3887
  450TIP3   OH225544   4.971   6.998  16.646 -0.4763 -0.1696 -0.3658
  450TIP3    H125545   4.905   7.048  16.694 -0.6704  0.0900 -0.8840
  450TIP3    H225546   4.926   6.919  16.618 -0.3525 -0.3392 -0.0816
  451TIP3   OH225547   3.197   7.272  16.307 -0.3959 -0.4082  0.3362
  451TIP3    H125548   3.224   7.337  16.241 -0.5137 -1.0058 -0.3171
  451TIP3    H225549   3.110   7.245  16.279 -1.7594  1.5090  2.4364
  452TIP3   OH225550   2.334   1.014  16.636 -0.4154  0.3572  0.0306
  452TIP3    H125551   2.342   1.057  16.721  0.2427  0.7593 -0.2272
  452TIP3    H225552   2.390   1.066  16.577 -0.2010 -0.4073 -0.4547
  453TIP3   OH225553   3.137   8.789  17.438  0.2332  0.0115 -0.3042
  453TIP3    H125554   3.136   8.698  17.466 -1.8809 -0.3988 -1.4704
  453TIP3    H225555   3.069   8.831  17.491  2.0840  1.3029  1.1858
  454TIP3   OH225556   1.528   5.300  17.662  0.1246  0.5517 -0.2652
  454TIP3    H125557   1.549   5.334  17.749  0.6876 -0.3023 -0.0572
  454TIP3    H225558   1.504   5.208  17.677  2.2647 -0.2150 -1.2352
  455TIP3   OH225559   1.801   8.639  17.141 -0.0098  0.5187  0.1371
  455TIP3    H125560   1.823   8.649  17.048 -0.6343 -1.0503 -0.2163
  455TIP3    H225561   1.705   8.629  17.142 -0.0753  1.1252  1.0165
  456TIP3   OH225562   0.784   5.220  17.660 -0.2224 -0.7250  0.2678
  456TIP3    H125563   0.818   5.206  17.572 -1.4989  1.2871 -0.6104
  456TIP3    H225564   0.759   5.132  17.690  2.0327 -1.7142 -0.5379
  457TIP3   OH225565   4.735   1.091  17.485  0.3553  0.1969  0.0899
  457TIP3    H125566   4.720   0.997  17.473  1.0983 -0.0030  0.6549
  457TIP3    H225567   4.720   1.128  17.398  0.4517 -0.4995 -0.2331
  458TIP3   OH225568   4.305   7.648  16.440  0.3356  0.9395  0.3404
  458TIP3    H125569   4.393   7.611  16.434 -0.3734 -0.7420 -0.1496
  458TIP3    H225570   4.252   7.593  16.384 -0.9695  2.2011  0.2802
  459TIP3   OH225571   3.928   1.409  15.720  0.1863 -0.2050  0.1897
  459TIP3    H125572   3.860   1.363  15.670 -2.0581  0.8594  2.0588
  459TIP3    H225573   3.951   1.485  15.665  1.3170 -1.5452 -1.2915
  460TIP3   OH225574   6.641   1.215  16.871  0.4050  0.4325  0.0562
  460TIP3    H125575   6.678   1.268  16.942  1.2434  1.2910 -0.9884
  460TIP3    H225576   6.547   1.226  16.879  0.2525 -1.5846  2.6260
  461TIP3   OH225577   3.154   2.808  16.873  0.0179 -0.0740 -0.6028
  461TIP3    H125578   3.182   2.730  16.825 -0.6555 -0.7247  0.0198
  461TIP3    H225579   3.222   2.873  16.856  1.3148 -1.2246 -0.0455
  462TIP3   OH225580   5.673   6.225  16.535  0.3655  0.2762  0.2625
  462TIP3    H125581   5.756   6.178  16.532  0.9310  1.2614 -0.5073
  462TIP3    H225582   5.698   6.317  16.526 -0.8193  0.5728 -0.1858
  463TIP3   OH225583   1.452   2.339  16.599  0.4505  0.2893  0.1038
  463TIP3    H125584   1.518   2.404  16.625  0.9595 -0.7082  1.4011
  463TIP3    H225585   1.373   2.365  16.647 -0.6932  2.4513 -2.6813
  464TIP3   OH225586   2.533   1.427  17.487  0.3155  0.2134  0.2263
  464TIP3    H125587   2.500   1.339  17.506  1.8342  0.0160  2.3087
  464TIP3    H225588   2.454   1.479  17.473 -0.6197 -1.4859 -1.2437
  465TIP3   OH225589   3.148   1.847  16.451  0.0708  0.0440  0.2349
  465TIP3    H125590   3.062   1.851  16.410 -0.4969  1.5099  1.4600
  465TIP3    H225591   3.210   1.837  16.378 -1.1154 -1.1815 -0.6507
  466TIP3   OH225592   8.331   0.654  17.409 -0.0214  0.4074  0.1009
  466TIP3    H125593   8.249   0.624  17.449 -0.1991 -0.6088 -0.9594
  466TIP3    H225594   8.400   0.613  17.460 -0.1115  1.9750  1.5587
  467TIP3   OH225595   3.717   6.072  16.986 -0.4962  0.0010  0.1702
  467TIP3    H125596   3.753   5.983  16.979 -0.5395  0.0185 -0.3158
  467TIP3    H225597   3.675   6.074  17.072  0.3786 -0.1233  0.6089
  468TIP3   OH225598   0.455   1.464  16.572  1.2034 -0.6682  0.0930
  468TIP3    H125599   0.527   1.481  16.633  1.2843 -0.5529 -0.0342
  468TIP3    H225600   0.497   1.439  16.490  1.1082 -0.3289 -0.0648
  469TIP3   OH225601   4.520   4.390  16.229 -0.0668  0.1170 -0.4922
  469TIP3    H125602   4.492   4.364  16.142 -0.6792 -2.5218  0.3967
  469TIP3    H225603   4.439   4.408  16.276  0.1140 -0.6111  0.1186
  470TIP3   OH225604   5.594   7.749  16.470 -0.0299 -0.3934 -0.0772
  470TIP3    H125605   5.572   7.828  16.518  0.2523 -1.4509  1.8711
  470TIP3    H225606   5.684   7.763  16.440  0.1692 -0.1384  0.6236
  471TIP3   OH225607   6.248   7.001  15.791  0.0227 -0.0722  0.1860
  471TIP3    H125608   6.303   6.924  15.777 -0.1536 -0.4930  1.5756
  471TIP3    H225609   6.159   6.968  15.782 -0.0335  0.3753 -1.0078
  472TIP3   OH225610   6.107   7.171  17.621  0.5706  0.1011  0.2728
  472TIP3    H125611   6.021   7.188  17.661 -0.3877 -0.2480 -1.5270
  472TIP3    H225612   6.086   7.132  17.536  2.4152  2.6681 -1.5321
  473TIP3   OH225613   8.289   9.180  16.033  0.3717  0.3121  0.3193
  473TIP3    H125614   8.363   9.133  15.994 -0.3258 -0.7198  0.1801
  473TIP3    H225615   8.218   9.168  15.970 -0.1405  0.5927  0.8336
  474TIP3   OH225616   4.432   5.739  16.727  0.3968 -0.3488  1.0711
  474TIP3    H125617   4.493   5.783  16.667  3.6560 -3.8223  1.3845
  474TIP3    H225618   4.434   5.792  16.806 -2.5781  3.3351 -0.9689
  475TIP3   OH225619   6.252   2.246  16.412 -0.0378  0.2568 -0.1777
  475TIP3    H125620   6.263   2.191  16.490  0.5327 -0.3663 -0.6777
  475TIP3    H225621   6.159   2.268  16.411  0.3942  2.7462  2.2790
  476TIP3   OH225622   1.660   7.356  17.518 -0.4079  0.2527 -0.1700
  476TIP3    H125623   1.600   7.381  17.588 -0.7982 -0.6609 -0.1682
  476TIP3    H225624   1.714   7.434  17.504 -0.9419  0.7556  0.5016
  477TIP3   OH225625   1.312   6.719  16.883 -0.2191  0.1598  0.0872
  477TIP3    H125626   1.333   6.809  16.907  0.0948 -0.0630  0.6684
  477TIP3    H225627   1.242   6.694  16.942  2.3948 -1.3215  2.8262
  478TIP3   OH225628   1.674   7.797  17.012 -0.3538  0.1302  0.4222
  478TIP3    H125629   1.634   7.884  17.022  3.5113  2.3546 -1.2350
  478TIP3    H225630   1.755   7.801  17.063 -0.7003 -3.1293  1.4581
  479TIP3   OH225631   5.199   4.475  16.744  0.6012  0.1956  0.7383
  479TIP3    H125632   5.147   4.395  16.738 -1.1685  1.4073 -2.1605
  479TIP3    H225633   5.160   4.524  16.816 -0.6856 -0.0103  0.2009
  480TIP3   OH225634   2.571   2.110  17.465  0.2419  0.1966  0.0225
  480TIP3    H125635   2.652   2.105  17.415 -0.2359  0.2859 -0.7746
  480TIP3    H225636   2.572   2.033  17.522  0.7118  0.0076 -0.2416
  481TIP3   OH225637   3.203   5.680  17.451  0.1052 -0.1730  0.0884
  481TIP3    H125638   3.294   5.674  17.421  0.5658  0.4488  1.3306
  481TIP3    H225639   3.177   5.589  17.465  0.3616 -0.3882 -0.7424
  482TIP3   OH225640   6.083   8.901  17.736 -0.5170  0.2467  0.4775
  482TIP3    H125641   6.164   8.892  17.786 -1.8210 -1.5045  2.4358
  482TIP3    H225642   6.103   8.967  17.670  1.9576  1.1232  1.9763
  483TIP3   OH225643   6.136   8.134  17.437  0.0357 -0.7345 -0.1004
  483TIP3    H125644   6.139   8.058  17.495  1.8744  1.4650  2.9809
  483TIP3    H225645   6.075   8.194  17.481 -1.4657 -0.3570 -2.5164
  484TIP3   OH225646   0.806   0.381  17.854 -0.6269  0.0091  0.2153
  484TIP3    H125647   0.833   0.349  17.768 -2.0905 -1.9288  0.4156
  484TIP3    H225648   0.763   0.306  17.896 -3.3142  1.9111  1.1739
  485TIP3   OH225649   6.258   2.659  16.856 -0.3209 -0.0989  0.0737
  485TIP3    H125650   6.342   2.659  16.811 -0.1798  1.0574  0.3070
  485TIP3    H225651   6.195   2.630  16.790  0.2409 -0.8337 -0.1409
  486TIP3   OH225652   1.607   5.880  17.860  0.9500  0.0047  0.1895
  486TIP3    H125653   1.523   5.841  17.886  0.4597 -0.0050 -1.2950
  486TIP3    H225654   1.619   5.853  17.769  0.8454  2.8207 -0.7542
  487TIP3   OH225655   8.562   8.003  15.775  0.5245 -0.4798 -0.0021
  487TIP3    H125656   8.631   8.062  15.743  0.2221  0.8922  1.7148
  487TIP3    H225657   8.565   8.012  15.870 -2.2606 -0.0622  0.1320
  488TIP3   OH225658   7.316   0.095  16.927 -0.0043 -0.1864  0.4182
  488TIP3    H125659   7.388   0.034  16.940  0.6399  0.2372 -0.9730
  488TIP3    H225660   7.357   0.182  16.932 -0.4467  0.0613 -0.1470
  489TIP3   OH225661   4.033   4.274  16.942 -0.1279 -0.5847 -0.2921
  489TIP3    H125662   4.064   4.358  16.909  1.0173 -1.3535 -1.2398
  489TIP3    H225663   3.938   4.285  16.951  0.1395  1.2283  0.9012
  490TIP3   OH225664   8.508   3.593  18.071  0.7473  0.0070 -0.1383
  490TIP3    H125665   8.565   3.669  18.061  1.2291 -0.2402  0.6710
  490TIP3    H225666   8.544   3.527  18.012  0.6676  0.2041 -0.4103
  491TIP3   OH225667   0.626   8.596  17.570 -0.3355  0.0305  0.0763
  491TIP3    H125668   0.699   8.546  17.532 -0.9679  0.9794 -2.5972
  491TIP3    H225669   0.668   8.666  17.619  0.5373 -1.2667  1.2396
  492TIP3   OH225670   5.759   8.500  17.847 -0.1481  0.2192 -0.0687
  492TIP3    H125671   5.795   8.493  17.759  1.2243 -2.9280  0.6204
  492TIP3    H225672   5.687   8.436  17.848  0.7823 -0.8657  1.4373
  493TIP3   OH225673   7.155   3.717  17.463  0.2760  0.2878  0.1750
  493TIP3    H125674   7.105   3.721  17.381 -0.2069 -0.8328  0.3944
  493TIP3    H225675   7.235   3.671  17.439  0.4634  0.6097  0.1798
  494TIP3   OH225676   4.010   0.976  17.231  0.0228  0.2452  0.0264
  494TIP3    H125677   3.979   0.963  17.321  0.5884 -0.1178  0.1713
  494TIP3    H225678   3.942   1.031  17.191 -0.2463  0.3966  0.6664
  495TIP3   OH225679   6.612   2.043  17.329  0.0351 -0.0072  0.3239
  495TIP3    H125680   6.655   1.958  17.334  2.0119  0.7816 -1.3486
  495TIP3    H225681   6.655   2.095  17.397  0.8167  0.4098 -0.4744
  496TIP3   OH225682   2.408   2.516  17.359  0.5669  0.1396 -0.2861
  496TIP3    H125683   2.441   2.568  17.286 -0.7952 -0.4221 -1.3681
  496TIP3    H225684   2.420   2.426  17.331  1.1766 -0.1149  0.7511
  497TIP3   OH225685   4.386   0.227  16.798 -0.0802 -0.4232  0.2683
  497TIP3    H125686   4.382   0.249  16.891  2.2097  1.2689  0.0353
  497TIP3    H225687   4.375   0.310  16.753 -2.1866 -1.3516 -1.0871
  498TIP3   OH225688   1.190   5.929  16.796 -0.3835 -0.2822 -0.0670
  498TIP3    H125689   1.170   6.022  16.786  1.1689  0.2826  1.5575
  498TIP3    H225690   1.247   5.909  16.722 -0.5569  0.1016 -0.3100
  499TIP3   OH225691   5.181   3.729  17.517  0.5057 -0.3624  0.6059
  499TIP3    H125692   5.251   3.664  17.525 -0.5060 -1.6821 -0.6554
  499TIP3    H225693   5.106   3.690  17.561  0.3347  0.7318  1.3314
  500TIP3   OH225694   1.043   1.931  17.027 -0.2288 -0.5632  0.2285
  500TIP3    H125695   0.964   1.903  16.982 -0.3084  0.9854 -0.6811
  500TIP3    H225696   1.011   1.968  17.110 -0.5931  0.8903 -0.5272
  501TIP3   OH225697   3.027   3.122  16.627 -0.3269 -0.0083 -0.2486
  501TIP3    H125698   3.061   3.210  16.640  0.3738 -0.6348  3.3258
  501TIP3    H225699   3.103   3.070  16.601  0.0257 -0.1056  0.8988
  502TIP3   OH225700   4.086   6.034  16.996 -0.7912 -0.2128 -0.1281
  502TIP3    H125701   4.007   6.026  17.050 -1.3070  0.8521 -0.6853
  502TIP3    H225702   4.140   6.098  17.044 -0.2446 -0.9610  0.2662
  503TIP3   OH225703   5.496   3.726  17.108  0.0053 -0.2776 -0.1876
  503TIP3    H125704   5.533   3.798  17.057  0.3138 -0.5077 -0.2896
  503TIP3    H225705   5.520   3.647  17.059  1.3170 -0.6014  0.9047
  504TIP3   OH225706   1.116   6.799  15.965  0.6971 -0.5647 -0.0692
  504TIP3    H125707   1.209   6.777  15.961  0.5621 -0.9707 -1.7247
  504TIP3    H225708   1.104   6.866  15.898  0.0181  0.4224  1.0048
  505TIP3   OH225709   0.918   5.344  16.204  0.3661 -0.4245 -0.2594
  505TIP3    H125710   1.001   5.298  16.190  0.6205  0.5515 -2.3637
  505TIP3    H225711   0.943   5.427  16.244  0.0407 -1.3988  2.1366
  506TIP3   OH225712   0.463   0.566  16.751 -0.1565 -0.5039 -0.2983
  506TIP3    H125713   0.505   0.609  16.825 -1.1589 -0.0676  0.0319
  506TIP3    H225714   0.404   0.632  16.715  0.4058 -0.6574 -1.5853
  507TIP3   OH225715   4.175   3.873  17.237 -0.2093  0.5965 -0.4075
  507TIP3    H125716   4.246   3.854  17.176  0.8412 -2.4366  1.5024
  507TIP3    H225717   4.095   3.866  17.185  0.6601 -1.6484 -1.5778
  508TIP3   OH225718   7.307   3.919  17.132  0.1201  0.3661 -0.1379
  508TIP3    H125719   7.310   3.933  17.227  2.2183 -0.0213 -0.0922
  508TIP3    H225720   7.367   3.984  17.096 -1.6238  1.3722 -1.3711
  509TIP3   OH225721   1.120   7.697  17.967 -0.7159 -0.1415  0.4631
  509TIP3    H125722   1.209   7.681  17.998 -1.4933 -2.5234  1.7321
  509TIP3    H225723   1.131   7.753  17.890  1.7192  1.0137  1.5453
  510TIP3   OH225724   7.394   1.335  16.654  0.3880 -0.0200  0.7770
  510TIP3    H125725   7.341   1.288  16.589  1.1301  1.3173 -0.8638
  510TIP3    H225726   7.423   1.267  16.715 -1.9575 -1.0196  0.9012
  511TIP3   OH225727   1.978   1.567  16.131 -0.2390 -0.6987 -0.1685
  511TIP3    H125728   2.062   1.612  16.117  0.3988 -2.2767 -1.9366
  511TIP3    H225729   1.965   1.569  16.225  1.6342 -0.1091  0.1301
  512TIP3   OH225730   3.234   5.190  16.635 -0.3419 -0.3160  0.0525
  512TIP3    H125731   3.185   5.265  16.668  0.0569  0.8015 -1.7393
  512TIP3    H225732   3.317   5.192  16.682 -1.2227 -1.0969  1.7340
  513TIP3   OH225733   4.572   3.200  17.760 -0.1485 -0.1924  0.0569
  513TIP3    H125734   4.523   3.266  17.808  0.0048 -1.6371  2.3695
  513TIP3    H225735   4.647   3.247  17.724  0.2554  0.8178  2.1062
  514TIP3   OH225736   0.005   2.664  17.653 -0.3764  0.1864 -0.0496
  514TIP3    H125737   0.036   2.600  17.716 -1.2286  1.8658  2.2382
  514TIP3    H225738  -0.032   2.734  17.707 -0.4801  2.0951 -2.4276
  515TIP3   OH225739   2.963   7.815  15.805 -0.0431 -0.3723 -0.9583
  515TIP3    H125740   3.004   7.900  15.822  0.1570 -0.4737 -0.9341
  515TIP3    H225741   2.914   7.828  15.724 -0.9571  0.0971 -0.3455
  516TIP3   OH225742   0.715   3.771  17.259  0.1978  0.1384  0.4867
  516TIP3    H125743   0.762   3.756  17.341 -0.3642 -1.0069  0.6156
  516TIP3    H225744   0.783   3.789  17.195  0.7838 -0.9162  0.7918
  517TIP3   OH225745   0.435   0.758  18.057  0.4690 -0.2315 -0.5148
  517TIP3    H125746   0.376   0.686  18.081  0.7971 -0.4777 -0.4440
  517TIP3    H225747   0.512   0.715  18.020  0.4032  0.1080 -1.0511
  518TIP3   OH225748   9.009   7.591  16.224 -0.1397  0.1957 -0.0129
  518TIP3    H125749   8.979   7.503  16.199 -1.3666  0.3917  0.7089
  518TIP3    H225750   8.990   7.645  16.148  1.4081 -0.2962 -0.7966
  519TIP3   OH225751   6.069   8.533  16.255  0.2986 -0.2445  0.6274
  519TIP3    H125752   6.001   8.534  16.188  0.3791  1.4373  0.5293
  519TIP3    H225753   6.069   8.443  16.287 -2.6173 -0.1267  1.2724
  520TIP3   OH225754   4.248   9.212  17.505  0.8979  0.5452 -0.5646
  520TIP3    H125755   4.177   9.218  17.569  0.2701  0.1032 -1.2086
  520TIP3    H225756   4.326   9.193  17.557  0.3155 -0.2679  0.0243
  521TIP3   OH225757   2.315   2.137  17.497  0.1568 -0.0770 -0.1181
  521TIP3    H125758   2.292   2.051  17.530  1.7433  0.0229  1.4191
  521TIP3    H225759   2.411   2.141  17.504  0.1302  1.7604 -0.2328
  522TIP3   OH225760   2.584   4.481  16.282  0.3950 -0.2375 -0.9179
  522TIP3    H125761   2.565   4.566  16.322 -0.3069 -1.0833  0.6129
  522TIP3    H225762   2.638   4.502  16.206  1.7346  1.4405  0.4325
  523TIP3   OH225763   9.055   4.217  17.416  0.1302  0.3697 -0.0174
  523TIP3    H125764   8.988   4.246  17.355  1.9003  0.7817 -1.8741
  523TIP3    H225765   9.138   4.243  17.375  1.5173 -1.6951  1.2827
  524TIP3   OH225766   3.414   6.699  17.690  0.6847  0.1345  0.0401
  524TIP3    H125767   3.458   6.782  17.668  0.6193  0.0868 -0.2777
  524TIP3    H225768   3.352   6.723  17.758 -1.0252  0.8265 -1.6623
  525TIP3   OH225769   1.817   5.922  18.012  0.0872 -0.2763  0.0477
  525TIP3    H125770   1.739   5.916  17.957 -0.5397  0.8814  0.7712
  525TIP3    H225771   1.864   5.998  17.978  1.5777 -1.6694 -1.1733
  526TIP3   OH225772   6.637   8.619  16.884  0.4413 -0.1465 -0.1735
  526TIP3    H125773   6.563   8.631  16.825  0.7685  2.5366 -0.1681
  526TIP3    H225774   6.602   8.570  16.959 -0.7134 -0.9251 -1.1952
  527TIP3   OH225775   8.774   4.261  16.749 -0.2258 -0.6511 -0.0844
  527TIP3    H125776   8.776   4.353  16.776 -1.3768 -0.6164 -0.0716
  527TIP3    H225777   8.753   4.265  16.655  1.4289 -0.8570 -0.4982
  528TIP3   OH225778   4.462   3.473  16.955 -0.4267 -0.7016 -0.2485
  528TIP3    H125779   4.512   3.463  16.874 -0.1729  0.4985 -0.2491
  528TIP3    H225780   4.410   3.393  16.960 -1.5565 -0.1835 -2.3811
  529TIP3   OH225781   7.563   1.820  17.596  0.1403  0.0672 -0.2584
  529TIP3    H125782   7.651   1.803  17.560 -0.4901  0.9846 -2.4363
  529TIP3    H225783   7.571   1.904  17.640  0.2102  0.5711 -1.1938
  530TIP3   OH225784   8.739   7.549  16.713  0.2858  0.3530 -0.0431
  530TIP3    H125785   8.815   7.493  16.698 -0.3270 -0.2208 -1.1477
  530TIP3    H225786   8.664   7.493  16.696 -0.3535  1.3836 -0.7429
  531TIP3   OH225787   2.093   0.617  17.107  0.0552 -0.1434 -0.8152
  531TIP3    H125788   2.077   0.560  17.032 -1.4103  1.2488 -1.6228
  531TIP3    H225789   2.188   0.620  17.115  0.3681  0.8709 -3.6575
  532TIP3   OH225790   2.110   7.632  18.147 -0.2646  0.4049 -0.1683
  532TIP3    H125791   2.034   7.600  18.099 -0.7164 -0.0766  0.8385
  532TIP3    H225792   2.083   7.629  18.239  0.8426  0.5895  0.1724
  533TIP3   OH225793   4.913   4.000  17.423  0.2200  0.3532  0.4297
  533TIP3    H125794   4.933   3.910  17.398  0.1696  0.6370 -0.6907
  533TIP3    H225795   4.843   3.992  17.487 -0.3488 -0.3809 -0.2568
  534TIP3   OH225796   4.767   8.444  16.957 -0.0261  0.4929  0.2532
  534TIP3    H125797   4.738   8.408  16.873  2.7125 -1.9376  0.1819
  534TIP3    H225798   4.812   8.525  16.933  0.0189  0.2459 -0.5315
  535TIP3   OH225799   1.427   2.665  17.317 -0.0603  0.2390 -0.3497
  535TIP3    H125800   1.487   2.739  17.311  1.1240 -0.7683 -1.7653
  535TIP3    H225801   1.441   2.630  17.405  0.0137  1.1435  0.0090
  536TIP3   OH225802   2.163   3.453  16.737 -0.0520  0.4826  0.5762
  536TIP3    H125803   2.114   3.419  16.662  1.4647  0.4440 -0.4662
  536TIP3    H225804   2.194   3.539  16.708  1.0521  0.2191  0.8948
  537TIP3   OH225805   6.315   1.936  16.445  0.1884  0.0806  0.2232
  537TIP3    H125806   6.341   1.845  16.454 -0.1069 -0.1101 -0.6770
  537TIP3    H225807   6.379   1.974  16.385  0.0308  0.3323  0.2086
  538TIP3   OH225808   5.407   9.123  18.095  0.5031 -0.1309 -0.1532
  538TIP3    H125809   5.438   9.083  18.014 -0.5286 -1.1273 -0.0750
  538TIP3    H225810   5.487   9.157  18.137  1.1319 -0.2589 -1.2131
  539TIP3   OH225811   3.218   2.237  16.690 -0.3571 -0.5651  0.0922
  539TIP3    H125812   3.174   2.152  16.698 -0.6042 -0.5644 -1.0673
  539TIP3    H225813   3.194   2.284  16.770 -2.5882 -0.5277 -0.5265
  540TIP3   OH225814   6.228   7.303  16.611 -0.0879  0.2666  0.1903
  540TIP3    H125815   6.274   7.219  16.621  0.6995  0.3195 -2.2914
  540TIP3    H225816   6.287   7.367  16.651  0.0724 -0.1542  0.6463
  541TIP3   OH225817   5.462   6.087  17.922  0.0682  0.3511 -0.0710
  541TIP3    H125818   5.461   6.134  18.005 -0.9207  1.9679 -0.9541
  541TIP3    H225819   5.546   6.110  17.882  0.6565 -0.6292  0.5537
  542TIP3   OH225820   0.836   5.953  16.308  0.4784  0.2043 -0.5637
  542TIP3    H125821   0.781   5.900  16.250 -0.8162 -0.2274  1.0066
  542TIP3    H225822   0.921   5.955  16.264 -0.5595  0.3171 -2.7274
  543TIP3   OH225823   1.210   5.743  16.241 -0.1461  0.3043  0.3947
  543TIP3    H125824   1.158   5.710  16.168  1.1810  1.5319 -1.1851
  543TIP3    H225825   1.252   5.665  16.278 -0.4665 -0.2832 -0.4534
  544TIP3   OH225826   5.313   7.666  15.732 -0.2685 -0.1320 -0.1093
  544TIP3    H125827   5.335   7.574  15.716  0.5211  0.0427 -0.0746
  544TIP3    H225828   5.217   7.666  15.742 -0.5870 -0.5711 -2.6473
  545TIP3   OH225829   2.017   6.657  17.294  0.1437 -0.3762 -0.6421
  545TIP3    H125830   2.052   6.705  17.219 -1.3617  3.0691  0.6441
  545TIP3    H225831   1.939   6.613  17.260  0.9961 -1.1511 -1.6494
  546TIP3   OH225832   1.932   3.290  17.531  0.1652  0.4985 -0.3453
  546TIP3    H125833   1.879   3.232  17.585  1.1240 -1.5362 -1.4817
  546TIP3    H225834   1.901   3.274  17.442  0.3598  1.8773 -0.6820
  547TIP3   OH225835   1.103   6.134  16.434 -0.4072  0.2193  0.1553
  547TIP3    H125836   1.077   6.084  16.357  0.0548  1.6149 -0.9463
  547TIP3    H225837   1.192   6.104  16.454 -0.4208  0.0596 -0.0257
  548TIP3   OH225838   1.788   2.273  16.392 -0.1496 -0.6003  0.3722
  548TIP3    H125839   1.710   2.239  16.349 -0.2174  0.4189 -0.3536
  548TIP3    H225840   1.770   2.366  16.405  1.0401 -0.2907 -0.0485
  549TIP3   OH225841   0.133   8.872  18.013 -0.3108 -0.4595  0.0605
  549TIP3    H125842   0.189   8.946  17.989 -0.3481  0.0643  1.4732
  549TIP3    H225843   0.194   8.800  18.027 -0.2310 -0.5789 -0.8448
  550TIP3   OH225844   3.554   6.370  17.174  0.1248  0.5165 -0.3740
  550TIP3    H125845   3.517   6.315  17.104 -1.2525 -1.5843  1.8435
  550TIP3    H225846   3.509   6.454  17.163 -0.4097  0.1000 -1.7203
  551TIP3   OH225847   8.246   4.427  17.796  0.1511  0.0812 -0.2840
  551TIP3    H125848   8.314   4.363  17.818  0.5331  0.2573 -0.9315
  551TIP3    H225849   8.173   4.373  17.765 -0.6521 -0.2155  1.9677
  552TIP3   OH225850   0.196   3.811  16.193 -0.4137 -0.2378 -0.4000
  552TIP3    H125851   0.180   3.748  16.122 -0.9995 -1.1300  0.4929
  552TIP3    H225852   0.284   3.843  16.177  0.1488 -1.7708 -0.5399
  553TIP3   OH225853   3.620   3.852  17.248  0.0088 -0.0839  0.0781
  553TIP3    H125854   3.586   3.792  17.182  1.0455  0.9240 -1.4626
  553TIP3    H225855   3.714   3.857  17.230  0.0839  1.3366  0.6799
  554TIP3   OH225856   8.494   6.685  16.619 -0.1576 -0.2518  0.8097
  554TIP3    H125857   8.570   6.655  16.668  1.5986  0.2556 -1.4540
  554TIP3    H225858   8.482   6.619  16.550 -0.5194  0.6938 -0.0592
  555TIP3   OH225859   8.629   1.676  17.858  0.1316  0.2565  0.1079
  555TIP3    H125860   8.691   1.749  17.857 -0.3300  0.7683  2.6875
  555TIP3    H225861   8.654   1.624  17.934 -1.4857 -0.5210  0.1592
  556TIP3   OH225862   7.117   3.106  16.949  0.0031  0.1237 -0.2779
  556TIP3    H125863   7.078   3.047  16.885 -0.3691  0.1838 -0.1061
  556TIP3    H225864   7.148   3.048  17.019 -0.0506  0.1042 -0.2704
  557TIP3   OH225865   6.599   3.704  17.453  0.1100  0.1906  0.2350
  557TIP3    H125866   6.668   3.711  17.519 -0.5592 -3.4239  1.5160
  557TIP3    H225867   6.523   3.745  17.494  0.9202  2.5477 -0.4629
  558TIP3   OH225868   7.591   3.408  17.614  0.1524  0.0943  0.0827
  558TIP3    H125869   7.569   3.413  17.521  0.8710  0.2754 -0.0799
  558TIP3    H225870   7.508   3.426  17.659 -0.0824  0.5743 -0.5268
  559TIP3   OH225871   2.544   7.291  17.511  0.1394 -0.2052  0.1061
  559TIP3    H125872   2.486   7.367  17.507  1.3295  0.7374 -0.1013
  559TIP3    H225873   2.621   7.318  17.461  0.0397 -2.0699 -1.1572
  560TIP3   OH225874   5.181   7.433  16.092 -0.9121 -0.1967 -0.4149
  560TIP3    H125875   5.127   7.421  16.013 -2.7431 -0.0348  0.7542
  560TIP3    H225876   5.128   7.397  16.163 -0.9198  2.9102  1.2980
  561TIP3   OH225877   6.148   2.995  17.473 -0.0260  0.0944 -0.3620
  561TIP3    H125878   6.068   3.002  17.421  0.0123  0.3524 -0.3882
  561TIP3    H225879   6.210   2.949  17.417 -0.2509 -0.3769 -0.2300
  562TIP3   OH225880   6.317   2.509  17.770 -0.2408 -0.4453  0.0213
  562TIP3    H125881   6.251   2.520  17.838 -0.4360  1.8294 -0.4713
  562TIP3    H225882   6.276   2.542  17.691  1.2268  0.3713 -0.4405
  563TIP3   OH225883   5.723   4.532  17.410  0.2254 -0.2365 -0.2988
  563TIP3    H125884   5.799   4.568  17.457 -0.8082 -1.2273  2.3002
  563TIP3    H225885   5.664   4.606  17.400  1.1417  0.3581 -1.6203
  564TIP3   OH225886   1.618   6.260  17.479 -0.2855 -0.5284 -0.2773
  564TIP3    H125887   1.649   6.170  17.479  0.2313 -0.3706 -1.2744
  564TIP3    H225888   1.646   6.295  17.394 -1.7716  0.1223 -0.5444
  565TIP3   OH225889   1.886   2.517  16.982  0.2120  0.0852 -0.2291
  565TIP3    H125890   1.794   2.495  16.963 -0.1194  2.4128 -1.8512
  565TIP3    H225891   1.935   2.475  16.911  0.4352 -1.1542  0.6342
  566TIP3   OH225892   0.551   2.613  18.201 -0.3897 -0.2418  0.0758
  566TIP3    H125893   0.479   2.553  18.217  0.4623 -1.6584 -1.1761
  566TIP3    H225894   0.595   2.578  18.124  2.6514 -0.4198  1.7268
  567TIP3   OH225895   4.073   4.123  17.196  0.3061 -0.5199 -0.1940
  567TIP3    H125896   4.119   4.182  17.255 -0.8214  0.6823 -0.4627
  567TIP3    H225897   4.052   4.177  17.120 -0.3531 -1.3880 -0.6437
  568TIP3   OH225898   3.662   6.710  17.467  0.0118 -0.3254 -0.1777
  568TIP3    H125899   3.645   6.640  17.531  1.1188 -0.3725  0.0970
  568TIP3    H225900   3.581   6.760  17.463 -0.3369 -0.8010  0.6763
  569TIP3   OH225901   7.591   3.366  17.320 -0.1810  0.0721 -0.1589
  569TIP3    H125902   7.685   3.352  17.328  0.0467  0.7871 -1.3653
  569TIP3    H225903   7.564   3.313  17.245 -0.6882  0.0799  0.0087
  570TIP3   OH225904   0.579   2.423  17.321  0.5079 -0.2821  0.5960
  570TIP3    H125905   0.494   2.461  17.345  0.0857 -0.1154 -1.0782
  570TIP3    H225906   0.574   2.410  17.227  1.9141 -1.3859  0.6401
  571TIP3   OH225907   7.870   3.145  16.611  0.0465  0.2803 -0.4204
  571TIP3    H125908   7.811   3.221  16.609 -0.2186  0.0834 -3.2051
  571TIP3    H225909   7.839   3.088  16.541  1.0893 -1.8005  0.7136
  572TIP3   OH225910   9.213   8.646  16.815 -0.0173  0.3598 -0.1822
  572TIP3    H125911   9.177   8.730  16.843  0.0491 -0.4651  2.7748
  572TIP3    H225912   9.300   8.668  16.781 -0.4140  1.5789 -0.4694
  573TIP3   OH225913   5.957   6.341  17.020  0.1225 -0.1337  0.2369
  573TIP3    H125914   5.963   6.343  17.115  2.2004  1.2538  0.1357
  573TIP3    H225915   6.035   6.387  16.990 -0.9587  0.3013 -2.1393
  574TIP3   OH225916   4.297   5.429  17.630  0.9393  0.0934 -0.7919
  574TIP3    H125917   4.243   5.369  17.578 -1.7050  1.2867  0.3821
  574TIP3    H225918   4.327   5.376  17.704 -2.3883  0.3217  0.9036
  575TIP3   OH225919   7.093   4.163  16.813 -0.1292 -0.1099  0.2201
  575TIP3    H125920   7.110   4.240  16.759 -2.0983  1.3100  1.4870
  575TIP3    H225921   7.085   4.091  16.750  1.1975  0.7947 -1.0449
  576TIP3   OH225922   1.283   0.896  16.822  0.4878 -0.3294  0.5053
  576TIP3    H125923   1.198   0.852  16.820 -0.0770  0.6900  0.9346
  576TIP3    H225924   1.347   0.826  16.833 -0.4673 -0.9304  2.6381
  577TIP3   OH225925   8.479   3.493  17.454  0.0906  0.1322 -0.0986
  577TIP3    H125926   8.492   3.490  17.359  0.4927  0.4288 -0.0559
  577TIP3    H225927   8.493   3.403  17.483 -0.7225 -0.0963 -0.4057
  578TIP3   OH225928   2.231   3.706  16.626 -0.2933  0.1545  0.1331
  578TIP3    H125929   2.322   3.723  16.648 -0.1222  1.1305 -1.1950
  578TIP3    H225930   2.233   3.674  16.536 -1.2409  0.0142  0.1528
  579TIP3   OH225931   2.418   1.570  17.052 -0.4864  0.2357  0.2174
  579TIP3    H125932   2.482   1.534  17.113 -1.1148 -0.3547  0.5425
  579TIP3    H225933   2.339   1.518  17.066 -1.1225  1.1142 -0.0020
  580TIP3   OH225934   4.759   1.884  17.549 -0.2084 -0.0743  0.2554
  580TIP3    H125935   4.682   1.831  17.571 -0.8723  0.8283  0.1452
  580TIP3    H225936   4.735   1.931  17.470  0.7131 -0.2873 -0.1632
  581TIP3   OH225937   0.773   8.356  15.962 -0.2721 -0.2366  0.5792
  581TIP3    H125938   0.790   8.331  16.053 -1.7570  2.8250  1.8521
  581TIP3    H225939   0.690   8.404  15.965 -1.0766 -1.1694 -2.6715
  582TIP3   OH225940   6.227   1.224  17.266  0.1405  0.1870 -0.1495
  582TIP3    H125941   6.167   1.269  17.206 -0.2219  1.4244  1.0714
  582TIP3    H225942   6.170   1.182  17.330  0.5337 -0.3063 -0.1212
  583TIP3   OH225943   4.838   4.132  16.062 -0.3339 -0.2823  0.1621
  583TIP3    H125944   4.839   4.037  16.073 -0.9219 -0.3928 -0.6677
  583TIP3    H225945   4.748   4.153  16.038  0.1906  0.2688 -1.4507
  584TIP3   OH225946   3.320   6.436  16.458 -0.0122 -0.1831  0.5109
  584TIP3    H125947   3.303   6.417  16.366  1.9976 -2.7360  0.5520
  584TIP3    H225948   3.360   6.523  16.458 -0.6006  0.1101 -0.9333
  585TIP3   OH225949   8.330   1.940  16.748 -0.0743  0.3822  0.0767
  585TIP3    H125950   8.410   1.988  16.728 -0.5264  1.2149  0.2073
  585TIP3    H225951   8.327   1.869  16.683  1.1344 -0.1089  0.5423
  586TIP3   OH225952   4.369   1.527  15.870 -0.0835  0.1081  0.1224
  586TIP3    H125953   4.303   1.467  15.837 -0.4330  1.0743 -0.9955
  586TIP3    H225954   4.425   1.473  15.926 -0.6843 -1.1336 -0.4430
  587TIP3   OH225955   1.736   3.478  16.789 -0.8764 -0.2888  0.0925
  587TIP3    H125956   1.663   3.456  16.732 -1.6747  0.3996  0.8290
  587TIP3    H225957   1.695   3.506  16.871  0.1130  2.0006 -0.1177
  588TIP3   OH225958   5.586   9.154  16.802  0.2037  0.0005 -0.3420
  588TIP3    H125959   5.594   9.231  16.858  0.3058  0.2162 -0.6510
  588TIP3    H225960   5.675   9.134  16.774  0.2419 -0.5428  0.1475
  589TIP3   OH225961   0.637   1.717  16.271 -0.1059 -0.2287 -1.3422
  589TIP3    H125962   0.643   1.746  16.362 -1.2266  0.2455 -1.4019
  589TIP3    H225963   0.715   1.664  16.258  1.7314  2.1960 -1.0136
  590TIP3   OH225964   4.362   1.349  17.229 -0.0670  0.1319 -0.1241
  590TIP3    H125965   4.316   1.267  17.215  2.0357 -0.9657 -1.1536
  590TIP3    H225966   4.398   1.371  17.143 -0.1670  1.9010  0.2388
  591TIP3   OH225967   7.085   1.686  17.412 -0.1756 -0.6896 -0.0614
  591TIP3    H125968   7.179   1.688  17.430  0.1832  1.4174 -1.7117
  591TIP3    H225969   7.079   1.675  17.317 -1.4163  2.2801 -0.4379
  592TIP3   OH225970   5.168   8.281  16.487 -0.0299 -0.1570 -0.4049
  592TIP3    H125971   5.219   8.346  16.439  0.1159  1.4598  1.7608
  592TIP3    H225972   5.081   8.284  16.447 -0.1410  1.7298 -0.1423
  593TIP3   OH225973   4.047   7.905  16.543  0.3244 -0.4551 -0.5881
  593TIP3    H125974   4.015   7.899  16.453 -0.1526 -0.2192 -0.4370
  593TIP3    H225975   4.030   7.995  16.569  1.3473 -0.2489 -0.5808
  594TIP3   OH225976   2.723   6.426  17.652 -0.8980  0.0547  0.1378
  594TIP3    H125977   2.794   6.447  17.591 -0.2876 -0.0809  0.7913
  594TIP3    H225978   2.665   6.369  17.602  0.0612 -0.7980 -0.0368
  595TIP3   OH225979   5.418   2.324  17.134  0.1421  0.0973 -0.4164
  595TIP3    H125980   5.385   2.319  17.045  1.8167 -2.7093 -0.9918
  595TIP3    H225981   5.509   2.349  17.125  0.9570 -2.3491  0.2395
  596TIP3   OH225982   9.041   0.838  16.851 -0.0196 -0.3055 -0.4657
  596TIP3    H125983   9.034   0.931  16.828  1.1056  0.8864  3.2654
  596TIP3    H225984   9.051   0.838  16.946 -0.3803 -4.3314 -0.2737
  597TIP3   OH225985   5.774   0.348  16.026  0.2355  0.2803  0.0795
  597TIP3    H125986   5.806   0.338  16.116  0.2991  0.5291  0.0837
  597TIP3    H225987   5.828   0.288  15.975  1.5590  1.5838 -0.1188
  598TIP3   OH225988   0.922   1.306  16.250  0.1765  0.1936 -0.6910
  598TIP3    H125989   0.909   1.227  16.198 -0.2746  0.9693 -1.7978
  598TIP3    H225990   0.898   1.281  16.339  1.5536 -1.3373 -0.7081
  599TIP3   OH225991   7.041   6.843  17.586 -0.3654 -0.4562  0.7660
  599TIP3    H125992   7.030   6.888  17.670 -0.1532 -1.5007  1.3607
  599TIP3    H225993   7.008   6.906  17.521 -0.0067  0.5823  1.5679
  600TIP3   OH225994   1.550   7.704  16.379  0.1469 -0.1384 -0.2680
  600TIP3    H125995   1.549   7.777  16.441 -1.3081 -1.1660  0.9965
  600TIP3    H225996   1.641   7.699  16.350  1.2208 -0.3963  2.7397
  601TIP3   OH225997   2.756   6.835  16.369  1.0108 -0.1347  0.1278
  601TIP3    H125998   2.746   6.900  16.438  1.7373  0.1803 -0.0466
  601TIP3    H225999   2.669   6.827  16.329  0.7507  0.1838  0.6291
  602TIP3   OH226000   8.169   0.261  16.986  0.1897  0.2379  0.5219
  602TIP3    H126001   8.190   0.189  16.926 -1.3294  0.0696  0.1461
  602TIP3    H226002   8.161   0.219  17.072 -0.6183 -0.0525  0.3165
  603TIP3   OH226003   6.740   8.987  17.828  0.1472 -0.0467  0.1700
  603TIP3    H126004   6.825   9.024  17.850 -0.2536  0.2219  1.3170
  603TIP3    H226005   6.698   9.052  17.772  0.0849  0.5327  0.8750
  604TIP3   OH226006   7.776   0.775  17.000 -0.6056 -0.3185  0.1230
  604TIP3    H126007   7.763   0.681  16.988 -0.2023 -0.1705 -1.8648
  604TIP3    H226008   7.696   0.805  17.043 -0.3614 -1.6742  1.6323
  605TIP3   OH226009   5.282   8.722  16.493 -0.6529  0.3085 -0.6868
  605TIP3    H126010   5.312   8.652  16.434 -0.7202 -1.0359  0.8194
  605TIP3    H226011   5.197   8.691  16.525  0.1474  0.1444  1.4354
  606TIP3   OH226012   8.442   1.796  16.428 -0.0568  0.0219 -0.2652
  606TIP3    H126013   8.512   1.860  16.438  0.2242 -0.2554 -0.4387
  606TIP3    H226014   8.480   1.727  16.374 -0.4511 -0.1499 -0.3277
  607TIP3   OH226015   8.996   2.384  16.317  0.1102  0.0759  0.1198
  607TIP3    H126016   8.914   2.338  16.333  0.0494  0.0347 -0.3036
  607TIP3    H226017   9.042   2.329  16.253 -0.0577  0.7064 -0.5559
  608TIP3   OH226018   6.925   3.539  17.981  0.1881 -0.7159 -0.4176
  608TIP3    H126019   6.831   3.527  17.996 -0.3739  2.1990 -1.0844
  608TIP3    H226020   6.940   3.501  17.894 -0.1261 -2.0781  0.1016
  609TIP3   OH226021   0.289   4.476  16.572 -0.2103 -0.0748 -0.0122
  609TIP3    H126022   0.312   4.409  16.508  1.4367  1.4221 -1.0851
  609TIP3    H226023   0.328   4.447  16.654  3.3543  0.9886 -1.1546
  610TIP3   OH226024   4.079   1.239  17.019 -0.2999  0.1145  0.3629
  610TIP3    H126025   4.012   1.170  17.021 -0.3599  0.1806  0.6759
  610TIP3    H226026   4.042   1.309  17.072 -0.7061  0.8222 -0.8119
  611TIP3   OH226027   0.295   6.057  17.229 -0.3711  0.3179 -0.3170
  611TIP3    H126028   0.299   6.090  17.319 -0.3069  1.3414 -0.6858
  611TIP3    H226029   0.385   6.061  17.198 -0.2196 -1.0006 -0.1070
  612TIP3   OH226030   1.478   3.423  16.275 -0.3525 -0.2464 -0.3166
  612TIP3    H126031   1.559   3.404  16.322  0.1154  1.1145 -0.5251
  612TIP3    H226032   1.495   3.392  16.186  0.6134  1.5155 -0.7966
  613TIP3   OH226033   7.452   3.180  16.769 -0.0091  0.3669  0.0012
  613TIP3    H126034   7.528   3.161  16.823  1.4411 -1.1388 -2.3591
  613TIP3    H226035   7.408   3.095  16.759  0.2792  0.3894 -1.8412
  614TIP3   OH226036   4.979   4.554  16.935 -0.0284  0.0774  0.0462
  614TIP3    H126037   5.022   4.484  16.983 -0.1207 -0.5587 -0.7737
  614TIP3    H226038   4.885   4.537  16.946 -0.0526 -0.6535 -1.1585
  615TIP3   OH226039   1.565   1.822  17.037  0.7316  0.0285 -0.1230
  615TIP3    H126040   1.484   1.814  16.988  0.0815  1.4773  0.6332
  615TIP3    H226041   1.553   1.766  17.114  0.8214 -0.4498 -0.4546
  616TIP3   OH226042   0.579   0.758  16.954  0.0365  0.3602 -0.0182
  616TIP3    H126043   0.573   0.790  17.044 -1.5510  0.6595 -0.2097
  616TIP3    H226044   0.673   0.743  16.940  0.2691  0.0206  1.7746
  617TIP3   OH226045   4.236   2.181  16.968 -0.5518  0.4574 -0.0629
  617TIP3    H126046   4.224   2.168  17.062  0.2969 -0.2285 -0.0335
  617TIP3    H226047   4.240   2.276  16.957 -1.0067  0.5528  0.5451
  618TIP3   OH226048   7.429   5.221  16.767 -0.1200  0.0006  0.1255
  618TIP3    H126049   7.486   5.164  16.715  0.0558  1.1506 -0.9915
  618TIP3    H226050   7.400   5.288  16.705 -0.1597  1.2444  1.4486
  619TIP3   OH226051   2.400   7.167  17.012 -0.0242  0.0752 -0.4287
  619TIP3    H126052   2.336   7.226  17.052  0.2538 -0.2976  0.6100
  619TIP3    H226053   2.482   7.217  17.012  0.3731 -0.5094  1.0862
  620TIP3   OH226054   4.939   3.673  17.636 -0.3860  0.4248  0.1273
  620TIP3    H126055   4.911   3.738  17.701 -2.7965 -1.2674  0.9215
  620TIP3    H226056   4.878   3.685  17.563 -0.3754 -0.4401 -0.0307
  621TIP3   OH226057   6.677   2.659  17.040 -0.2079 -0.4378 -0.0047
  621TIP3    H126058   6.743   2.729  17.036 -0.0734 -0.5987 -0.7848
  621TIP3    H226059   6.600   2.697  16.998  0.3001 -1.2047 -1.6936
  622TIP3   OH226060   6.949   4.955  15.975  0.1609  0.2717  0.6732
  622TIP3    H126061   6.995   5.039  15.974 -0.7329  0.8007 -1.2486
  622TIP3    H226062   6.860   4.976  15.947 -0.1526 -1.2815  0.3972
  623TIP3   OH226063   6.734   7.412  16.773 -0.2023 -0.7286  0.5006
  623TIP3    H126064   6.752   7.506  16.774 -1.5569 -0.4165 -0.6752
  623TIP3    H226065   6.783   7.377  16.847  2.3851  0.4890 -0.5360
  624TIP3   OH226066   5.874   3.863  17.243  0.2085  0.1288 -0.3864
  624TIP3    H126067   5.813   3.884  17.313  0.7215 -0.9189  0.3908
  624TIP3    H226068   5.961   3.873  17.283  0.5510  0.8209 -1.2515
  625TIP3   OH226069   4.464   8.783  16.193  0.2880  0.5293  0.2709
  625TIP3    H126070   4.500   8.702  16.229  1.8738  0.7221 -0.8021
  625TIP3    H226071   4.537   8.844  16.191 -0.8486  1.9672  0.9007
  626TIP3   OH226072   4.582   6.833  17.512  0.6277 -0.0904  0.4131
  626TIP3    H126073   4.491   6.856  17.494  1.0192  1.4980  0.2297
  626TIP3    H226074   4.583   6.814  17.606 -0.4076 -3.0773 -0.0954
  627TIP3   OH226075   6.806   4.451  17.321  0.1266  0.3155 -0.3993
  627TIP3    H126076   6.875   4.503  17.280  0.5615  0.2949  0.2728
  627TIP3    H226077   6.828   4.452  17.415 -1.9028  1.9779  0.1263
  628TIP3   OH226078   0.518   0.857  17.213 -0.2838  0.7562  0.1317
  628TIP3    H126079   0.467   0.917  17.159 -1.4604  1.4984  1.9757
  628TIP3    H226080   0.556   0.912  17.282  0.3715 -0.2842  0.6447
  629TIP3   OH226081   2.284   4.051  16.048 -0.5872 -0.0177 -0.0838
  629TIP3    H126082   2.363   4.015  16.089 -0.8813  0.0581  0.5646
  629TIP3    H226083   2.290   4.145  16.061  0.0219  0.1593 -1.4943
  630TIP3   OH226084   8.367   4.745  17.134 -0.0018 -0.1181 -0.1209
  630TIP3    H126085   8.279   4.757  17.097  0.1566  0.6879 -0.2443
  630TIP3    H226086   8.386   4.652  17.119 -0.9847 -0.3972  0.2609
  631TIP3   OH226087   0.484   6.392  17.739 -0.3485 -0.5255  0.3331
  631TIP3    H126088   0.526   6.378  17.824  0.1769  2.1056  0.5692
  631TIP3    H226089   0.397   6.352  17.749 -0.7624  0.7611  2.5685
  632TIP3   OH226090   1.948   7.758  17.114 -0.2231 -0.1230  0.5639
  632TIP3    H126091   2.007   7.822  17.154 -0.5931 -0.1333  1.1334
  632TIP3    H226092   1.977   7.673  17.149 -0.8860 -0.0799  1.2437
  633TIP3   OH226093   6.811   8.772  16.703  0.5929 -0.0876 -0.1587
  633TIP3    H126094   6.903   8.750  16.717  0.8606  0.7726 -0.4842
  633TIP3    H226095   6.763   8.710  16.758  1.3580 -0.5984 -0.0420
  634TIP3   OH226096   3.322   4.946  16.168  0.0539  0.2275  0.2301
  634TIP3    H126097   3.330   4.852  16.152 -1.3045  0.1499 -0.1698
  634TIP3    H226098   3.349   4.957  16.260  0.6673 -0.4729  0.1428
  635TIP3   OH226099   4.104   1.583  16.071  0.1483 -0.0208 -0.1312
  635TIP3    H126100   4.038   1.566  16.003 -0.5018  0.6178  0.3251
  635TIP3    H226101   4.167   1.511  16.062 -0.0694 -0.0914 -1.2333
  636TIP3   OH226102   2.666   5.693  17.124 -0.5452  0.6652 -0.2182
  636TIP3    H126103   2.665   5.788  17.126 -1.5510  0.6454  1.0561
  636TIP3    H226104   2.611   5.666  17.197  0.1227 -0.9022 -0.2458
  637TIP3   OH226105   2.368   7.566  16.754  0.9614  0.0584  0.5733
  637TIP3    H126106   2.394   7.658  16.750  1.1760 -0.0416 -2.1504
  637TIP3    H226107   2.443   7.518  16.719 -0.0561 -0.9090 -0.3828
  638TIP3   OH226108   8.762   5.979  17.887 -0.2831 -0.3437  0.0859
  638TIP3    H126109   8.722   5.982  17.974  1.0749 -0.9053  0.7511
  638TIP3    H226110   8.766   5.885  17.866 -1.3864 -0.1771 -0.9735
  639TIP3   OH226111   5.580   4.164  17.227 -0.6068 -0.0872 -0.1270
  639TIP3    H126112   5.562   4.213  17.147 -0.5541  0.4613  0.1902
  639TIP3    H226113   5.541   4.078  17.212  0.1986 -0.3074 -1.1073
  640TIP3   OH226114   1.048   3.135  16.227  0.4473 -0.0992  0.0270
  640TIP3    H126115   1.071   3.228  16.230  0.6509 -0.1690  1.0010
  640TIP3    H226116   1.090   3.098  16.304 -0.8836 -0.7207  0.4803
  641TIP3   OH226117   7.559   0.110  16.478  0.1223 -0.8566  0.1424
  641TIP3    H126118   7.614   0.119  16.401 -0.6420 -0.9325 -0.4279
  641TIP3    H226119   7.475   0.148  16.452  0.2356  0.2897  1.3573
  642TIP3   OH226120   4.892   5.737  16.963  0.2167  0.1614 -0.2443
  642TIP3    H126121   4.895   5.700  16.875 -0.2113  2.1375 -1.1445
  642TIP3    H226122   4.849   5.670  17.016  0.1525 -0.9151 -1.6040
  643TIP3   OH226123   6.068   2.975  17.068 -0.1322  0.6163 -0.2567
  643TIP3    H126124   6.033   3.039  17.130 -0.2554  0.0364  0.2757
  643TIP3    H226125   6.140   2.933  17.115  1.2077  1.6709 -1.2722
  644TIP3   OH226126   1.722   1.109  16.737  0.1512 -0.0548 -0.2577
  644TIP3    H126127   1.672   1.149  16.808 -1.0000 -0.1626 -0.9802
  644TIP3    H226128   1.687   1.020  16.730  1.1078 -0.4546 -0.1650
  645TIP3   OH226129   5.650   0.512  17.059 -0.1223  0.2819 -0.2350
  645TIP3    H126130   5.558   0.536  17.070  0.4018  2.4726 -0.2459
  645TIP3    H226131   5.667   0.524  16.965  0.1715 -0.2019 -0.2507
  646TIP3   OH226132   8.615   1.172  16.318  0.1094  0.3160  0.3223
  646TIP3    H126133   8.637   1.124  16.398  0.4505 -2.6443 -1.3933
  646TIP3    H226134   8.691   1.229  16.304  0.3047  0.4650  1.7606
  647TIP3   OH226135   0.975   0.267  16.796 -0.1581 -0.3290  0.2937
  647TIP3    H126136   0.998   0.247  16.705  0.4117  0.3703  0.2783
  647TIP3    H226137   1.057   0.258  16.844 -0.7473 -2.2430  1.0437
  648TIP3   OH226138   2.816   0.356  17.316  0.2742  0.1136 -0.2974
  648TIP3    H126139   2.747   0.310  17.365 -1.8767  1.0310 -2.2676
  648TIP3    H226140   2.860   0.287  17.266 -0.3644 -0.3056 -0.2979
  649TIP3   OH226141   1.491   3.421  16.652 -0.0267  0.1485 -0.5303
  649TIP3    H126142   1.537   3.469  16.583  0.7511 -0.3948 -0.3990
  649TIP3    H226143   1.402   3.455  16.649 -0.1230 -0.1293 -2.0681
  650TIP3   OH226144   6.645   8.723  17.741 -0.4341  0.1304 -0.1946
  650TIP3    H126145   6.684   8.810  17.754 -1.1396  0.4624 -0.2569
  650TIP3    H226146   6.579   8.717  17.809  0.6952 -1.0267  0.8626
  651TIP3   OH226147   3.840   8.459  16.847 -0.1485 -0.3970 -0.0696
  651TIP3    H126148   3.797   8.498  16.923 -1.3538 -2.0952  0.1845
  651TIP3    H226149   3.839   8.364  16.864 -0.7087 -0.8686 -2.3063
  652TIP3   OH226150   2.640   3.558  16.172 -0.1231 -0.4441 -0.3066
  652TIP3    H126151   2.701   3.590  16.105 -0.2467 -0.3853 -0.3904
  652TIP3    H226152   2.652   3.618  16.245 -0.5744 -0.0181 -0.5747
  653TIP3   OH226153   0.129   0.659  16.177 -0.0873  0.5744  0.4665
  653TIP3    H126154   0.038   0.628  16.171 -0.0371  0.4693  0.2280
  653TIP3    H226155   0.182   0.581  16.162  0.0710  1.1770 -2.9666
  654TIP3   OH226156   4.868   0.010  17.432  0.0100  0.5224 -0.3331
  654TIP3    H126157   4.869   0.008  17.336 -1.3315 -0.5388 -0.3526
  654TIP3    H226158   4.775   0.010  17.455  0.3050 -0.7701  0.9788
  655TIP3   OH226159   6.901   6.513  16.520  0.0747  0.2002  0.9460
  655TIP3    H126160   6.853   6.595  16.510 -1.2343 -0.4870  1.3649
  655TIP3    H226161   6.955   6.526  16.598 -1.3489  0.1452  2.0050
  656TIP3   OH226162   3.885   7.438  17.087  0.2058 -0.0984  0.4623
  656TIP3    H126163   3.967   7.409  17.046  0.8060 -0.5613  1.9253
  656TIP3    H226164   3.906   7.524  17.122  0.1718 -0.3451  1.0992
  657TIP3   OH226165   0.118   0.522  16.635  0.3058  0.3487  0.2902
  657TIP3    H126166   0.151   0.612  16.637  0.0147  0.4489  0.7444
  657TIP3    H226167   0.029   0.529  16.670  0.4991 -0.2089  0.9177
  658TIP3   OH226168   4.335   6.073  16.583 -0.6102 -0.1751  0.1355
  658TIP3    H126169   4.254   6.088  16.535  0.5911  1.8697 -1.4323
  658TIP3    H226170   4.364   6.160  16.609  1.4248 -0.7535  0.0025
  659TIP3   OH226171   1.429   4.509  16.868  0.0816  0.2216  0.4108
  659TIP3    H126172   1.470   4.477  16.949  1.9698 -0.0828 -0.6172
  659TIP3    H226173   1.429   4.604  16.877  0.8484  0.2173  0.5126
  660TIP3   OH226174   1.655   1.680  16.437 -0.5906 -0.3955 -0.0291
  660TIP3    H126175   1.676   1.587  16.425  0.4628 -0.2008  0.2242
  660TIP3    H226176   1.690   1.701  16.524  2.0186  1.0131 -1.3228
  661TIP3   OH226177   5.824   0.083  17.352  0.2342  0.1876 -0.0059
  661TIP3    H126178   5.811   0.132  17.271  0.1274  0.7236  0.3270
  661TIP3    H226179   5.863   0.000  17.325 -0.9192 -0.1494 -0.7234
  662TIP3   OH226180   0.793   3.151  16.594 -0.4336  0.1899 -0.1485
  662TIP3    H126181   0.880   3.138  16.556 -0.7613 -0.1652 -0.7840
  662TIP3    H226182   0.735   3.097  16.541 -0.9765  0.0699  0.5581
  663TIP3   OH226183   1.170   0.066  16.095  0.0747 -0.2494  0.0676
  663TIP3    H126184   1.263   0.052  16.115 -0.0491 -0.3080  0.6075
  663TIP3    H226185   1.126   0.060  16.179 -0.6320 -1.9135 -0.3651
  664TIP3   OH226186   0.266   2.888  16.975  0.3324 -0.1352 -0.5925
  664TIP3    H126187   0.324   2.882  16.899  0.6603  0.0430 -0.3529
  664TIP3    H226188   0.256   2.797  17.004  2.0988  0.0136  0.5880
  665TIP3   OH226189   4.355   3.289  16.721 -0.5454  0.1404  0.0596
  665TIP3    H126190   4.437   3.277  16.768 -0.6863  0.0594  0.2893
  665TIP3    H226191   4.305   3.210  16.739 -0.2959 -0.2466 -0.8630
  666TIP3   OH226192   4.752   4.507  17.414  0.4320 -0.2146 -0.0156
  666TIP3    H126193   4.735   4.413  17.410 -0.1978 -0.0953 -0.1729
  666TIP3    H226194   4.837   4.518  17.372  1.5150 -0.9696  1.8235
  667TIP3   OH226195   9.129   7.968  15.993 -0.4049  0.4477  0.6295
  667TIP3    H126196   9.193   8.039  15.983 -1.6090  1.4375 -0.2814
  667TIP3    H226197   9.048   8.003  15.957 -1.1779 -1.2091  0.6745
  668TIP3   OH226198   8.070   1.922  16.319  0.3012 -0.3179 -0.1288
  668TIP3    H126199   8.150   1.869  16.315  0.6978  0.3266 -1.0253
  668TIP3    H226200   8.034   1.918  16.230  0.0978  0.5575 -0.0902
  669TIP3   OH226201   5.471   8.283  16.467  0.0977 -0.0124  0.7889
  669TIP3    H126202   5.415   8.355  16.436 -0.5912 -1.2232 -0.9474
  669TIP3    H226203   5.559   8.310  16.442 -0.0500  0.5969  0.8975
  670TIP3   OH226204   8.759   0.002  17.223 -0.1920 -0.1908  0.9929
  670TIP3    H126205   8.743   0.070  17.288  0.7234  2.1561 -1.0947
  670TIP3    H226206   8.855  -0.006  17.219 -0.1710  0.5627 -0.8355
  671TIP3   OH226207   1.040   6.480  17.816 -0.2061  0.3963 -0.2426
  671TIP3    H126208   1.127   6.504  17.785  0.1167  0.6390  0.8075
  671TIP3    H226209   0.998   6.563  17.838  0.2421  0.1751  1.6514
  672TIP3   OH226210   5.655   1.743  16.864  0.4651 -0.0056  0.3332
  672TIP3    H126211   5.741   1.700  16.861  0.5264  0.1240  0.2505
  672TIP3    H226212   5.608   1.705  16.790  0.7486  0.5609 -0.1426
  673TIP3   OH226213   3.825   6.356  16.393 -0.1315 -0.8376 -0.4340
  673TIP3    H126214   3.815   6.419  16.321 -1.6807  0.0947  0.5300
  673TIP3    H226215   3.750   6.298  16.385 -0.9274 -0.0725  1.0019
  674TIP3   OH226216   2.585   7.915  16.056  0.4287 -0.8877 -0.5715
  674TIP3    H126217   2.514   7.876  16.003  0.6514  1.3022 -2.6472
  674TIP3    H226218   2.584   8.007  16.032  2.2864 -0.2936  1.4078
  675TIP3   OH226219   8.868   8.647  17.749 -0.0496  0.4937  0.1551
  675TIP3    H126220   8.923   8.669  17.825 -1.1021 -0.1187  1.1340
  675TIP3    H226221   8.928   8.606  17.687  0.8364  0.9799  0.6659
  676TIP3   OH226222   7.596   5.754  17.510  0.1108  0.6967 -0.5513
  676TIP3    H126223   7.571   5.666  17.538  0.4130  1.1298  1.1973
  676TIP3    H226224   7.601   5.748  17.415 -1.5495 -0.7230 -0.6000
  677TIP3   OH226225   8.160   5.449  16.523  0.9030 -0.2136 -0.1626
  677TIP3    H126226   8.166   5.523  16.462 -1.2857  0.1012 -0.0659
  677TIP3    H226227   8.179   5.372  16.470  0.9000  0.2165 -0.7982
  678TIP3   OH226228   7.291   6.502  16.669 -0.4167  0.2372  0.1180
  678TIP3    H126229   7.207   6.534  16.701  0.1832 -0.1046  2.1867
  678TIP3    H226230   7.295   6.411  16.696 -0.3965 -0.5061 -2.1705
  679TIP3   OH226231   3.343   0.505  15.840  0.3839 -0.5848  0.2893
  679TIP3    H126232   3.438   0.496  15.832  0.2825 -0.2260 -2.5280
  679TIP3    H226233   3.312   0.417  15.858  1.1808 -0.9203  0.0651
  680TIP3   OH226234   2.166   0.368  17.367  0.2892 -0.6743 -0.1497
  680TIP3    H126235   2.177   0.463  17.366 -0.6538 -0.5098  1.6337
  680TIP3    H226236   2.089   0.353  17.313 -0.4280 -0.2761  0.7496
  681TIP3   OH226237   2.433   6.244  16.612 -0.1267  0.1393 -0.2608
  681TIP3    H126238   2.375   6.178  16.575 -1.2980  1.0771 -0.1617
  681TIP3    H226239   2.418   6.321  16.557  0.3134  0.6715  0.3657
  682TIP3   OH226240   8.894   5.891  16.766  0.2231  0.0733 -0.4449
  682TIP3    H126241   8.875   5.957  16.699  1.1748  2.1185  1.1733
  682TIP3    H226242   8.809   5.851  16.785 -0.7041  1.9918 -0.3483
  683TIP3   OH226243   2.200   7.601  16.962 -0.7399 -0.0333  0.4894
  683TIP3    H126244   2.246   7.614  16.879  1.6073 -2.1097  1.3263
  683TIP3    H226245   2.244   7.660  17.023 -1.1222  0.0543  0.6846
  684TIP3   OH226246   0.363   5.546  16.748 -0.4195 -0.1925 -0.6945
  684TIP3    H126247   0.406   5.481  16.692 -1.0983  0.4633 -2.0181
  684TIP3    H226248   0.273   5.549  16.715 -1.1905 -0.6650  1.2324
  685TIP3   OH226249   4.801   0.840  16.576 -0.1513 -0.3556  0.5952
  685TIP3    H126250   4.778   0.748  16.568  0.2147 -0.3577 -0.6475
  685TIP3    H226251   4.856   0.858  16.500  0.1947  0.7709  1.0841
  686TIP3   OH226252   7.503   7.597  16.906  0.2273 -0.3593 -0.9971
  686TIP3    H126253   7.488   7.622  16.815 -0.1926  1.7733 -0.4038
  686TIP3    H226254   7.568   7.660  16.938  0.2433 -0.9557  0.2151
  687TIP3   OH226255   6.932   9.213  16.901  0.5410  0.0404  0.4339
  687TIP3    H126256   6.881   9.270  16.960  3.4586  0.7350  2.5286
  687TIP3    H226257   6.981   9.274  16.845  1.2829 -0.4725  0.5070
  688TIP3   OH226258   4.320   8.924  16.632  0.2267  0.4826  0.2693
  688TIP3    H126259   4.323   9.018  16.615 -0.0273  0.8513  2.1188
  688TIP3    H226260   4.349   8.884  16.549  0.8414  2.1809 -0.3796
  689TIP3   OH226261   3.624   7.944  16.974  1.0992  0.1106  0.1150
  689TIP3    H126262   3.644   7.979  17.061  0.4222  0.0073  0.3206
  689TIP3    H226263   3.657   7.854  16.976 -0.9904 -0.7113  1.1252
  690TIP3   OH226264   5.125   1.242  17.980  0.3252  0.1065  0.3590
  690TIP3    H126265   5.111   1.191  18.059  0.1697 -0.3602  0.0377
  690TIP3    H226266   5.207   1.289  17.995 -0.2463  0.8616  1.2266
  691TIP3   OH226267   2.990   6.158  15.705  0.6664 -0.0558 -0.1748
  691TIP3    H126268   2.926   6.214  15.660 -1.2307 -1.7537  0.2646
  691TIP3    H226269   2.936   6.095  15.754  2.6435  0.2326  2.5994
  692TIP3   OH226270   1.313   6.246  17.511 -0.3883  0.1673  0.0945
  692TIP3    H126271   1.336   6.177  17.574 -0.5184 -1.5615 -1.6611
  692TIP3    H226272   1.392   6.256  17.457 -1.5807 -1.3622 -2.0386
  693TIP3   OH226273   2.498   1.236  17.843 -0.2361  0.6004 -0.1192
  693TIP3    H126274   2.551   1.305  17.883 -1.3054  0.8074  0.9824
  693TIP3    H226275   2.489   1.170  17.912 -0.3470 -0.0236 -0.7210
  694TIP3   OH226276   6.902   2.443  16.138  0.5099 -0.2167  0.2478
  694TIP3    H126277   6.985   2.400  16.115 -0.7017 -2.0883 -0.9410
  694TIP3    H226278   6.913   2.534  16.109  2.6299 -0.0419  1.4403
  695TIP3   OH226279   1.657   8.424  16.424 -0.5396  0.2888 -0.1931
  695TIP3    H126280   1.564   8.403  16.419 -0.5046  0.1646 -0.3125
  695TIP3    H226281   1.695   8.383  16.346 -0.3199  0.0093  0.0630
  696TIP3   OH226282   0.992   0.620  18.106  0.4109  0.2392  0.4445
  696TIP3    H126283   1.073   0.621  18.056 -0.0054 -0.7391 -0.2851
  696TIP3    H226284   0.989   0.531  18.144 -0.0375  0.4567  0.9327
  697TIP3   OH226285   0.524   6.326  17.417 -0.0993 -0.5191 -0.0281
  697TIP3    H126286   0.525   6.360  17.506 -1.1367 -0.8739  0.1352
  697TIP3    H226287   0.507   6.233  17.427  1.5287 -0.9013 -0.5263
  698TIP3   OH226288   7.759   5.259  16.802  0.2767  0.1664  0.3877
  698TIP3    H126289   7.817   5.262  16.726 -0.6295  1.0003 -0.3015
  698TIP3    H226290   7.797   5.321  16.864  0.4839  0.2098  0.2189
  699TIP3   OH226291   9.211   4.060  17.707 -0.0451 -0.6436 -0.3116
  699TIP3    H126292   9.166   4.144  17.709  1.0084  0.0281 -2.3147
  699TIP3    H226293   9.155   4.003  17.655  0.0610 -0.6548 -0.4155
  700TIP3   OH226294   1.819   6.860  17.454  0.2048  0.4137 -0.0640
  700TIP3    H126295   1.779   6.846  17.368  0.1361  1.5747 -0.2364
  700TIP3    H226296   1.911   6.836  17.441 -0.0613 -0.5989 -0.1286
  701TIP3   OH226297   5.179   2.564  16.817  0.0053  0.5564  0.2947
  701TIP3    H126298   5.219   2.598  16.737  0.2365  0.0477  0.1916
  701TIP3    H226299   5.220   2.479  16.831 -0.4265  0.3986  0.6562
  702TIP3   OH226300   1.236   3.150  17.322  0.2041 -0.5065 -0.0293
  702TIP3    H126301   1.197   3.226  17.279  0.0622 -0.0394  0.9019
  702TIP3    H226302   1.325   3.146  17.286  0.3154  0.2801  0.1367
  703TIP3   OH226303   0.441   3.164  17.735 -0.3547  0.1839 -0.0601
  703TIP3    H126304   0.498   3.088  17.722 -0.4000  0.0784  0.3458
  703TIP3    H226305   0.356   3.137  17.700 -0.1965  0.2828 -0.5172
  704TIP3   OH226306   5.855   8.647  16.411  0.1651 -0.1427  0.4343
  704TIP3    H126307   5.835   8.738  16.388 -0.5925 -0.5774 -0.7273
  704TIP3    H226308   5.937   8.628  16.365  0.9342  0.2593  1.5739
  705TIP3   OH226309   3.604   8.492  17.345  0.5382  0.3682  0.0931
  705TIP3    H126310   3.663   8.541  17.402 -0.6680 -0.3205  2.0475
  705TIP3    H226311   3.538   8.456  17.405 -2.0651  1.3681 -2.0050
  706TIP3   OH226312   1.815   5.036  16.201 -0.2900  0.3595 -0.3055
  706TIP3    H126313   1.738   5.026  16.145 -0.3830  1.3361 -0.3620
  706TIP3    H226314   1.789   4.999  16.285 -1.6541  2.7353  0.3996
  707TIP3   OH226315   7.438   0.482  17.395 -0.1380 -0.0519 -0.1444
  707TIP3    H126316   7.354   0.505  17.355  1.1579  1.5271 -2.1502
  707TIP3    H226317   7.437   0.524  17.480 -1.2876  0.0974 -0.2153
  708TIP3   OH226318   0.662   3.038  17.228 -0.1550 -0.1285 -0.3634
  708TIP3    H126319   0.629   2.949  17.219  0.3290 -0.2726 -0.7875
  708TIP3    H226320   0.704   3.039  17.314  0.3317 -0.4812 -0.5907
  709TIP3   OH226321   8.619   2.577  17.347 -0.1753 -0.0699 -0.7603
  709TIP3    H126322   8.708   2.568  17.383 -0.2942  0.2562 -0.3745
  709TIP3    H226323   8.577   2.642  17.404 -0.6540 -0.2073 -0.9537
  710TIP3   OH226324   4.019   8.679  16.507 -0.5774 -0.3486 -0.2598
  710TIP3    H126325   4.099   8.659  16.555 -0.5395 -0.4674 -0.3719
  710TIP3    H226326   3.954   8.697  16.575  0.5002  3.8488 -0.0525
  711TIP3   OH226327   2.733   8.967  16.677  0.1203 -0.1167 -0.0289
  711TIP3    H126328   2.666   9.025  16.713  0.3279  1.2030 -1.6307
  711TIP3    H226329   2.806   8.974  16.739 -0.8825 -0.9241  1.2910
  712TIP3   OH226330   5.157   0.994  17.775 -0.0448  0.3177 -0.1700
  712TIP3    H126331   5.136   0.930  17.706 -0.1571  0.9328 -0.7199
  712TIP3    H226332   5.075   1.043  17.787  0.2444  0.8302 -0.2696
  713TIP3   OH226333   1.672   0.490  17.171 -0.1354  1.0491  0.0616
  713TIP3    H126334   1.631   0.479  17.257 -0.8505  1.0968 -0.2682
  713TIP3    H226335   1.663   0.584  17.153  1.7193  1.4085  0.7690
  714TIP3   OH226336   8.644   8.835  15.672 -0.0414  0.0588  0.4329
  714TIP3    H126337   8.672   8.746  15.652 -0.1800  0.1252 -0.0710
  714TIP3    H226338   8.725   8.887  15.668  0.1990 -0.1997  1.6899
  715TIP3   OH226339   5.000   3.099  17.126 -0.1864  0.4497 -0.3693
  715TIP3    H126340   5.037   3.136  17.046 -2.5697  0.5221 -1.5204
  715TIP3    H226341   4.950   3.023  17.097 -0.2736 -0.1313  1.2033
  716TIP3   OH226342   2.699   6.075  17.631 -0.2855  0.4396 -0.1777
  716TIP3    H126343   2.715   6.048  17.540  2.0920  0.5109  0.1521
  716TIP3    H226344   2.606   6.096  17.633 -0.3659  0.7392 -2.6905
  717TIP3   OH226345   2.548   2.705  17.195 -0.3600 -0.0380 -0.0735
  717TIP3    H126346   2.612   2.767  17.230 -0.2752  0.7822 -1.5968
  717TIP3    H226347   2.468   2.757  17.186 -0.6366 -0.4802 -0.1990
  718TIP3   OH226348   1.449   3.372  17.460 -0.0084  0.2325 -0.1654
  718TIP3    H126349   1.500   3.292  17.473  0.7801  0.4174 -1.8227
  718TIP3    H226350   1.369   3.342  17.416  0.3554  0.3616 -0.9238
  719TIP3   OH226351   3.941   6.402  18.014 -0.3559  0.2963  0.0063
  719TIP3    H126352   3.946   6.321  18.065 -0.8042 -0.8324 -1.6736
  719TIP3    H226353   3.962   6.471  18.077 -3.7815 -0.6928  2.5215
  720TIP3   OH226354   4.008   5.713  16.756 -0.1184 -0.2053 -0.0158
  720TIP3    H126355   4.017   5.630  16.709 -1.7227  0.7777 -2.2401
  720TIP3    H226356   4.074   5.709  16.825 -0.3506 -3.4420  0.1667
  721TIP3   OH226357   0.915   2.964  17.085  0.3069 -0.2991 -0.0718
  721TIP3    H126358   0.927   3.056  17.105  1.4610 -0.2323 -0.9589
  721TIP3    H226359   0.880   2.926  17.165  0.7738  0.7252  0.6344
  722TIP3   OH226360   3.957   8.016  17.576  0.3042  0.0783  0.1776
  722TIP3    H126361   3.913   8.048  17.497 -1.2847  1.4732  1.5262
  722TIP3    H226362   3.955   7.921  17.569 -0.5246  0.1701 -1.0817
  723TIP3   OH226363   1.135   4.530  16.975  0.4462 -0.3494 -0.0404
  723TIP3    H126364   1.173   4.523  16.887  0.8420 -1.1157  0.1826
  723TIP3    H226365   1.042   4.513  16.962  0.5816 -0.9692 -0.2516
  724TIP3   OH226366   6.769   2.715  17.450  0.3438 -0.5631 -0.3854
  724TIP3    H126367   6.785   2.621  17.439  0.5426 -0.5286 -0.3926
  724TIP3    H226368   6.855   2.755  17.440  0.2264 -0.3598 -0.5843
  725TIP3   OH226369   1.557   4.289  16.358  0.0693 -0.5406  0.3798
  725TIP3    H126370   1.612   4.363  16.330 -0.1733 -0.4147  0.2367
  725TIP3    H226371   1.532   4.310  16.448 -0.9542  0.1181 -0.0439
  726TIP3   OH226372   1.033   5.838  17.022 -0.0851 -0.0252 -0.5755
  726TIP3    H126373   1.066   5.885  16.946  0.2637 -0.0768 -0.4558
  726TIP3    H226374   1.101   5.774  17.043 -0.6969 -0.8043 -0.9261
  727TIP3   OH226375   8.749   7.077  15.888 -0.7387 -0.5414  0.4370
  727TIP3    H126376   8.704   7.074  15.973  0.1022  0.5872  0.9597
  727TIP3    H226377   8.767   7.170  15.874  1.1822 -0.8989  0.1496
  728TIP3   OH226378   1.714   3.705  16.530 -0.2844 -0.0109  0.0586
  728TIP3    H126379   1.795   3.729  16.575  0.0491  0.0076 -0.5395
  728TIP3    H226380   1.743   3.663  16.449 -0.8255 -3.0701  1.3201
  729TIP3   OH226381   2.976   8.392  16.815  0.0210 -0.5816 -0.2156
  729TIP3    H126382   2.943   8.395  16.904 -0.8326  3.0210 -0.5134
  729TIP3    H226383   3.065   8.427  16.821 -0.8234  1.9594 -0.9155
  730TIP3   OH226384   7.511   7.277  17.613 -0.0941  0.1042  0.3057
  730TIP3    H126385   7.495   7.241  17.526  0.5901  0.4638  0.0158
  730TIP3    H226386   7.573   7.349  17.597 -1.0650  1.1134  0.9113
  731TIP3   OH226387   0.286   1.855  15.780 -0.3451 -0.3034 -0.0147
  731TIP3    H126388   0.348   1.833  15.849  0.6700 -1.5164 -1.2579
  731TIP3    H226389   0.341   1.886  15.708 -1.3599  0.7351 -0.3688
  732TIP3   OH226390   1.097   7.420  17.484  0.0474 -0.1362 -0.0873
  732TIP3    H126391   1.147   7.339  17.472 -0.9322 -0.5666 -1.5135
  732TIP3    H226392   1.030   7.398  17.549 -1.1521 -0.9473 -1.5552
  733TIP3   OH226393   3.290   7.507  17.117  0.6094 -0.5740  0.5906
  733TIP3    H126394   3.232   7.532  17.189  0.3066  0.0912  0.1282
  733TIP3    H226395   3.235   7.454  17.059  0.8637 -1.1438  0.8622
  734TIP3   OH226396   3.752   7.607  17.898 -0.1380 -0.4121 -0.6067
  734TIP3    H126397   3.844   7.599  17.921 -0.5207 -0.5204  1.0371
  734TIP3    H226398   3.732   7.527  17.850  0.5527 -0.4993 -0.7606
  735TIP3   OH226399   7.952   2.479  17.798  0.1234  0.7591  0.3545
  735TIP3    H126400   7.891   2.482  17.871  0.2987  2.9716  0.4653
  735TIP3    H226401   8.025   2.535  17.824  0.1850  1.6345 -1.4999
  736TIP3   OH226402   8.282   4.730  16.508 -0.4158 -0.4391 -0.0047
  736TIP3    H126403   8.295   4.747  16.415 -1.6369  1.1473  0.0715
  736TIP3    H226404   8.193   4.760  16.526 -0.7572 -2.1112  1.3846
  737TIP3   OH226405   6.893   1.159  17.692 -0.6218  0.3248 -0.3166
  737TIP3    H126406   6.914   1.076  17.649 -0.4626 -1.4052  2.8189
  737TIP3    H226407   6.827   1.199  17.635 -1.3181 -2.3242 -1.5606
  738TIP3   OH226408   0.084   8.331  17.855 -0.0190  0.1383 -0.1641
  738TIP3    H126409   0.023   8.266  17.822 -0.8103  0.1364  1.1968
  738TIP3    H226410   0.169   8.288  17.853 -0.3138 -0.4252 -0.6156
  739TIP3   OH226411   1.441   8.201  17.195  0.0452  0.0285  0.4454
  739TIP3    H126412   1.515   8.167  17.145  0.3776  0.9451  0.2957
  739TIP3    H226413   1.480   8.231  17.277 -0.0232  1.2182  0.0604
  740TIP3   OH226414   0.023   8.436  16.992  0.0308  0.4868 -0.2610
  740TIP3    H126415   0.030   8.525  16.958  1.5869  0.3928 -0.2643
  740TIP3    H226416  -0.033   8.444  17.069  0.3741  1.5070 -0.1022
  741TIP3   OH226417   5.639   4.375  16.614 -0.0156  0.0084  0.2627
  741TIP3    H126418   5.633   4.391  16.708 -1.6294  2.8838 -0.2075
  741TIP3    H226419   5.727   4.339  16.601  0.8788  1.1372  2.6705
  742TIP3   OH226420   2.792   2.430  16.390  0.2460 -0.0734  0.8310
  742TIP3    H126421   2.752   2.381  16.318  1.0210  2.3361 -1.3506
  742TIP3    H226422   2.861   2.372  16.423  0.5245 -0.8438 -1.0012
  743TIP3   OH226423   2.381   3.595  16.033 -0.2378  0.3980 -0.0143
  743TIP3    H126424   2.416   3.663  15.976  1.6095 -1.9369 -1.9146
  743TIP3    H226425   2.459   3.550  16.067 -1.3777 -0.4513  1.5857
  744TIP3   OH226426   3.157   0.667  15.960 -0.6960  0.3150 -0.2961
  744TIP3    H126427   3.107   0.602  16.011  0.3649  1.0824  1.8447
  744TIP3    H226428   3.219   0.615  15.909 -2.6381 -0.5620 -1.8945
  745TIP3   OH226429   3.698   9.176  17.675 -0.5314 -1.0423 -0.4597
  745TIP3    H126430   3.637   9.250  17.678  1.6654  0.8771  0.0704
  745TIP3    H226431   3.687   9.132  17.759 -0.3494  0.0337  0.1427
  746TIP3   OH226432   6.409   7.629  16.986 -0.0049  0.3082 -0.7289
  746TIP3    H126433   6.432   7.641  17.078  0.8883  0.7544 -1.0050
  746TIP3    H226434   6.458   7.696  16.939 -3.0156  2.3514 -1.2266
  747TIP3   OH226435   6.329   7.310  17.731 -0.2769  0.3317  0.1505
  747TIP3    H126436   6.249   7.280  17.687 -1.3015  1.8756  0.8671
  747TIP3    H226437   6.385   7.233  17.734 -2.9432 -1.7456  2.4158
  748TIP3   OH226438   6.068   2.569  16.650  0.1446  0.6340  0.2432
  748TIP3    H126439   6.117   2.510  16.593 -0.4379  0.7855 -0.4270
  748TIP3    H226440   6.044   2.642  16.594 -1.2681  0.3404  0.4194
  749TIP3   OH226441   0.396   7.691  17.500  0.5389 -0.3970  0.1328
  749TIP3    H126442   0.366   7.679  17.591 -1.1675  1.0520 -0.1914
  749TIP3    H226443   0.408   7.785  17.491 -3.3203  0.0800 -2.2399
  750TIP3   OH226444   6.851   7.233  16.160 -0.6298  0.2622 -0.3152
  750TIP3    H126445   6.800   7.253  16.239 -1.7520  0.2879 -1.0273
  750TIP3    H226446   6.810   7.286  16.092  0.9324  0.9683 -0.7395
  751TIP3   OH226447   2.962   9.175  17.010 -1.0834 -0.2614 -0.3182
  751TIP3    H126448   2.986   9.176  16.917 -0.1723 -2.1010 -0.1432
  751TIP3    H226449   2.903   9.101  17.019 -1.7707  0.3710  0.4474
  752TIP3   OH226450   8.503   1.351  17.258 -0.2257 -0.1220 -0.3906
  752TIP3    H126451   8.503   1.277  17.196  1.1984 -0.0896 -0.4724
  752TIP3    H226452   8.491   1.310  17.344  1.3711 -0.5840 -0.3466
  753TIP3   OH226453   7.185   5.444  15.974 -0.5041  0.4438 -0.0240
  753TIP3    H126454   7.145   5.451  16.061 -1.1003 -0.9420 -0.1603
  753TIP3    H226455   7.153   5.361  15.940  0.6074  0.4408 -1.1225
  754TIP3   OH226456   2.200   0.142  17.715 -0.3029 -1.0425 -0.3913
  754TIP3    H126457   2.272   0.165  17.655  0.4819 -1.7596  0.2523
  754TIP3    H226458   2.165   0.060  17.680 -0.3709 -1.0418 -0.3239
  755TIP3   OH226459   9.144   6.882  16.529 -0.2972 -0.3795  0.2963
  755TIP3    H126460   9.118   6.962  16.483  2.5714 -0.3844 -1.5966
  755TIP3    H226461   9.087   6.814  16.493 -0.0631  0.1500 -1.1520
  756TIP3   OH226462   1.859   8.573  16.847 -0.2375 -0.3217  0.3635
  756TIP3    H126463   1.825   8.621  16.772 -0.0939 -0.8089 -0.0171
  756TIP3    H226464   1.948   8.606  16.858 -0.1286 -0.5153  0.0842
  757TIP3   OH226465   6.416   8.767  16.438 -0.3817 -0.0926  0.2418
  757TIP3    H126466   6.506   8.756  16.470 -0.2540  0.9734  0.2916
  757TIP3    H226467   6.390   8.854  16.469 -1.3329 -0.2751 -0.0140
  758TIP3   OH226468   8.215   0.310  17.432  0.2211  0.4337  0.3687
  758TIP3    H126469   8.218   0.236  17.371 -0.5364 -0.3533  1.2580
  758TIP3    H226470   8.181   0.382  17.379  0.0666 -0.0968 -0.2770
  759TIP3   OH226471   1.628   9.089  17.268 -0.3013  0.0871 -0.0767
  759TIP3    H126472   1.543   9.131  17.251 -0.8993 -0.7877  0.6155
  759TIP3    H226473   1.692   9.159  17.261 -0.8370  0.4257 -2.5929
  760TIP3   OH226474   4.750   7.792  17.112 -0.2313  0.0244  0.1003
  760TIP3    H126475   4.828   7.739  17.128  0.4211  0.7126 -0.7335
  760TIP3    H226476   4.741   7.845  17.190  0.0649 -0.1443  0.2516
  761TIP3   OH226477   4.733   1.678  17.237  0.4714  0.4910 -0.0883
  761TIP3    H126478   4.660   1.738  17.220  0.6485  1.0227  0.9435
  761TIP3    H226479   4.768   1.658  17.150 -1.4680 -0.5194 -0.7080
  762TIP3   OH226480   0.956   6.380  16.774 -0.7998  0.7947  0.2703
  762TIP3    H126481   0.893   6.416  16.712 -1.3683 -0.9436 -0.2261
  762TIP3    H226482   0.911   6.385  16.859 -2.1316 -1.3467 -0.2105
  763TIP3   OH226483   2.578   5.187  17.426 -0.1992 -0.2883  0.2784
  763TIP3    H126484   2.615   5.262  17.473 -0.6892 -0.3672  0.7956
  763TIP3    H226485   2.612   5.196  17.337 -0.1706  0.4949  0.3615
  764TIP3   OH226486   7.123   4.008  17.446 -0.3205  1.0565  0.0035
  764TIP3    H126487   7.207   4.051  17.431  0.8825 -0.9544  0.5441
  764TIP3    H226488   7.136   3.918  17.417 -2.7080  0.9798 -1.0458
  765TIP3   OH226489   7.666   5.305  17.593  0.1913 -0.0056  0.4490
  765TIP3    H126490   7.624   5.265  17.669  1.5819 -0.9591  0.7639
  765TIP3    H226491   7.683   5.231  17.534 -0.1167  0.5994 -0.4112
  766TIP3   OH226492   0.454   5.106  16.947  0.4110  0.0862 -0.2400
  766TIP3    H126493   0.523   5.170  16.961  0.7413 -0.3234  0.0139
  766TIP3    H226494   0.373   5.153  16.966  0.6047  0.6125 -0.6925
  767TIP3   OH226495   3.609   2.810  16.439  0.4185 -0.0617 -0.1425
  767TIP3    H126496   3.576   2.883  16.386  0.2993 -0.8583 -1.2100
  767TIP3    H226497   3.589   2.834  16.529  0.0502  1.0569 -0.5129
  768TIP3   OH226498   4.709   6.374  16.722 -0.4155 -0.2792  0.2141
  768TIP3    H126499   4.685   6.466  16.734 -0.5095 -0.1464 -0.9111
  768TIP3    H226500   4.637   6.325  16.762 -0.4844  0.1307  0.6034
  769TIP3   OH226501   8.111   6.218  17.565  0.5101 -0.1707  0.5450
  769TIP3    H126502   8.018   6.226  17.547  0.3279 -0.1640  1.4301
  769TIP3    H226503   8.142   6.309  17.570  0.6305 -0.1766 -0.0654
  770TIP3   OH226504   8.318   8.452  17.019 -0.4881  0.2449  0.4050
  770TIP3    H126505   8.306   8.459  17.113  1.4560 -0.3525  0.7403
  770TIP3    H226506   8.329   8.358  17.004  2.7212  0.5360  0.1487
  771TIP3   OH226507   5.043   7.879  16.606 -0.0852  0.2638 -0.0914
  771TIP3    H126508   4.998   7.943  16.551  1.1159  2.1628  1.0038
  771TIP3    H226509   5.017   7.794  16.570 -2.2350  1.3155 -1.2401
  772TIP3   OH226510   5.851   3.756  16.959  0.5592 -0.2965 -0.2173
  772TIP3    H126511   5.866   3.802  17.042  1.4031 -2.3569  0.8607
  772TIP3    H226512   5.776   3.801  16.920  0.9032  1.5162  1.0564
  773TIP3   OH226513   1.213   7.947  16.731 -0.3292  0.1103  0.1146
  773TIP3    H126514   1.237   8.007  16.661 -0.7520  0.8492  0.5870
  773TIP3    H226515   1.226   7.860  16.694 -1.2072  0.4755 -1.1187
  774TIP3   OH226516   2.071   7.566  17.544 -0.3482  0.3473 -0.6641
  774TIP3    H126517   2.147   7.558  17.485 -1.9073 -0.8701 -2.6225
  774TIP3    H226518   2.053   7.476  17.572  0.5716  0.9296  2.0862
  775TIP3   OH226519   6.823   5.140  16.308  0.1302  0.5956 -0.0262
  775TIP3    H126520   6.830   5.167  16.217  0.0369 -1.7434 -0.7785
  775TIP3    H226521   6.879   5.202  16.355  1.9425  0.5411 -1.9703
  776TIP3   OH226522   0.958   3.592  16.857 -0.0490 -0.0490 -0.5004
  776TIP3    H126523   0.954   3.511  16.807 -0.2979 -0.1771 -0.2775
  776TIP3    H226524   0.938   3.565  16.947 -1.0963  0.3967 -0.5817
  777TIP3   OH226525   3.886   0.403  17.559  0.2916  0.1658  0.1290
  777TIP3    H126526   3.820   0.429  17.624 -0.2995  2.4191 -1.2654
  777TIP3    H226527   3.842   0.336  17.506  0.5700 -1.2519  1.6144
  778TIP3   OH226528   5.594   3.042  16.534  0.0989 -0.1882 -0.4692
  778TIP3    H126529   5.561   3.070  16.449  0.9930 -0.6780 -0.9853
  778TIP3    H226530   5.538   2.968  16.558 -0.2821  0.0763 -0.5226
  779TIP3   OH226531   0.821   1.315  16.926  0.4788  0.0192  0.4045
  779TIP3    H126532   0.785   1.356  16.847  0.8883  0.3468  0.3881
  779TIP3    H226533   0.847   1.389  16.982  2.3984 -0.1917 -0.1534
  780TIP3   OH226534   2.064   1.793  16.526 -0.3678  0.3246 -0.1708
  780TIP3    H126535   2.025   1.726  16.470  0.2979  0.6703 -1.0852
  780TIP3    H226536   1.997   1.811  16.592 -0.5945 -1.1520  0.0347
  781TIP3   OH226537   0.762   7.335  16.533  0.4277 -0.2654 -0.1497
  781TIP3    H126538   0.718   7.263  16.489 -1.9376  0.9659 -0.0053
  781TIP3    H226539   0.782   7.302  16.621 -2.4167 -0.2537  0.5997
  782TIP3   OH226540   2.365   6.928  17.695  0.2225 -0.8017 -0.2545
  782TIP3    H126541   2.383   6.926  17.601  1.1084 -1.7145 -0.0857
  782TIP3    H226542   2.284   6.978  17.703  0.9543  0.6391 -1.3648
  783TIP3   OH226543   2.326   6.279  16.367 -0.1398  0.2658  0.0950
  783TIP3    H126544   2.305   6.336  16.293 -0.5205 -0.3378 -0.2610
  783TIP3    H226545   2.410   6.239  16.344 -0.2411  0.1047  0.0027
  784TIP3   OH226546   8.599   5.043  16.803 -0.2549 -0.2146 -0.1693
  784TIP3    H126547   8.570   4.975  16.741  1.1977 -0.3217 -0.7743
  784TIP3    H226548   8.570   5.011  16.888 -1.2089 -0.6797 -0.6526
  785TIP3   OH226549   5.041   7.625  15.799 -0.4317 -0.3478  0.4755
  785TIP3    H126550   5.025   7.531  15.795 -1.0516 -0.3343  1.7809
  785TIP3    H226551   5.012   7.650  15.888 -0.5568  1.1101  0.0556
  786TIP3   OH226552   7.483   7.999  16.608  0.6508  0.0557  0.1455
  786TIP3    H126553   7.535   7.936  16.658  0.3429  0.8057  1.4508
  786TIP3    H226554   7.483   8.078  16.662 -2.7621 -0.2371  0.7802
  787TIP3   OH226555   5.800   0.656  17.984 -0.5009 -0.5040 -0.2460
  787TIP3    H126556   5.893   0.664  18.005 -0.5293 -1.4300  0.3101
  787TIP3    H226557   5.779   0.564  18.003 -1.3453 -0.5032 -1.1107
  788TIP3   OH226558   3.005   1.780  17.156  0.0518  0.2088  0.1397
  788TIP3    H126559   3.085   1.801  17.108 -0.6169 -0.1213 -1.1605
  788TIP3    H226560   2.935   1.786  17.091 -0.8937 -0.2613  1.0747
  789TIP3   OH226561   1.373   7.614  18.012 -0.6666  0.2375 -0.5512
  789TIP3    H126562   1.414   7.675  17.950 -0.6264 -0.3825 -1.1378
  789TIP3    H226563   1.434   7.541  18.019  0.5056  1.3322  2.0783
  790TIP3   OH226564   6.488   2.367  17.582  0.3681 -0.3811  0.3629
  790TIP3    H126565   6.457   2.391  17.669  1.5806 -1.6805  1.2026
  790TIP3    H226566   6.476   2.446  17.530  0.3981  0.7069  1.9287
  791TIP3   OH226567   7.846   3.741  17.402  0.2647  0.1544  0.2478
  791TIP3    H126568   7.851   3.833  17.375 -0.0889  0.3431  0.8314
  791TIP3    H226569   7.854   3.692  17.319  1.2163  0.6826  0.0142
  792TIP3   OH226570   3.689   4.215  15.958 -0.7426 -0.4370 -0.0669
  792TIP3    H126571   3.610   4.166  15.982 -0.9115  0.6956  1.9625
  792TIP3    H226572   3.661   4.307  15.962  0.1323 -0.0763 -1.5809
  793TIP3   OH226573   8.253   1.662  16.902  0.1283 -0.0948 -0.1797
  793TIP3    H126574   8.161   1.637  16.897 -0.5257  2.1769 -0.6337
  793TIP3    H226575   8.282   1.665  16.811  0.8501 -1.3700 -0.0117
  794TIP3   OH226576   8.442   6.037  16.216 -0.0849  0.2562  0.1397
  794TIP3    H126577   8.351   6.050  16.244 -0.6687 -1.3201 -0.9214
  794TIP3    H226578   8.446   6.072  16.128  0.2603  0.0622  0.0739
  795TIP3   OH226579   6.434   1.153  17.781  0.4165  0.7359  0.6406
  795TIP3    H126580   6.484   1.155  17.699 -0.0665  0.5790  0.3372
  795TIP3    H226581   6.494   1.116  17.845  0.2797 -0.7084 -0.0222
  796TIP3   OH226582   5.221   6.461  16.986  0.3802  0.0802 -0.0234
  796TIP3    H126583   5.279   6.521  16.939 -1.7129 -0.5110 -3.7763
  796TIP3    H226584   5.245   6.374  16.955 -1.0208 -0.3539  0.0376
  797TIP3   OH226585   1.895   1.314  17.522  0.2573 -0.0262  0.5570
  797TIP3    H126586   1.804   1.293  17.500  0.2815 -0.7778  1.1288
  797TIP3    H226587   1.931   1.232  17.555  1.5806 -0.1365 -1.0125
  798TIP3   OH226588   2.442   7.791  16.610  0.1369 -0.3410  0.4301
  798TIP3    H126589   2.348   7.777  16.601  0.1725 -0.5676  0.3927
  798TIP3    H226590   2.455   7.884  16.593 -0.1130 -0.2547  0.6980
  799TIP3   OH226591   1.921   6.494  17.718 -0.3536  0.3839 -0.2405
  799TIP3    H126592   1.867   6.415  17.727 -0.8444  0.7780  0.3373
  799TIP3    H226593   1.999   6.464  17.673 -1.1636 -0.1534 -1.3412
  800TIP3   OH226594   4.662   1.094  18.207  0.0882  0.1213  0.4723
  800TIP3    H126595   4.614   1.086  18.125 -0.4511  1.1761  0.6718
  800TIP3    H226596   4.675   1.003  18.236 -1.7017 -0.2025  0.3692
  801TIP3   OH226597   5.852   9.073  15.865 -0.3931  0.8169 -0.2521
  801TIP3    H126598   5.782   9.065  15.929  0.8517 -0.3851  1.0189
  801TIP3    H226599   5.840   8.998  15.807  0.6961 -0.2994  0.8986
  802TIP3   OH226600   4.319   2.590  17.571  0.0377  0.0906  0.7968
  802TIP3    H126601   4.266   2.531  17.625  1.1157 -1.9009 -0.1876
  802TIP3    H226602   4.390   2.618  17.628 -0.9255  1.1526  1.5188
  803TIP3   OH226603   1.810   7.475  15.948 -0.4466  0.2965  0.0681
  803TIP3    H126604   1.772   7.389  15.968  0.7151 -0.0319  0.9769
  803TIP3    H226605   1.791   7.528  16.026  1.1995  0.0228  0.6958
  804TIP3   OH226606   2.253   3.532  17.503  0.2887 -0.5453  0.2607
  804TIP3    H126607   2.246   3.443  17.538 -0.4749 -0.3861  0.5379
  804TIP3    H226608   2.162   3.559  17.488  0.5315  0.0551 -0.1605
  805TIP3   OH226609   0.524   8.260  16.737 -0.6588 -0.6864  0.1309
  805TIP3    H126610   0.438   8.220  16.724 -1.6027  1.8392 -2.3109
  805TIP3    H226611   0.505   8.346  16.774  0.8116 -0.0373 -0.5711
  806TIP3   OH226612   5.927   6.875  17.597 -0.0730  0.2013 -0.1685
  806TIP3    H126613   5.921   6.929  17.519 -1.7216 -1.4259 -1.2483
  806TIP3    H226614   5.882   6.926  17.665 -2.0004  0.0816 -1.2747
  807TIP3   OH226615   4.142   8.416  17.313  0.5767 -0.4338 -0.1693
  807TIP3    H126616   4.142   8.504  17.275  0.9314  0.1480  1.1091
  807TIP3    H226617   4.154   8.431  17.407 -2.3957 -1.6649  0.5243
  808TIP3   OH226618   7.491   8.157  16.844 -0.3128  0.3303 -0.6266
  808TIP3    H126619   7.567   8.183  16.896 -1.3001  2.3125 -0.0781
  808TIP3    H226620   7.416   8.184  16.896 -1.3610  0.8989 -2.3575
  809TIP3   OH226621   3.401   5.946  17.537  0.4926  0.1543 -0.6882
  809TIP3    H126622   3.426   6.034  17.511  0.7207  0.6203  0.9975
  809TIP3    H226623   3.484   5.902  17.557  0.4035 -0.5533 -1.7700
  810TIP3   OH226624   3.400   3.326  16.401  0.5982  1.3364 -0.5119
  810TIP3    H126625   3.467   3.304  16.465  1.7285  0.4267 -1.9387
  810TIP3    H226626   3.332   3.370  16.451  1.5916  0.9689  1.2295
  811TIP3   OH226627   4.668   1.372  16.564 -0.7885  0.0776  0.3449
  811TIP3    H126628   4.649   1.465  16.556  0.9139  0.5884  1.6922
  811TIP3    H226629   4.698   1.346  16.477 -2.9617  0.2982 -0.5490
  812TIP3   OH226630   0.566   2.744  17.804  0.7921 -0.1413 -0.1907
  812TIP3    H126631   0.502   2.783  17.863  0.4641  0.3199 -0.8470
  812TIP3    H226632   0.550   2.650  17.810  0.6813 -0.0897  0.3577
  813TIP3   OH226633   2.172   9.108  17.256 -0.1953 -0.0637 -0.1538
  813TIP3    H126634   2.254   9.140  17.292 -0.2721  1.4519 -1.2253
  813TIP3    H226635   2.104   9.146  17.312 -0.2018 -0.3725  0.0458
  814TIP3   OH226636   6.260   7.566  16.400 -0.2884  0.0835  0.0744
  814TIP3    H126637   6.314   7.489  16.382  1.1402  0.5884  1.8163
  814TIP3    H226638   6.285   7.629  16.333  0.9530  0.1166  0.5334
  815TIP3   OH226639   0.385   8.718  17.502  0.0385  0.2468 -0.1891
  815TIP3    H126640   0.471   8.683  17.523  1.1615  2.9885  0.2519
  815TIP3    H226641   0.349   8.657  17.438  1.5976 -1.8269  0.7776
  816TIP3   OH226642   2.912   4.048  16.637  0.3930 -0.1486  0.1609
  816TIP3    H126643   2.910   3.954  16.618 -0.5782 -0.6853  2.5364
  816TIP3    H226644   2.980   4.057  16.704 -0.4067  0.6063  0.8906
  817TIP3   OH226645   2.277   5.404  16.307 -0.0437 -0.4036  0.1314
  817TIP3    H126646   2.268   5.499  16.317 -0.3665 -0.2935 -1.0716
  817TIP3    H226647   2.350   5.394  16.245 -0.5489 -0.9106 -0.3862
  818TIP3   OH226648   3.665   8.140  16.540 -0.3386 -0.2305 -0.4912
  818TIP3    H126649   3.618   8.095  16.470 -1.5411 -0.3984  0.3788
  818TIP3    H226650   3.658   8.081  16.615 -1.7447  1.2417  0.6126
  819TIP3   OH226651   4.427   2.044  15.995  0.2686 -0.5474  0.5122
  819TIP3    H126652   4.517   2.014  15.979 -0.3466 -1.1490 -2.3022
  819TIP3    H226653   4.378   1.963  16.009 -0.4106 -0.5286 -1.5086
  820TIP3   OH226654   2.412   5.509  16.762 -0.5218 -0.2783 -0.6320
  820TIP3    H126655   2.419   5.536  16.853 -0.0257  0.0045 -0.7468
  820TIP3    H226656   2.497   5.531  16.724 -0.2777 -1.5469 -0.8599
  821TIP3   OH226657   7.174   5.857  17.353  0.5308  0.3682 -0.0446
  821TIP3    H126658   7.136   5.903  17.427  0.3978 -1.4633  1.0739
  821TIP3    H226659   7.102   5.850  17.290 -0.1982 -0.5404  0.8583
  822TIP3   OH226660   8.128   3.829  17.140  0.0304 -0.2297 -0.1231
  822TIP3    H126661   8.110   3.736  17.131 -2.5752 -0.0982  2.4022
  822TIP3    H226662   8.143   3.843  17.233  0.7346  1.8413 -0.4787
  823TIP3   OH226663   6.391   1.528  16.739 -0.2587  0.0761 -0.2971
  823TIP3    H126664   6.366   1.570  16.657 -1.0311  1.2628  0.5102
  823TIP3    H226665   6.484   1.547  16.749  0.2549 -1.4421 -1.6391
  824TIP3   OH226666   3.193   1.515  15.714  0.4314  0.4072 -0.6461
  824TIP3    H126667   3.228   1.430  15.687 -1.1414  0.0298 -1.6512
  824TIP3    H226668   3.128   1.536  15.647 -1.4294  0.9247  1.2117
  825TIP3   OH226669   7.041   6.185  16.731 -0.2439  0.1412 -0.7987
  825TIP3    H126670   7.112   6.215  16.674  1.3861 -0.7754  0.6585
  825TIP3    H226671   7.003   6.110  16.685 -0.6490  0.9622 -1.8377
  826TIP3   OH226672   1.053   1.021  17.286  0.9706  0.7464  0.1492
  826TIP3    H126673   1.057   1.117  17.293 -1.4014  1.2111 -2.9314
  826TIP3    H226674   0.983   0.995  17.346 -0.6542  1.4211 -1.3630
  827TIP3   OH226675   6.613   1.204  16.273 -0.2044  0.1373 -0.4482
  827TIP3    H126676   6.637   1.112  16.283  0.4559  0.4560  1.3963
  827TIP3    H226677   6.694   1.252  16.292 -0.7219  1.1085 -0.6286
  828TIP3   OH226678   1.834   8.665  16.554 -0.2264  0.7598  0.2087
  828TIP3    H126679   1.750   8.704  16.578 -0.2912  1.0923 -0.5213
  828TIP3    H226680   1.826   8.647  16.460  0.3656  0.4118  0.2199
  829TIP3   OH226681   0.118   2.368  17.455  0.6036 -0.2699 -0.5254
  829TIP3    H126682   0.031   2.332  17.471  0.1614  0.6091 -0.8945
  829TIP3    H226683   0.170   2.342  17.531  0.1128 -1.0782 -0.4578
  830TIP3   OH226684   1.456   1.543  17.672  0.0761  0.2468  0.2833
  830TIP3    H126685   1.451   1.632  17.637  1.1734 -0.4572 -1.8194
  830TIP3    H226686   1.366   1.524  17.702 -0.9371  1.0201 -2.0395
  831TIP3   OH226687   5.346   6.783  16.752  0.8129 -0.3732  0.2402
  831TIP3    H126688   5.376   6.781  16.661  2.7950 -0.9956  0.8487
  831TIP3    H226689   5.345   6.876  16.774  1.1519 -0.2701 -0.1668
  832TIP3   OH226690   2.024   4.241  16.191  0.0950 -0.2671 -0.5612
  832TIP3    H126691   1.992   4.217  16.278  0.1451  0.0214 -0.4602
  832TIP3    H226692   2.017   4.161  16.140  0.9940 -0.7046 -0.0240
  833TIP3   OH226693   0.690   4.064  17.159 -0.5090 -0.5202  0.7272
  833TIP3    H126694   0.601   4.030  17.167 -1.1447  1.3500  2.4039
  833TIP3    H226695   0.738   4.022  17.231 -0.7032  0.3187  1.3623
  834TIP3   OH226696   7.619   2.846  16.653  0.2097  0.0749 -0.2061
  834TIP3    H126697   7.532   2.885  16.652 -0.1314 -0.6211  0.5744
  834TIP3    H226698   7.603   2.752  16.647  0.9517 -0.0130 -0.8785
  835TIP3   OH226699   4.240   8.772  16.869  0.4492  0.0539 -0.3987
  835TIP3    H126700   4.326   8.752  16.905  1.0098  1.7027 -0.7563
  835TIP3    H226701   4.248   8.757  16.775  0.4135  0.3733 -0.4568
  836TIP3   OH226702   3.793   6.621  17.152 -0.0890  0.1598  0.0602
  836TIP3    H126703   3.781   6.585  17.240 -1.1050 -1.2681 -0.6254
  836TIP3    H226704   3.772   6.548  17.093 -1.6002  1.6832 -1.3978
  837TIP3   OH226705   8.808   0.400  17.143  0.1086 -0.1480 -0.2703
  837TIP3    H126706   8.853   0.316  17.131  0.5697  0.0265  0.1917
  837TIP3    H226707   8.834   0.451  17.067 -0.7103 -0.6488 -0.9004
  838TIP3   OH226708   6.445   7.764  16.288  0.0381 -0.1040  0.1976
  838TIP3    H126709   6.472   7.813  16.210  0.2167  0.5282  0.6534
  838TIP3    H226710   6.509   7.694  16.296  0.6831  0.5005  0.4164
  839TIP3   OH226711   4.401   3.909  16.838  0.0728 -0.4797 -0.2301
  839TIP3    H126712   4.398   3.887  16.745  0.1212  0.3220 -0.4316
  839TIP3    H226713   4.340   3.983  16.847  0.8974  0.1721  0.1625
  840TIP3   OH226714   4.835   6.090  15.616  0.5918 -0.0786  0.3135
  840TIP3    H126715   4.752   6.098  15.568 -0.0170 -4.4476  0.1841
  840TIP3    H226716   4.814   6.118  15.705 -0.3284  1.1020 -0.2493
  841TIP3   OH226717   7.642   6.355  17.665  0.2942 -0.2831  0.2753
  841TIP3    H126718   7.583   6.395  17.602  0.5434 -0.9087 -0.3732
  841TIP3    H226719   7.589   6.290  17.711  0.4525 -0.8490 -0.3115
  842TIP3   OH226720   4.768   7.449  17.707  0.3442 -0.2786 -0.2599
  842TIP3    H126721   4.845   7.432  17.653 -0.4355  1.2543 -1.9353
  842TIP3    H226722   4.751   7.542  17.697 -1.7934 -0.5919 -0.0203
  843TIP3   OH226723   3.595   3.012  17.258 -0.4412 -0.4585  0.1823
  843TIP3    H126724   3.531   3.083  17.251 -0.6875 -0.6901  0.0713
  843TIP3    H226725   3.672   3.054  17.295 -1.1377 -0.4660  1.7311
  844TIP3   OH226726   7.274   0.833  17.920  0.0522 -0.4943  0.1310
  844TIP3    H126727   7.354   0.816  17.871  0.3104 -0.8620  0.6651
  844TIP3    H226728   7.288   0.918  17.961  0.4236 -0.8222  0.7037
  845TIP3   OH226729   0.030   2.409  17.966  0.5392  0.3679  0.3561
  845TIP3    H126730  -0.064   2.400  17.951  0.5786 -0.1007  0.3891
  845TIP3    H226731   0.059   2.322  17.994  0.8872  0.6395  0.8576
  846TIP3   OH226732   5.962   2.271  17.696 -0.1260  0.3541 -0.0050
  846TIP3    H126733   6.032   2.302  17.640 -1.7647  2.0997 -1.2077
  846TIP3    H226734   5.932   2.190  17.655 -1.7183  1.9099 -2.2067
  847TIP3   OH226735   4.391   2.558  16.610 -0.0132 -0.4727  0.2008
  847TIP3    H126736   4.435   2.592  16.532  1.2247 -1.8775  0.2458
  847TIP3    H226737   4.462   2.533  16.669 -0.9276 -0.1200  1.4916
  848TIP3   OH226738   2.378   8.156  17.189 -0.0307 -0.5102  0.4074
  848TIP3    H126739   2.321   8.225  17.156 -0.1860 -0.7116  0.2493
  848TIP3    H226740   2.383   8.093  17.117  1.1325 -0.0481  0.0635
  849TIP3   OH226741   7.330   5.673  16.997 -0.1710  0.3084 -0.3292
  849TIP3    H126742   7.261   5.689  17.061 -0.6509 -1.1366 -0.4488
  849TIP3    H226743   7.399   5.736  17.019 -0.8635  0.7080  0.7747
  850TIP3   OH226744   5.590   4.742  17.023 -0.5943 -0.0233 -0.8788
  850TIP3    H126745   5.622   4.664  17.069 -0.0880  1.0008  0.5686
  850TIP3    H226746   5.669   4.781  16.984 -0.6167  0.5205 -0.3978
  851TIP3   OH226747   1.537   7.756  17.814  0.5743 -0.0397  0.1521
  851TIP3    H126748   1.486   7.827  17.774  0.4762 -0.3457 -0.2827
  851TIP3    H226749   1.626   7.789  17.816  0.0776  1.3879  2.9355
  852TIP3   OH226750   2.930   0.216  17.716 -0.0405 -0.0666 -0.2921
  852TIP3    H126751   2.888   0.287  17.667 -0.6809  0.2811  0.7279
  852TIP3    H226752   3.014   0.204  17.673  0.0755  1.3110 -0.5018
  853TIP3   OH226753   0.151   1.167  17.650  0.5441 -0.0150  0.0602
  853TIP3    H126754   0.235   1.176  17.695 -0.4322 -2.7281  2.7383
  853TIP3    H226755   0.133   1.255  17.615  3.6738  1.0356  0.8025
  854TIP3   OH226756   6.661   4.828  17.567  0.1623  0.0076 -0.1630
  854TIP3    H126757   6.741   4.828  17.619  0.5263  3.1290 -0.5844
  854TIP3    H226758   6.691   4.838  17.476 -0.6725  0.5656 -0.3872
  855TIP3   OH226759   0.650   1.783  16.547  0.2439 -0.4918  0.4239
  855TIP3    H126760   0.686   1.823  16.626 -0.5252  0.7305  0.1819
  855TIP3    H226761   0.573   1.836  16.526  1.1373  0.0390 -1.8758
  856TIP3   OH226762   4.553   5.919  16.536 -0.4590 -0.3291 -0.8904
  856TIP3    H126763   4.546   5.877  16.450 -2.9029 -0.1537 -0.8402
  856TIP3    H226764   4.480   5.981  16.538  0.7218  1.1143  0.5772
  857TIP3   OH226765   1.788   2.253  17.112  0.9378 -0.0160  0.3179
  857TIP3    H126766   1.807   2.315  17.183 -0.1958  0.1677  0.4803
  857TIP3    H226767   1.758   2.174  17.157  1.8386 -0.5041  0.0880
  858TIP3   OH226768   8.913   5.055  16.783  0.2298  0.9051 -0.6386
  858TIP3    H126769   8.822   5.025  16.794  0.4302 -0.7868 -2.7629
  858TIP3    H226770   8.964   4.994  16.836  0.1248  2.7501  1.7605
  859TIP3   OH226771   9.195   2.792  16.444 -0.0360  0.7837 -0.1894
  859TIP3    H126772   9.193   2.717  16.385  1.1086  0.3380  0.3015
  859TIP3    H226773   9.104   2.803  16.472 -0.4934  0.6248 -1.5412
  860TIP3   OH226774   5.259   8.842  17.897  0.1131  0.2732 -0.9097
  860TIP3    H126775   5.216   8.832  17.982  2.9070 -0.4150  0.5118
  860TIP3    H226776   5.222   8.923  17.861 -0.2879  1.2217  1.4752
  861TIP3   OH226777   3.650   3.540  17.302 -0.5077 -0.1946  0.1686
  861TIP3    H126778   3.594   3.611  17.332  0.4801  0.7854 -0.2541
  861TIP3    H226779   3.724   3.583  17.259 -0.2647 -1.4903 -0.7945
  862TIP3   OH226780   4.844   2.091  17.138 -0.4003  0.6871 -0.8145
  862TIP3    H126781   4.802   2.104  17.054  0.0430  0.4168 -1.0867
  862TIP3    H226782   4.871   2.178  17.166  0.1315  0.6871 -1.3199
  863TIP3   OH226783   1.456   0.293  16.337 -0.0879  0.9665  0.3386
  863TIP3    H126784   1.489   0.233  16.270  1.3489  1.3637  0.6622
  863TIP3    H226785   1.509   0.372  16.328 -0.3627  1.3022  1.4758
  864TIP3   OH226786   6.708   1.519  16.907  0.1798 -0.2968  0.0878
  864TIP3    H126787   6.795   1.492  16.878 -0.1440  0.3372 -1.5545
  864TIP3    H226788   6.680   1.583  16.842 -1.8513 -1.0901  0.1221
  865TIP3   OH226789   3.527   8.517  16.871  0.4775 -0.4145 -0.1142
  865TIP3    H126790   3.564   8.540  16.956 -0.0922 -0.1894  0.0779
  865TIP3    H226791   3.529   8.598  16.821  0.4034 -0.4385 -0.1575
  866TIP3   OH226792   4.318   9.000  16.103 -0.4692 -0.4298  0.0290
  866TIP3    H126793   4.373   9.018  16.027  0.4502 -0.8387  0.5761
  866TIP3    H226794   4.339   8.910  16.126 -2.4964 -1.1122 -0.6400
  867TIP3   OH226795   3.140   4.897  17.084  0.0238  0.1142 -0.4504
  867TIP3    H126796   3.139   4.906  17.179 -3.0385  1.3076 -0.4687
  867TIP3    H226797   3.195   4.969  17.054 -0.4000  0.8043  0.3872
  868TIP3   OH226798   0.093   3.492  16.213  0.0508 -0.4832 -0.2861
  868TIP3    H126799   0.166   3.502  16.275  0.6457 -1.8541 -0.7003
  868TIP3    H226800   0.117   3.414  16.162 -1.4442 -0.6153 -0.8206
  869TIP3   OH226801   4.667   0.968  16.000 -0.8360  0.2507  0.1619
  869TIP3    H126802   4.644   0.875  15.996  0.8938 -0.2205  0.2179
  869TIP3    H226803   4.639   1.003  15.916  0.5714 -0.8842 -0.8382
  870TIP3   OH226804   4.254   7.773  16.670 -0.0835  0.4774  0.1740
  870TIP3    H126805   4.170   7.812  16.646 -0.3068  1.3686  2.2221
  870TIP3    H226806   4.286   7.732  16.589 -2.9457 -0.7832 -0.4249
  871TIP3   OH226807   4.854   4.613  16.536  0.0658  0.2442 -0.1847
  871TIP3    H126808   4.866   4.561  16.616  1.2725 -0.9131 -1.0814
  871TIP3    H226809   4.907   4.691  16.550  0.3044  0.0272  0.1265
  872TIP3   OH226810   5.082   6.962  15.684 -0.2573  0.0688  0.6195
  872TIP3    H126811   5.144   7.032  15.666 -0.6583  0.4113  0.5493
  872TIP3    H226812   5.134   6.893  15.726 -0.0982  0.9451  1.9455
  873TIP3   OH226813   5.301   5.002  16.582  0.0517  0.5367  0.6299
  873TIP3    H126814   5.241   5.036  16.649  1.6414  1.9892  1.4028
  873TIP3    H226815   5.341   4.925  16.622  0.1074  0.6935  0.8803
  874TIP3   OH226816   6.579   2.164  17.825  0.3064 -0.3326 -0.0556
  874TIP3    H126817   6.578   2.241  17.881 -1.3631 -0.3949  0.0517
  874TIP3    H226818   6.664   2.167  17.781  0.5863  1.1217  0.5394
  875TIP3   OH226819   3.704   3.959  16.396  0.2060 -0.0074 -0.3121
  875TIP3    H126820   3.662   4.043  16.376 -1.0099 -0.2542  1.0121
  875TIP3    H226821   3.642   3.915  16.455  0.2261 -2.3772 -1.9360
  876TIP3   OH226822   0.210   7.896  15.716  0.0074  0.0433  0.0839
  876TIP3    H126823   0.116   7.890  15.700 -0.0341 -0.4296  0.4809
  876TIP3    H226824   0.241   7.806  15.708  0.5951  0.3242 -1.0305
  877TIP3   OH226825   4.798   4.352  16.231  0.0370 -0.0993 -0.1207
  877TIP3    H126826   4.823   4.281  16.172  2.8314  0.5852  0.1399
  877TIP3    H226827   4.703   4.343  16.239  0.1538 -3.1790 -0.8679
  878TIP3   OH226828   0.408   8.814  17.106 -0.6120  0.1234 -0.4059
  878TIP3    H126829   0.435   8.724  17.127  1.9410  0.7600 -0.6337
  878TIP3    H226830   0.417   8.862  17.188  0.0597  0.6025 -0.7533
  879TIP3   OH226831   1.645   0.184  16.152 -0.2961  0.2493  0.2799
  879TIP3    H126832   1.699   0.255  16.187  1.1628 -2.2895  3.7505
  879TIP3    H226833   1.701   0.139  16.089 -0.7384  1.2399 -0.8733
  880TIP3   OH226834   5.131   5.393  16.882  0.7139  0.0520  0.1264
  880TIP3    H126835   5.046   5.388  16.837 -0.5909  2.0941  2.1230
  880TIP3    H226836   5.129   5.322  16.946  0.6712 -0.1609 -0.1134
  881TIP3   OH226837   4.496   8.999  16.879  0.0210 -0.0647  0.3132
  881TIP3    H126838   4.456   9.045  16.953 -0.6183 -2.9919  1.9257
  881TIP3    H226839   4.423   8.982  16.819  0.4288  1.7429 -0.7738
  882TIP3   OH226840   0.638   6.864  17.442 -0.1537  0.0027 -0.1165
  882TIP3    H126841   0.602   6.868  17.353 -1.2239  0.7559  0.3239
  882TIP3    H226842   0.607   6.945  17.483  0.2630 -0.3793  0.9724
  883TIP3   OH226843   3.889   4.549  16.902 -0.2055 -1.2185 -0.1048
  883TIP3    H126844   3.869   4.479  16.839 -1.6277 -0.9208 -0.0288
  883TIP3    H226845   3.803   4.579  16.932  0.4251 -1.4852  2.1605
  884TIP3   OH226846   3.254   1.878  17.836 -0.6221  0.3726  0.5073
  884TIP3    H126847   3.252   1.953  17.776  2.1079  0.4164  0.3573
  884TIP3    H226848   3.162   1.852  17.845 -1.2965  1.5247 -2.2054
  885TIP3   OH226849   4.950   6.751  17.391 -0.3522 -0.3809 -0.0164
  885TIP3    H126850   4.879   6.686  17.387 -0.5492 -0.1685  0.0501
  885TIP3    H226851   5.003   6.723  17.465  0.1076 -1.0288 -0.5832
  886TIP3   OH226852   8.624   7.589  17.129  0.2016 -0.5067  0.4541
  886TIP3    H126853   8.651   7.658  17.069 -2.5300  1.0181  0.8301
  886TIP3    H226854   8.694   7.584  17.194  1.6688  0.0542 -1.0329
  887TIP3   OH226855   6.754   5.917  15.799  0.0573 -0.2416 -0.0288
  887TIP3    H126856   6.758   5.890  15.707  1.9453 -4.9253  1.1144
  887TIP3    H226857   6.840   5.955  15.816  0.7444 -1.8614  0.3087
  888TIP3   OH226858   4.493   5.326  16.822  0.7159 -0.2161 -0.1308
  888TIP3    H126859   4.549   5.400  16.844 -0.4761  0.6794 -0.0473
  888TIP3    H226860   4.405   5.362  16.820  0.0462 -1.7500  0.4375
  889TIP3   OH226861   4.952   3.439  16.371 -0.2365 -0.1106  0.0939
  889TIP3    H126862   5.033   3.436  16.422  0.6420  0.3499 -1.2135
  889TIP3    H226863   4.965   3.513  16.310 -2.1103  0.6855  0.6089
  890TIP3   OH226864   0.801   2.870  16.853 -0.3559 -0.3636  0.2116
  890TIP3    H126865   0.830   2.883  16.943 -0.9239  1.4089  0.1755
  890TIP3    H226866   0.723   2.925  16.844 -1.0110 -1.4258 -1.0354
  891TIP3   OH226867   3.232   0.280  16.343 -0.1022 -0.3069 -0.2271
  891TIP3    H126868   3.307   0.335  16.365 -1.4243  2.1724 -1.4442
  891TIP3    H226869   3.270   0.196  16.317  2.1850  0.6918 -0.3343
  892TIP3   OH226870   3.597   1.564  17.604 -0.1944  0.0360  0.0511
  892TIP3    H126871   3.537   1.610  17.664  0.6705  3.0495 -1.2159
  892TIP3    H226872   3.540   1.530  17.535 -0.7169  0.6122  0.1860
  893TIP3   OH226873   0.359   3.041  15.971  0.0061  0.2612  0.5339
  893TIP3    H126874   0.427   3.083  16.024  1.4710 -0.6492 -0.5488
  893TIP3    H226875   0.407   2.990  15.906 -1.6942 -1.8624  0.8193
  894TIP3   OH226876   0.410   2.278  16.610  0.3482  0.7312 -0.1363
  894TIP3    H126877   0.459   2.196  16.598 -0.2356  0.1239  1.4061
  894TIP3    H226878   0.433   2.331  16.534  0.8504 -0.8120 -1.0909
  895TIP3   OH226879   4.332   5.696  17.381 -0.3266 -0.4662  0.2952
  895TIP3    H126880   4.387   5.666  17.308  0.4987  2.1254 -0.2672
  895TIP3    H226881   4.395   5.713  17.452 -0.9532 -1.5668  1.1356
  896TIP3   OH226882   2.148   7.842  17.962  0.4706 -0.4685  0.0544
  896TIP3    H126883   2.146   7.765  17.905 -0.2725 -0.3026 -0.1476
  896TIP3    H226884   2.148   7.806  18.051 -0.4944 -0.7000 -0.0324
  897TIP3   OH226885   6.934   1.966  16.077  0.0177  0.0314  0.3918
  897TIP3    H126886   6.849   2.009  16.084  0.4553  1.3284 -1.5570
  897TIP3    H226887   6.985   2.003  16.149 -0.6853  0.1234  0.8570
  898TIP3   OH226888   3.011   7.192  17.782 -0.9094 -0.1775 -0.1990
  898TIP3    H126889   3.043   7.107  17.750 -0.0926  0.5682 -1.4325
  898TIP3    H226890   2.933   7.209  17.731  0.3872  1.0069 -1.8954
  899TIP3   OH226891   9.018   8.056  17.244 -0.0333 -0.4158  0.5446
  899TIP3    H126892   9.002   8.052  17.339  0.7442 -0.5276  0.6779
  899TIP3    H226893   9.082   8.126  17.233  1.6343 -1.9004  0.3681
  900TIP3   OH226894   0.977   4.988  16.658 -0.7336 -0.1493  0.6174
  900TIP3    H126895   0.908   5.052  16.640  0.8066  0.6289 -3.8806
  900TIP3    H226896   0.940   4.904  16.628 -0.6681 -0.2338  0.7730
  901TIP3   OH226897   5.061   5.906  17.106 -0.1655 -0.1203  0.0621
  901TIP3    H126898   5.003   5.858  17.047  1.4825 -0.8807 -1.0360
  901TIP3    H226899   5.112   5.963  17.049  0.8404 -0.1935  0.8567
  902TIP3   OH226900   4.395   9.214  17.005  0.5276  0.6693 -0.0967
  902TIP3    H126901   4.344   9.237  17.083 -2.3398 -3.5775 -0.3647
  902TIP3    H226902   4.377   9.285  16.944 -0.9337  1.8844  1.6163
  903TIP3   OH226903   2.103   2.286  16.419 -0.1469  0.1787 -0.2647
  903TIP3    H126904   2.028   2.228  16.402  0.2933 -1.6201  3.0227
  903TIP3    H226905   2.068   2.354  16.477  0.4898 -0.0737  0.4397
  904TIP3   OH226906   7.600   3.836  17.531  0.4822  0.5243 -0.1042
  904TIP3    H126907   7.569   3.814  17.619  0.3020  0.6516 -0.1334
  904TIP3    H226908   7.684   3.791  17.523  0.0475 -0.2811 -0.2250
  905TIP3   OH226909   5.504   0.441  17.338  0.7305  0.0074  0.0340
  905TIP3    H126910   5.478   0.533  17.345  0.3080 -0.1894  1.4850
  905TIP3    H226911   5.580   0.434  17.396  0.3534 -0.6923  0.4489
  906TIP3   OH226912   8.414   1.641  17.165 -0.6900  0.2723  0.6233
  906TIP3    H126913   8.426   1.565  17.222  0.5691  0.1540  0.2351
  906TIP3    H226914   8.319   1.645  17.150 -0.6823 -2.0947 -0.5184
  907TIP3   OH226915   3.934   5.731  17.487  0.4731  0.4337 -0.0416
  907TIP3    H126916   4.001   5.779  17.438 -0.6000  1.6917 -0.3219
  907TIP3    H226917   3.928   5.777  17.571 -0.4456  0.7022 -0.2484
  908TIP3   OH226918   4.053   7.295  17.874 -0.4387 -0.2851 -0.3902
  908TIP3    H126919   4.026   7.203  17.876  2.3157 -1.1981 -0.7971
  908TIP3    H226920   4.074   7.312  17.782 -0.1240  0.4858 -0.1832
  909TIP3   OH226921   7.786   6.711  17.108  0.6035 -0.0328 -0.4775
  909TIP3    H126922   7.847   6.786  17.109  1.7684 -0.9277 -1.2773
  909TIP3    H226923   7.791   6.678  17.019 -0.1280 -0.8833 -0.2138
  910TIP3   OH226924   6.518   7.767  17.224  0.2193 -0.0140  0.2236
  910TIP3    H126925   6.475   7.825  17.286  1.3049  0.6536  0.3884
  910TIP3    H226926   6.611   7.792  17.229  0.6981 -1.6823  0.2100
  911TIP3   OH226927   0.934   6.354  16.368 -0.3031 -0.3459 -0.3577
  911TIP3    H126928   1.000   6.300  16.410  0.9551  2.3852  1.4067
  911TIP3    H226929   0.852   6.306  16.381  0.5507 -1.2348  2.2523
  912TIP3   OH226930   5.926   1.780  17.869  0.3604  0.7632  0.2148
  912TIP3    H126931   6.015   1.794  17.835  0.6462  0.4063  0.8171
  912TIP3    H226932   5.898   1.697  17.830  1.0096 -0.0766  1.4932
  913TIP3   OH226933   0.285   7.850  17.023 -0.1939  0.0354  0.9511
  913TIP3    H126934   0.345   7.816  17.089  0.6522  1.5023  0.9989
  913TIP3    H226935   0.200   7.850  17.065  0.1434 -0.0884  1.6456
  914TIP3   OH226936   1.575   7.537  17.229 -0.2215 -0.9381 -0.5438
  914TIP3    H126937   1.646   7.489  17.186  0.2962 -1.6973  1.0714
  914TIP3    H226938   1.565   7.494  17.314 -0.4151  1.1827  0.5785
  915TIP3   OH226939   6.896   3.397  17.019 -0.2034  0.3487  0.1169
  915TIP3    H126940   6.850   3.385  16.936 -0.3304  0.6682  0.1369
  915TIP3    H226941   6.897   3.492  17.031 -2.2763  0.2500  1.6388
  916TIP3   OH226942   7.069   5.786  17.097 -0.5924 -0.2002  0.4169
  916TIP3    H126943   7.038   5.695  17.092 -1.5874  0.0999  0.8581
  916TIP3    H226944   6.991   5.839  17.082 -0.1833  0.5832  0.9707
  917TIP3   OH226945   2.517   3.649  16.692  0.1766 -0.2653 -0.0042
  917TIP3    H126946   2.487   3.559  16.677  0.8210 -0.4955  0.0461
  917TIP3    H226947   2.548   3.648  16.782 -0.4024  0.1825  0.2069
  918TIP3   OH226948   7.070   4.242  17.093  0.5212  0.0350  0.7094
  918TIP3    H126949   6.976   4.244  17.111  0.7373 -0.2527  1.9052
  918TIP3    H226950   7.076   4.204  17.005 -0.4102 -1.5101  1.2784
  919TIP3   OH226951   1.962   6.498  16.626  0.5418  0.1520 -0.3310
  919TIP3    H126952   1.903   6.566  16.656  2.0654  1.0981  0.6279
  919TIP3    H226953   2.036   6.545  16.588  1.6296 -0.9422  0.3578
  920TIP3   OH226954   4.421   7.439  17.068 -0.1567  0.0195 -0.0964
  920TIP3    H126955   4.361   7.445  17.143 -0.4818  1.0739 -0.4147
  920TIP3    H226956   4.390   7.363  17.019 -2.5773  1.6948 -1.3374
  921TIP3   OH226957   8.314   7.144  17.645  0.5806 -0.5831 -0.3128
  921TIP3    H126958   8.299   7.049  17.647 -1.1957 -0.3753 -1.4502
  921TIP3    H226959   8.343   7.162  17.556  3.2572 -0.2855  0.5220
  922TIP3   OH226960   0.879   2.318  17.641  0.7105  0.5970 -0.3572
  922TIP3    H126961   0.796   2.278  17.667  0.8639  0.2642 -0.3780
  922TIP3    H226962   0.860   2.362  17.558  0.9410 -0.8454 -1.2143
  923TIP3   OH226963   5.272   4.084  17.054 -0.0618  0.0176 -1.0074
  923TIP3    H126964   5.310   4.029  17.123  0.2265  1.1525 -0.2464
  923TIP3    H226965   5.185   4.106  17.086  0.2356  0.9053 -0.8086
  924TIP3   OH226966   6.276   6.244  16.902 -0.0183  0.9896 -0.4336
  924TIP3    H126967   6.313   6.210  16.983 -0.6004 -1.9387 -1.2462
  924TIP3    H226968   6.241   6.330  16.925  1.0001  0.8227  2.0493
  925TIP3   OH226969   3.789   8.675  16.661 -0.1373  0.4687  0.2166
  925TIP3    H126970   3.705   8.663  16.617  0.8012 -0.9731 -1.3260
  925TIP3    H226971   3.802   8.593  16.710 -0.7907  1.7244  2.6504
  926TIP3   OH226972   8.373   5.939  16.725 -0.8495  0.2290 -0.4009
  926TIP3    H126973   8.387   5.915  16.633 -0.6216 -1.7774  0.1211
  926TIP3    H226974   8.315   5.872  16.759  0.1507  0.1670  1.2791
  927TIP3   OH226975   8.415   4.196  17.806  0.0194  0.3054 -0.0026
  927TIP3    H126976   8.430   4.102  17.811  1.0716  0.3821 -1.3244
  927TIP3    H226977   8.499   4.234  17.782 -0.8187  1.3842 -1.4250
  928TIP3   OH226978   0.391   8.643  16.555 -0.8067 -0.1878  0.3248
  928TIP3    H126979   0.384   8.569  16.495 -2.4091 -0.3764  0.6904
  928TIP3    H226980   0.372   8.719  16.501  0.1120 -0.1160  0.1017
  929TIP3   OH226981   0.692   4.970  17.724  0.5659  0.3350 -0.3590
  929TIP3    H126982   0.600   4.991  17.713  0.6241  0.7701 -0.0614
  929TIP3    H226983   0.714   4.914  17.649  0.0885  0.3069 -0.4781
  930TIP3   OH226984   6.452   4.380  15.902  0.3075  0.0615 -0.5790
  930TIP3    H126985   6.511   4.321  15.948  0.4898  1.2211  0.7549
  930TIP3    H226986   6.424   4.331  15.824  0.5227 -1.7140  0.4067
  931TIP3   OH226987   6.874   6.514  16.188  0.3509  0.3370  0.2233
  931TIP3    H126988   6.840   6.603  16.189 -1.9219 -0.4392  0.6499
  931TIP3    H226989   6.963   6.521  16.221  0.0154  2.3772  0.8181
  932TIP3   OH226990   8.660   5.745  16.505 -0.3523 -0.0979 -0.3899
  932TIP3    H126991   8.662   5.776  16.596  0.4284 -1.2409  0.0070
  932TIP3    H226992   8.693   5.819  16.454  1.2613 -0.1490  0.5037
  933TIP3   OH226993   4.739   1.915  16.904 -0.3804 -0.6438  0.3254
  933TIP3    H126994   4.820   1.930  16.855 -0.8172  0.4962 -0.0874
  933TIP3    H226995   4.758   1.839  16.959  0.5455 -1.1844 -0.6914
  934TIP3   OH226996   6.763   3.102  16.566 -0.7549  0.4110  0.6622
  934TIP3    H126997   6.740   3.021  16.522  1.1114 -0.5245  1.3065
  934TIP3    H226998   6.737   3.171  16.505 -0.2048 -0.7528 -0.9436
  935TIP3   OH226999   3.414   6.626  17.215 -0.4880 -0.2302 -0.1177
  935TIP3    H127000   3.389   6.608  17.306 -1.3892 -0.4215 -0.3970
  935TIP3    H227001   3.354   6.573  17.163  0.9478 -1.2179 -0.8037
  936TIP3   OH227002   2.231   0.128  16.779 -0.4412 -0.4410  0.5912
  936TIP3    H127003   2.286   0.051  16.766  0.6737  0.0819  1.9122
  936TIP3    H227004   2.200   0.119  16.869 -0.0820  0.7637  0.8483
  937TIP3   OH227005   5.991   8.564  18.018 -0.9221 -0.2437  0.1713
  937TIP3    H127006   5.940   8.572  18.098 -0.1837  2.5994  0.4655
  937TIP3    H227007   5.925   8.560  17.948 -1.5414 -0.8188  0.7670
  938TIP3   OH227008   2.284   1.752  16.806 -0.3212  0.5084  0.1107
  938TIP3    H127009   2.376   1.757  16.832 -0.2255 -2.2743  0.6902
  938TIP3    H227010   2.236   1.789  16.880  0.3015  0.5929  0.4840
  939TIP3   OH227011   1.773   1.234  17.082 -0.4097  0.2280  0.4505
  939TIP3    H127012   1.836   1.166  17.108 -1.8323 -0.5150  2.1543
  939TIP3    H227013   1.738   1.203  16.999  0.1881 -0.2478  0.3665
  940TIP3   OH227014   0.532   5.691  16.596 -0.4722  0.2456 -0.7436
  940TIP3    H127015   0.464   5.671  16.661 -0.8621  2.1538 -0.4953
  940TIP3    H227016   0.511   5.636  16.521 -1.4300 -0.2599 -0.1209
  941TIP3   OH227017   2.817   8.013  16.739 -0.4363  0.4649  0.0139
  941TIP3    H127018   2.792   7.930  16.698  1.9831 -0.0550 -0.5576
  941TIP3    H227019   2.844   8.069  16.665 -0.9491  1.3673  0.4905
  942TIP3   OH227020   7.214   4.821  16.622  0.2649 -0.5566 -0.4469
  942TIP3    H127021   7.259   4.839  16.705 -0.1780 -1.1739 -0.0638
  942TIP3    H227022   7.135   4.874  16.626  0.9632  0.5806 -1.1516
  943TIP3   OH227023   1.670   6.343  16.433 -0.0528  0.3922  0.3983
  943TIP3    H127024   1.651   6.433  16.407  0.8850  0.7522  0.9181
  943TIP3    H227025   1.648   6.340  16.527  1.2507  0.4893  0.7235
  944TIP3   OH227026   5.296   1.729  17.289  0.4069  0.0972  0.3473
  944TIP3    H127027   5.283   1.635  17.302 -1.3143 -0.2374 -2.7483
  944TIP3    H227028   5.389   1.743  17.310  1.3074 -2.7570 -1.1114
  945TIP3   OH227029   2.482   0.265  16.569 -0.5153 -0.0398  0.1741
  945TIP3    H127030   2.567   0.281  16.528  0.3768 -0.2817  1.8181
  945TIP3    H227031   2.467   0.342  16.624 -2.1948  0.7920 -1.3331
  946TIP3   OH227032   8.498   4.468  16.308 -0.5346  0.2763 -0.1589
  946TIP3    H127033   8.424   4.412  16.284  0.0393  0.0558 -1.5045
  946TIP3    H227034   8.465   4.557  16.297 -0.0284  0.2103 -2.8773
  947TIP3   OH227035   2.757   7.904  16.350  0.6510  0.1020  0.2880
  947TIP3    H127036   2.771   7.857  16.432  0.2009  0.3107  0.4908
  947TIP3    H227037   2.749   7.836  16.283 -0.0879 -0.1151  0.5915
  948TIP3   OH227038   8.946   3.819  16.876 -0.1000  0.3326  0.1173
  948TIP3    H127039   8.928   3.727  16.896  0.2769  0.2063 -0.1086
  948TIP3    H227040   9.034   3.818  16.838  0.0370  0.8246  0.4125
  949TIP3   OH227041   6.910   9.183  17.260 -0.4078 -0.0790 -0.0790
  949TIP3    H127042   6.990   9.131  17.272 -1.2742 -2.1693 -2.4614
  949TIP3    H227043   6.937   9.256  17.203 -0.4069 -1.6387 -2.1893
  950TIP3   OH227044   4.949   7.631  16.480 -0.1820  1.0093  0.5041
  950TIP3    H127045   4.868   7.601  16.520 -1.0716  1.4795 -0.8705
  950TIP3    H227046   4.976   7.558  16.424 -1.0024  1.7528 -0.9150
  951TIP3   OH227047   3.721   1.787  17.057 -0.1368 -0.8827 -0.3293
  951TIP3    H127048   3.660   1.805  16.985 -1.0737 -2.4090  0.0383
  951TIP3    H227049   3.794   1.848  17.043 -1.0014 -0.1252 -1.7002
  952TIP3   OH227050   2.086   2.227  17.122  0.0725 -0.2271  0.6997
  952TIP3    H127051   1.991   2.243  17.124  0.1841  0.4300  1.6168
  952TIP3    H227052   2.098   2.149  17.176  0.1573  0.3781  1.5784
  953TIP3   OH227053   4.265   0.493  16.112  0.3889 -0.4171 -0.1001
  953TIP3    H127054   4.264   0.545  16.032 -1.6574 -0.5680 -0.2277
  953TIP3    H227055   4.274   0.403  16.082 -1.3902 -0.5713 -0.2912
  954TIP3   OH227056   2.270   2.014  16.674 -0.7647 -0.1181 -0.0075
  954TIP3    H127057   2.210   2.020  16.749 -0.3789  1.2313  0.2150
  954TIP3    H227058   2.332   2.086  16.687  2.2439 -2.6893  0.8800
  955TIP3   OH227059   5.033   4.890  17.565 -0.2142 -0.0011  0.1667
  955TIP3    H127060   5.073   4.820  17.616 -1.3423 -2.2962 -1.9263
  955TIP3    H227061   5.085   4.895  17.485  0.4734  2.3501  0.6630
  956TIP3   OH227062   0.771   6.148  16.490 -0.7984 -0.5041  0.4877
  956TIP3    H127063   0.817   6.085  16.434 -1.5382 -0.0332 -0.6942
  956TIP3    H227064   0.774   6.110  16.577  1.2544 -0.7968  0.3327
  957TIP3   OH227065   7.206   1.073  16.199  0.1394 -0.3173  0.2753
  957TIP3    H127066   7.271   1.134  16.165 -0.3523  0.2270  0.2834
  957TIP3    H227067   7.174   1.114  16.279 -1.3031  0.1963 -0.5201
  958TIP3   OH227068   3.287   3.888  16.362  0.1310  0.0535  0.2935
  958TIP3    H127069   3.249   3.804  16.335  2.2686 -1.0927  0.6471
  958TIP3    H227070   3.279   3.944  16.285  1.3657 -1.4606 -1.0063
  959TIP3   OH227071   7.056   8.314  17.212 -0.4317  0.2234 -0.2265
  959TIP3    H127072   7.065   8.224  17.243  1.3582 -0.5283 -2.5579
  959TIP3    H227073   6.962   8.331  17.215 -0.9488 -2.1271 -0.6957
  960TIP3   OH227074   7.303   5.080  17.657 -0.0784 -0.5285  0.0248
  960TIP3    H127075   7.303   5.172  17.630  0.8949 -1.4504 -3.5448
  960TIP3    H227076   7.213   5.050  17.641  0.2847 -0.8554 -1.4774
  961TIP3   OH227077   4.619   4.085  16.513  0.1226  0.3242  0.0818
  961TIP3    H127078   4.541   4.096  16.458  0.3910  0.8151 -0.2108
  961TIP3    H227079   4.605   4.003  16.559 -0.5756  0.4130  0.0355
  962TIP3   OH227080   1.486   1.140  17.427  0.0334 -0.1111 -0.3566
  962TIP3    H127081   1.533   1.063  17.460 -1.1168 -1.2266 -1.1974
  962TIP3    H227082   1.419   1.103  17.369  0.3039  1.6079 -1.8567
  963TIP3   OH227083   2.910   6.759  16.933 -0.2618  0.1782  0.6112
  963TIP3    H127084   2.916   6.671  16.968 -0.1405  0.0712  0.3288
  963TIP3    H227085   2.883   6.747  16.842  2.3012  0.2387 -0.2605
  964TIP3   OH227086   5.719   7.348  16.627  0.1699 -0.3067 -0.6018
  964TIP3    H127087   5.781   7.276  16.615  0.5883  0.1186 -1.0523
  964TIP3    H227088   5.735   7.405  16.552 -1.5831 -0.7779 -1.3937
  965TIP3   OH227089   7.555   1.494  17.513  0.1831 -0.3588  0.2675
  965TIP3    H127090   7.499   1.425  17.548 -0.3869  0.0329  0.1511
  965TIP3    H227091   7.537   1.494  17.419 -0.5956  0.6096  0.3931
  966TIP3   OH227092   8.921   8.918  16.981 -0.2966 -0.7128  0.6387
  966TIP3    H127093   8.870   8.869  16.916 -1.2132  0.2157  0.6410
  966TIP3    H227094   8.889   8.886  17.066 -1.0043 -0.0207  0.6421
  967TIP3   OH227095   0.663   5.642  17.708 -0.4893  1.0458  0.4696
  967TIP3    H127096   0.629   5.555  17.727 -0.7742  0.8024 -0.9997
  967TIP3    H227097   0.588   5.700  17.717 -0.9468  0.7435 -1.1330
  968TIP3   OH227098   2.255   1.281  16.808 -0.3930  0.4472  0.2152
  968TIP3    H127099   2.214   1.368  16.802 -3.3202 -0.7206  1.5862
  968TIP3    H227100   2.183   1.220  16.795  1.8162 -1.8872 -2.1019
  969TIP3   OH227101   2.239   6.641  17.468  0.1592 -0.0327  0.5090
  969TIP3    H127102   2.178   6.644  17.394 -1.5949  0.5575  1.8925
  969TIP3    H227103   2.209   6.567  17.520  1.0024 -0.0810  0.9345
  970TIP3   OH227104   5.681   0.864  16.618 -0.3307 -0.3605  0.6979
  970TIP3    H127105   5.677   0.914  16.536  0.1738 -0.6842  0.4702
  970TIP3    H227106   5.695   0.929  16.685  0.3280 -0.1943  0.4007
  971TIP3   OH227107   1.166   4.930  17.417  0.6567 -0.3341  0.0702
  971TIP3    H127108   1.086   4.883  17.394  0.3672 -0.8337  1.8767
  971TIP3    H227109   1.137   5.000  17.475  1.4367 -0.0004  0.0705
  972TIP3   OH227110   5.934   6.894  15.874 -0.2339  0.3322  0.0359
  972TIP3    H127111   5.842   6.921  15.877 -0.1652  0.5066  0.6745
  972TIP3    H227112   5.932   6.808  15.832 -0.6200  0.6069 -0.5225
  973TIP3   OH227113   1.840   0.828  17.291  0.4529  0.1930 -0.0120
  973TIP3    H127114   1.909   0.768  17.320  0.2570 -0.5005 -0.9240
  973TIP3    H227115   1.887   0.899  17.248  0.6485  0.2763  0.3333
  974TIP3   OH227116   1.083   8.848  16.705 -0.2982 -0.1602  0.1315
  974TIP3    H127117   1.044   8.823  16.621  0.1314 -1.3373  0.2618
  974TIP3    H227118   1.009   8.876  16.759 -0.6207  0.2632 -0.5148
  975TIP3   OH227119   3.956   0.807  18.020  0.2756 -0.1404  0.5951
  975TIP3    H127120   4.018   0.773  18.084 -0.1561  2.5872  2.6532
  975TIP3    H227121   3.902   0.732  17.996  0.4016 -1.3008  3.5106
  976TIP3   OH227122   8.645   5.882  17.591 -0.0693 -0.0209 -0.3490
  976TIP3    H127123   8.698   5.907  17.666 -1.0132  0.5509  0.1511
  976TIP3    H227124   8.579   5.822  17.627 -0.3285 -0.0034 -0.7847
  977TIP3   OH227125   3.563   1.790  16.838 -0.6189 -0.2389  0.2479
  977TIP3    H127126   3.620   1.815  16.766 -0.3019  1.2841  0.9790
  977TIP3    H227127   3.488   1.747  16.796 -1.3836  2.3209 -1.2199
  978TIP3   OH227128   2.803   6.922  17.554  0.2071  0.3030 -0.3583
  978TIP3    H127129   2.772   6.855  17.614  0.3881  0.2953 -0.2701
  978TIP3    H227130   2.898   6.924  17.568  0.2781  0.1401 -0.8126
  979TIP3   OH227131   6.539   2.623  16.357 -0.2855 -0.2416 -0.1961
  979TIP3    H127132   6.534   2.678  16.279  2.1515 -1.4140 -1.2890
  979TIP3    H227133   6.623   2.646  16.397  0.3638 -2.4160 -0.1683
  980TIP3   OH227134   2.644   2.269  17.215  0.1761 -0.5517  0.1939
  980TIP3    H127135   2.666   2.178  17.231 -1.8241 -0.8946  1.3180
  980TIP3    H227136   2.548   2.273  17.222  0.1526  1.5210 -0.4010
  981TIP3   OH227137   7.845   0.862  17.282  0.3499  0.3771 -0.1629
  981TIP3    H127138   7.785   0.789  17.268  1.8663 -0.7759 -0.7719
  981TIP3    H227139   7.916   0.849  17.220  0.3385  2.7702 -0.7905
  982TIP3   OH227140   4.761   0.587  17.966  0.2510 -0.4240 -0.5032
  982TIP3    H127141   4.763   0.672  17.921 -1.5141 -0.3716 -0.5600
  982TIP3    H227142   4.847   0.580  18.007  0.9203  0.7807 -1.5937
  983TIP3   OH227143   2.329   3.139  17.191  0.0328  0.0138  0.0730
  983TIP3    H127144   2.392   3.195  17.145 -1.2613  1.7820  0.3202
  983TIP3    H227145   2.336   3.054  17.148  2.1895  0.2896 -0.2324
  984TIP3   OH227146   3.059   1.504  17.849  0.3976  0.7291 -0.4647
  984TIP3    H127147   3.150   1.513  17.821  0.7023  1.7530  0.7781
  984TIP3    H227148   3.017   1.584  17.818  0.4168  1.2210  0.7329
  985TIP3   OH227149   8.004   7.563  17.657 -0.0495 -0.5702  0.3955
  985TIP3    H127150   8.072   7.559  17.590  1.4359 -0.5012  1.8201
  985TIP3    H227151   8.049   7.597  17.734 -1.9945  0.6020  1.0820
  986TIP3   OH227152   3.959   5.926  17.223  0.2399 -0.4519  0.2721
  986TIP3    H127153   4.030   5.930  17.287 -1.1096 -0.9656  1.8847
  986TIP3    H227154   3.882   5.958  17.271 -0.3465  1.6793 -1.8971
  987TIP3   OH227155   7.330   8.499  17.264  0.1915  0.7594  0.2080
  987TIP3    H127156   7.271   8.424  17.265  0.5800  0.4652  1.2745
  987TIP3    H227157   7.283   8.568  17.311  0.2582  0.8699  0.1147
  988TIP3   OH227158   7.813   2.773  17.789  0.1917  0.7480  0.0779
  988TIP3    H127159   7.834   2.818  17.871  0.5303  0.6010  0.0714
  988TIP3    H227160   7.822   2.680  17.809  0.2784  0.7109 -0.1274
  989TIP3   OH227161   8.817   0.400  17.821  0.1829 -0.1910 -0.3202
  989TIP3    H127162   8.880   0.399  17.749  1.1518  0.8602  0.4650
  989TIP3    H227163   8.785   0.491  17.824  0.0702 -0.2482  0.4949
  990TIP3   OH227164   7.046   5.491  16.227 -0.6487  0.1599 -0.2687
  990TIP3    H127165   6.953   5.492  16.203 -0.7824  3.3085  0.0401
  990TIP3    H227166   7.050   5.540  16.309  1.1032 -1.5118  0.7078
  991TIP3   OH227167   9.203   9.156  15.783 -0.0210 -0.2861  0.3576
  991TIP3    H127168   9.126   9.161  15.839 -0.3626 -1.1926 -0.0140
  991TIP3    H227169   9.245   9.241  15.792 -1.0186  0.1858  0.6231
  992TIP3   OH227170   1.387   1.284  16.093 -0.0915 -0.9249 -0.0103
  992TIP3    H127171   1.471   1.327  16.079 -0.4913 -0.1831 -0.1725
  992TIP3    H227172   1.407   1.190  16.091  0.6827 -0.7566 -0.3289
  993TIP3   OH227173   5.113   7.837  17.653 -0.1370  0.1288 -0.2353
  993TIP3    H127174   5.087   7.873  17.568  1.5224  0.8111 -0.4902
  993TIP3    H227175   5.189   7.782  17.633 -1.1349 -1.6328  0.5009
  994TIP3   OH227176   8.859   0.896  17.509 -0.1396  0.3158 -0.1352
  994TIP3    H127177   8.912   0.834  17.558 -0.4149 -0.2830 -0.5845
  994TIP3    H227178   8.897   0.895  17.421  0.4375  1.4794  0.0745
  995TIP3   OH227179   1.228   8.546  17.629  0.2217 -0.1516 -0.1840
  995TIP3    H127180   1.256   8.618  17.572  2.2391  0.0716  1.0125
  995TIP3    H227181   1.305   8.489  17.635  0.0093 -0.2543  2.1772
  996TIP3   OH227182   6.116   3.894  16.705 -0.5264 -0.2812  0.4866
  996TIP3    H127183   6.031   3.884  16.748 -0.7495  3.9931  1.4925
  996TIP3    H227184   6.095   3.903  16.612 -0.9100 -1.5160  0.4446
  997TIP3   OH227185   8.661   8.645  16.740 -0.5908  0.3718  0.4592
  997TIP3    H127186   8.611   8.670  16.818 -0.6058 -1.2228  0.9823
  997TIP3    H227187   8.752   8.658  16.764 -0.6318  0.8469  0.3771
  998TIP3   OH227188   0.046   0.140  17.981 -0.1329 -0.0672  0.0828
  998TIP3    H127189  -0.025   0.081  18.005 -1.5478  0.2630 -2.8353
  998TIP3    H227190   0.027   0.165  17.890  1.3656  3.4324  0.5464
  999TIP3   OH227191   9.124   6.485  16.206  0.2983  0.5920 -0.1958
  999TIP3    H127192   9.217   6.463  16.206  0.0090 -1.1101 -2.8179
  999TIP3    H227193   9.111   6.533  16.124 -1.0825  1.1175  0.2993
 1000TIP3   OH227194   7.560   6.700  17.656 -0.3584  0.2732 -0.4306
 1000TIP3    H127195   7.511   6.780  17.638  0.0370  0.3171 -1.4102
 1000TIP3    H227196   7.646   6.715  17.615  0.3602  0.0632  0.9472
 1001TIP3   OH227197   3.588   6.510  17.625  0.2226  1.2413  0.1140
 1001TIP3    H127198   3.529   6.569  17.671 -1.1870 -1.4053  1.9525
 1001TIP3    H227199   3.634   6.463  17.695 -1.8447 -2.8212 -0.9646
 1002TIP3   OH227200   5.494   5.474  15.695 -0.0700 -0.5018 -0.2727
 1002TIP3    H127201   5.522   5.448  15.607 -0.4024 -0.1033 -0.5034
 1002TIP3    H227202   5.398   5.472  15.691 -0.2237 -4.0615  1.1443
 1003TIP3   OH227203   1.212   8.255  17.318 -0.4942 -0.1951  0.3159
 1003TIP3    H127204   1.190   8.176  17.367  0.7694 -1.6245 -1.2759
 1003TIP3    H227205   1.301   8.240  17.287 -0.4190  1.6325 -0.4863
 1004TIP3   OH227206   7.641   8.795  16.086  0.5114  0.1396  0.5633
 1004TIP3    H127207   7.672   8.850  16.014  0.1564  0.1129  0.3845
 1004TIP3    H227208   7.700   8.815  16.158 -0.1290  1.4337  0.7764
 1005TIP3   OH227209   6.256   6.396  16.547 -0.0344 -0.1440 -0.0107
 1005TIP3    H127210   6.211   6.321  16.508 -0.6100 -0.1440  0.6394
 1005TIP3    H227211   6.334   6.357  16.589  0.4292 -0.1804 -0.8778
 1006TIP3   OH227212   8.419   7.382  17.743 -0.7233  0.0964 -0.3329
 1006TIP3    H127213   8.494   7.374  17.685  0.8431 -1.4838  1.7640
 1006TIP3    H227214   8.384   7.293  17.749  0.4965 -0.2840  2.7209
 1007TIP3   OH227215   3.735   2.489  17.003  0.0135  0.3379 -0.2568
 1007TIP3    H127216   3.658   2.453  17.046  0.8590  0.5571  1.4983
 1007TIP3    H227217   3.807   2.432  17.029  0.7063  0.9975 -0.6821
 1008TIP3   OH227218   3.671   3.494  16.472  0.0044  0.8202 -0.4328
 1008TIP3    H127219   3.713   3.507  16.557  1.6501 -0.4000 -1.0229
 1008TIP3    H227220   3.579   3.478  16.493  0.3536  0.6911  1.1089
 1009TIP3   OH227221   8.899   0.458  16.336  0.4686  0.3172  0.0618
 1009TIP3    H127222   8.857   0.430  16.255 -1.1083 -0.1283  0.9959
 1009TIP3    H227223   8.935   0.378  16.374  1.7178  0.6110 -0.4520
 1010TIP3   OH227224   3.379   1.481  16.205 -0.1740 -0.0454 -0.0830
 1010TIP3    H127225   3.297   1.470  16.252 -2.3571 -0.4635 -3.6407
 1010TIP3    H227226   3.442   1.428  16.254 -2.2206 -0.5944  2.1539
 1011TIP3   OH227227   7.169   8.596  16.889  1.1068  0.6031  0.3551
 1011TIP3    H127228   7.251   8.563  16.925  0.6367 -0.2747  0.6364
 1011TIP3    H227229   7.157   8.682  16.931  0.6697 -0.3100  2.1887
 1012TIP3   OH227230   3.870   7.066  15.700 -0.2792  0.1934  0.6925
 1012TIP3    H127231   3.933   7.135  15.721 -0.9646  1.1447 -0.2520
 1012TIP3    H227232   3.921   7.000  15.653  0.3425  0.1430  1.4314
 1013TIP3   OH227233   5.971   5.000  16.782 -0.8707  0.5959 -0.7776
 1013TIP3    H127234   6.020   4.964  16.857 -0.3971 -1.1745 -1.8710
 1013TIP3    H227235   6.038   5.036  16.725 -0.9603 -0.3966 -1.5353
 1014TIP3   OH227236   2.452   6.839  16.283  0.3995 -0.4629  0.4621
 1014TIP3    H127237   2.369   6.836  16.237  1.5540 -1.2413 -1.6830
 1014TIP3    H227238   2.454   6.758  16.335  0.8957 -1.8003 -1.5487
 1015TIP3   OH227239   5.095   6.109  17.522  0.0657  0.0290 -0.0149
 1015TIP3    H127240   5.120   6.073  17.607 -1.0495  0.0076  0.3171
 1015TIP3    H227241   5.051   6.192  17.543 -1.9660 -0.9111 -0.4171
 1016TIP3   OH227242   6.425   8.931  17.255  0.0306  0.3645 -0.0771
 1016TIP3    H127243   6.449   8.873  17.183  1.6903 -1.1394  1.5923
 1016TIP3    H227244   6.483   9.007  17.244 -0.6509  0.7800 -1.0261
 1017TIP3   OH227245   1.432   4.093  17.269  0.1862  0.3902  0.1665
 1017TIP3    H127246   1.347   4.081  17.312 -0.1480  1.4956 -0.1377
 1017TIP3    H227247   1.477   4.158  17.323  1.0300 -0.4986  0.5633
 1018TIP3   OH227248   7.243   1.290  16.880 -0.1964 -0.3049 -0.0721
 1018TIP3    H127249   7.317   1.344  16.851 -0.4965  0.5023  0.6162
 1018TIP3    H227250   7.204   1.340  16.952  0.6626 -2.3355  1.9148
 1019TIP3   OH227251   7.634   8.500  17.829  0.3327  0.0786 -0.1465
 1019TIP3    H127252   7.724   8.524  17.808  0.6546  0.3368  1.3978
 1019TIP3    H227253   7.642   8.417  17.876 -0.4145 -0.8749 -1.6285
 1020TIP3   OH227254   1.472   1.414  16.591 -0.3137  0.4616  0.4225
 1020TIP3    H127255   1.489   1.357  16.665 -0.0244  1.3792  1.0844
 1020TIP3    H227256   1.554   1.414  16.541  0.6287  2.3270  1.8521
 1021TIP3   OH227257   7.361   5.302  16.299 -0.4011  0.4297  0.3154
 1021TIP3    H127258   7.375   5.347  16.215 -1.6969 -1.0299 -0.7544
 1021TIP3    H227259   7.369   5.371  16.365 -0.5532  1.8755 -1.1074
 1022TIP3   OH227260   5.862   7.121  16.576 -0.1208 -0.4148 -0.3046
 1022TIP3    H127261   5.809   7.062  16.523 -0.6362 -0.7473  0.5673
 1022TIP3    H227262   5.885   7.070  16.654  0.4923  0.1188 -0.1205
 1023TIP3   OH227263   8.782   2.902  16.683  0.4296  0.2948  0.8074
 1023TIP3    H127264   8.805   2.980  16.734 -0.4478  0.4682  0.9608
 1023TIP3    H227265   8.747   2.841  16.748 -0.1782  0.3047  0.4998
 1024TIP3   OH227266   0.257   3.150  16.800  0.1899  0.1863 -0.2744
 1024TIP3    H127267   0.215   3.097  16.733  0.2739 -1.3554  0.8392
 1024TIP3    H227268   0.214   3.235  16.794 -3.2562 -1.3147  0.8615
 1025TIP3   OH227269   5.172   6.328  16.333 -0.0917 -0.0251  0.4003
 1025TIP3    H127270   5.176   6.354  16.240 -0.6088  3.1176  1.1205
 1025TIP3    H227271   5.104   6.261  16.336  0.8328 -1.1584 -1.6234
 1026TIP3   OH227272   9.136   3.162  17.090 -0.1611  0.0522 -0.5735
 1026TIP3    H127273   9.151   3.107  17.167 -0.7315 -0.0644 -0.5427
 1026TIP3    H227274   9.184   3.119  17.019  0.1055 -0.0127 -0.3502
 1027TIP3   OH227275   1.905   1.438  17.186 -0.1456  0.3579  0.7165
 1027TIP3    H127276   1.991   1.402  17.208 -0.1875  0.3107  0.8083
 1027TIP3    H227277   1.859   1.365  17.143  0.2261  0.7045 -0.2803
 1028TIP3   OH227278   8.145   0.422  17.821 -0.0091 -0.4065  0.3287
 1028TIP3    H127279   8.227   0.432  17.772 -0.6695 -0.5413 -0.8302
 1028TIP3    H227280   8.111   0.337  17.794 -1.7575  0.6907 -1.1592
 1029TIP3   OH227281   3.098   0.627  17.666 -0.1075 -0.3255  0.3469
 1029TIP3    H127282   3.173   0.582  17.628 -0.5922 -0.5126 -0.4152
 1029TIP3    H227283   3.087   0.588  17.752 -0.0100 -1.0791  0.0226
 1030TIP3   OH227284   7.366   0.038  17.349  0.6020  0.2174 -0.0531
 1030TIP3    H127285   7.432  -0.011  17.301 -1.1338  0.6533 -3.1677
 1030TIP3    H227286   7.378   0.129  17.321  1.7273  1.2177  3.1797
 1031TIP3   OH227287   6.039   9.021  16.304  0.4422 -0.0265  0.1526
 1031TIP3    H127288   5.945   9.024  16.324  0.6280 -0.0154  1.0658
 1031TIP3    H227289   6.043   9.008  16.209 -0.4766  1.5504 -0.1381
 1032TIP3   OH227290   2.649   0.780  17.556 -0.0535  0.5208 -0.2893
 1032TIP3    H127291   2.736   0.821  17.564 -0.6963  2.7759 -3.0904
 1032TIP3    H227292   2.654   0.730  17.475 -0.8816 -0.8189  0.4598
 1033TIP3   OH227293   1.707   0.828  16.714 -0.3592 -0.4289 -0.5781
 1033TIP3    H127294   1.738   0.755  16.768  0.5796 -0.1611 -0.7353
 1033TIP3    H227295   1.663   0.787  16.640 -1.1304 -0.8060  0.0707
 1034TIP3   OH227296   5.073   1.306  16.949 -0.1653  1.0211 -0.1473
 1034TIP3    H127297   5.075   1.390  16.903  2.0487  0.6339 -0.8835
 1034TIP3    H227298   5.036   1.245  16.885 -0.8753  1.2450  0.0451
 1035TIP3   OH227299   7.331   4.388  17.040 -0.1371 -0.1225 -0.5253
 1035TIP3    H127300   7.352   4.466  16.988 -1.9708  1.0730  0.4461
 1035TIP3    H227301   7.239   4.370  17.021  0.1283 -1.7933 -0.3687
 1036TIP3   OH227302   7.895   2.834  16.686 -0.8168 -0.2264  0.0227
 1036TIP3    H127303   7.933   2.921  16.674 -1.9974  0.2753 -0.2025
 1036TIP3    H227304   7.803   2.844  16.661 -0.9126 -1.6017 -0.2595
 1037TIP3   OH227305   8.906   7.683  17.792 -0.6748 -0.1142 -0.6669
 1037TIP3    H127306   8.874   7.595  17.774 -0.2211 -0.2852 -0.6392
 1037TIP3    H227307   8.844   7.717  17.857 -0.7574 -0.4704 -0.5536
 1038TIP3   OH227308   7.280   1.514  17.820 -0.4367  0.4147  0.1989
 1038TIP3    H127309   7.357   1.499  17.874  0.1852  2.4926 -0.0304
 1038TIP3    H227310   7.223   1.439  17.838  0.5801  0.0761  2.2490
 1039TIP3   OH227311   6.238   4.472  16.028  0.1310  0.8475  0.1209
 1039TIP3    H127312   6.313   4.432  15.983  1.0467  1.6826  0.8631
 1039TIP3    H227313   6.161   4.437  15.983  0.7116 -3.4426  2.0004
 1040TIP3   OH227314   7.538   3.942  16.325  0.2455 -0.3694 -0.3036
 1040TIP3    H127315   7.586   3.882  16.383 -1.0843  0.6543  2.0082
 1040TIP3    H227316   7.583   4.025  16.335 -0.9498  0.1996  0.5819
 1041TIP3   OH227317   6.952   6.036  17.351  0.0365  0.2324  0.3208
 1041TIP3    H127318   6.873   6.007  17.396  0.4798 -0.4916  0.6568
 1041TIP3    H227319   7.019   6.036  17.419  0.8189 -1.2952 -0.3931
 1042TIP3   OH227320   1.377   8.750  17.801 -0.6027 -0.2594 -0.1354
 1042TIP3    H127321   1.334   8.667  17.783  0.3458 -0.9504  0.6529
 1042TIP3    H227322   1.307   8.808  17.830 -0.9618 -1.5514  1.7815
 1043TIP3   OH227323   4.023   3.385  17.175  0.1281 -0.4019  0.5653
 1043TIP3    H127324   3.989   3.437  17.102 -0.0883 -1.0350  0.2106
 1043TIP3    H227325   4.047   3.450  17.241  1.0935  0.2321 -0.3799
 1044TIP3   OH227326   3.139   2.206  16.294  0.0031  0.8120 -0.3452
 1044TIP3    H127327   3.213   2.201  16.233 -0.0861 -0.6236 -0.3743
 1044TIP3    H227328   3.076   2.142  16.261 -0.4107  0.6182  0.7775
 1045TIP3   OH227329   1.998   3.812  16.943 -0.4708 -0.7862  0.2120
 1045TIP3    H127330   2.024   3.903  16.956  0.3731 -1.4390  4.3219
 1045TIP3    H227331   1.903   3.811  16.955 -1.0788 -0.0830 -3.4254
 1046TIP3   OH227332   6.572   8.129  17.932 -0.2818 -0.0784  0.3108
 1046TIP3    H127333   6.539   8.046  17.898  0.2212  0.1734 -0.8055
 1046TIP3    H227334   6.667   8.119  17.932 -0.0979  1.1851 -1.7089
 1047TIP3   OH227335   3.071   4.804  16.696 -0.0892 -0.6018 -0.1860
 1047TIP3    H127336   3.026   4.888  16.692 -0.0863 -0.5294  0.9797
 1047TIP3    H227337   3.159   4.823  16.662  0.7771  0.5193  2.4128
 1048TIP3   OH227338   9.165   7.202  16.922  0.0158 -0.2853 -0.0741
 1048TIP3    H127339   9.151   7.262  16.996  2.0946 -0.1608  0.2770
 1048TIP3    H227340   9.240   7.239  16.876 -0.6924 -0.8741 -1.7521
 1049TIP3   OH227341   9.074   6.078  16.339  0.8526 -0.5962  0.6460
 1049TIP3    H127342   9.140   6.140  16.370  0.5947 -0.5068  1.0212
 1049TIP3    H227343   9.124   6.011  16.292  1.2089 -0.5320  0.9302
 1050TIP3   OH227344   2.311   0.140  16.386 -0.4262  0.0378  0.3075
 1050TIP3    H127345   2.353   0.171  16.466  0.7593 -2.3754  0.7038
 1050TIP3    H227346   2.278   0.053  16.408 -0.1115 -0.6736 -1.7934
 1051TIP3   OH227347   0.686   8.146  17.853  0.2416 -0.1385  0.4263
 1051TIP3    H127348   0.637   8.065  17.867  0.1283  0.0838  1.3863
 1051TIP3    H227349   0.663   8.201  17.928 -1.5366  1.7057 -1.3226
 1052TIP3   OH227350   7.784   6.006  17.395  0.3155 -0.0472 -0.6518
 1052TIP3    H127351   7.737   5.923  17.394  0.2079 -0.0039  0.2277
 1052TIP3    H227352   7.717   6.072  17.376  0.1238 -0.0372  0.0447
 1053TIP3   OH227353   4.430   3.657  16.401 -0.1160  0.5334 -0.7857
 1053TIP3    H127354   4.524   3.653  16.386  0.3041  1.3769  1.3376
 1053TIP3    H227355   4.404   3.566  16.413  0.3237  0.2542 -1.8405
 1054TIP3   OH227356   8.041   6.874  17.394  0.3869 -0.3304  0.4410
 1054TIP3    H127357   8.121   6.873  17.340  0.6753  0.5111  0.8304
 1054TIP3    H227358   8.002   6.960  17.377 -0.0533 -0.4545  0.8100
 1055TIP3   OH227359   6.981   2.256  17.147 -0.4840 -0.4243 -0.2543
 1055TIP3    H127360   7.055   2.316  17.135 -0.6414 -0.2820 -0.5208
 1055TIP3    H227361   6.917   2.284  17.082  0.3963 -2.3897 -2.0871
 1056TIP3   OH227362   6.174   8.813  17.293 -0.0682  0.0325  0.3314
 1056TIP3    H127363   6.262   8.842  17.270  0.2371 -0.0685  1.3500
 1056TIP3    H227364   6.169   8.724  17.259  0.0790  0.1734 -0.0674
 1057TIP3   OH227365   6.874   1.555  17.731 -0.1770  0.0560 -0.3342
 1057TIP3    H127366   6.788   1.537  17.769 -0.5852 -0.4266 -1.4489
 1057TIP3    H227367   6.911   1.623  17.787 -1.4287  0.5260 -0.0435
 1058TIP3   OH227368   1.361   2.739  17.706 -0.2638 -0.4857  0.6633
 1058TIP3    H127369   1.336   2.781  17.789 -0.0188  0.5804  0.2214
 1058TIP3    H227370   1.278   2.706  17.670 -0.4010 -0.7549  1.2272
 1059TIP3   OH227371   2.227   8.545  16.734  0.1851  0.2999 -0.1752
 1059TIP3    H127372   2.315   8.567  16.763  0.3840 -0.2028 -0.3837
 1059TIP3    H227373   2.179   8.528  16.815  0.3204  0.4212 -0.0700
 1060TIP3   OH227374   7.725   1.578  17.744  0.1935  0.6005 -0.3745
 1060TIP3    H127375   7.658   1.561  17.811  0.2574  2.0862  0.0931
 1060TIP3    H227376   7.680   1.560  17.661  0.3119 -1.9345  0.0125
 1061TIP3   OH227377   6.729   3.050  16.171  0.2938  0.0641 -0.3786
 1061TIP3    H127378   6.744   3.137  16.208  0.7683  0.8809 -2.3828
 1061TIP3    H227379   6.641   3.054  16.134 -1.0985 -1.4563  2.4005
 1062TIP3   OH227380   6.678   7.523  17.546  0.8343  0.5346  0.2173
 1062TIP3    H127381   6.596   7.529  17.595  0.5587 -0.7479 -0.0493
 1062TIP3    H227382   6.668   7.444  17.492  2.1084  0.5551 -0.0849
 1063TIP3   OH227383   2.686   8.916  17.257  0.6188 -0.0010  0.3206
 1063TIP3    H127384   2.772   8.959  17.253 -0.3770  2.0311 -1.5704
 1063TIP3    H227385   2.633   8.964  17.193 -1.4746 -2.2444  0.2478
 1064TIP3   OH227386   7.622   0.554  16.538  0.3133 -0.2805 -0.4791
 1064TIP3    H127387   7.699   0.571  16.592 -0.3209  2.5734 -0.2850
 1064TIP3    H227388   7.553   0.531  16.600  0.1110  0.9173 -0.2345
 1065TIP3   OH227389   3.942   7.369  16.668 -0.0649  0.2182  0.1565
 1065TIP3    H127390   3.932   7.292  16.612  2.1812 -0.6130  0.8143
 1065TIP3    H227391   3.968   7.439  16.609  0.8011 -0.2748 -0.0506
 1066TIP3   OH227392   5.401   4.501  17.109 -1.0732  0.8943  0.0396
 1066TIP3    H127393   5.317   4.471  17.145 -0.5687  1.6335  1.9418
 1066TIP3    H227394   5.420   4.581  17.157 -0.4629  2.1261 -2.1404
 1067TIP3   OH227395   5.686   3.396  17.739  0.0870 -0.5945  0.6018
 1067TIP3    H127396   5.602   3.422  17.702  0.1394 -0.3349  0.6624
 1067TIP3    H227397   5.742   3.382  17.663  0.7044  1.6244  0.5829
 1068TIP3   OH227398   2.605   6.939  17.847  0.2121  0.5578  0.4477
 1068TIP3    H127399   2.651   6.860  17.819  1.4446  1.0682  0.9966
 1068TIP3    H227400   2.521   6.934  17.801  1.3785  0.3753 -1.8230
 1069TIP3   OH227401   3.139   2.847  17.528 -0.2626  0.4764  0.1774
 1069TIP3    H127402   3.114   2.924  17.579 -0.2805  0.2744  0.4809
 1069TIP3    H227403   3.212   2.810  17.577 -0.7264 -0.1121  0.4328
 1070TIP3   OH227404   3.662   5.232  17.703  0.1138  0.0170 -0.2910
 1070TIP3    H127405   3.593   5.299  17.703  0.7681  0.7020 -1.0369
 1070TIP3    H227406   3.617   5.152  17.677 -0.4041  0.4648 -0.8016
 1071TIP3   OH227407   0.250   8.370  17.454  0.5327  0.3518 -0.1465
 1071TIP3    H127408   0.305   8.309  17.406 -0.7725 -1.4406  0.5346
 1071TIP3    H227409   0.304   8.395  17.530 -0.0749 -2.7655  1.4973
 1072TIP3   OH227410   1.036   6.481  17.319  0.2424 -0.1144 -0.2345
 1072TIP3    H127411   1.026   6.442  17.406 -1.2739 -0.6582 -0.6258
 1072TIP3    H227412   0.963   6.542  17.311  0.4698  0.0692 -1.0493
 1073TIP3   OH227413   6.542   5.354  17.644 -0.0542 -0.1206  0.2110
 1073TIP3    H127414   6.625   5.352  17.595 -1.9816 -0.8272 -3.4345
 1073TIP3    H227415   6.529   5.263  17.670  1.0998  0.3010  2.4623
 1074TIP3   OH227416   7.724   8.915  17.585  0.5232 -0.1494 -0.1009
 1074TIP3    H127417   7.733   8.913  17.680  1.2569  0.6166 -0.1419
 1074TIP3    H227418   7.810   8.944  17.553 -0.7176  3.2448 -0.7755
 1075TIP3   OH227419   6.112   2.215  17.197  0.0820  0.2370 -0.4876
 1075TIP3    H127420   6.141   2.128  17.170 -0.0310  0.1097 -0.2043
 1075TIP3    H227421   6.016   2.210  17.195  0.0619  0.6935 -1.5436
 1076TIP3   OH227422   7.061   6.437  17.405 -0.2984 -0.6924 -0.0745
 1076TIP3    H127423   7.052   6.428  17.310 -0.0237 -0.6470 -0.1069
 1076TIP3    H227424   7.127   6.505  17.416 -1.2324  0.2035  0.1523
 1077TIP3   OH227425   6.123   9.168  18.205  0.1097  0.1655  0.2033
 1077TIP3    H127426   6.063   9.113  18.254  0.8711 -0.3711  0.5636
 1077TIP3    H227427   6.122   9.132  18.116  1.6450 -1.3707  0.7474
 1078TIP3   OH227428   4.923   6.094  17.277  0.5739  0.0854 -0.3687
 1078TIP3    H127429   4.962   6.181  17.262 -0.1150  0.2768 -1.1413
 1078TIP3    H227430   4.984   6.033  17.235 -0.1655  0.4274 -2.0042
 1079TIP3   OH227431   4.026   6.724  16.775 -0.1035  0.1000  0.3175
 1079TIP3    H127432   3.988   6.652  16.725 -1.1225  0.2503  0.8367
 1079TIP3    H227433   4.047   6.685  16.860  0.1944  0.2027  0.2924
 1080TIP3   OH227434   7.052   5.729  15.969 -0.2693  0.6535 -0.5795
 1080TIP3    H127435   7.096   5.773  15.896 -0.4955 -0.9969 -1.7756
 1080TIP3    H227436   7.089   5.641  15.970 -2.7408 -0.4648 -0.9644
 1081TIP3   OH227437   3.555   7.717  16.541  0.0757 -0.1551  0.1355
 1081TIP3    H127438   3.497   7.711  16.617 -0.4247  0.5853 -0.1774
 1081TIP3    H227439   3.605   7.797  16.555  1.4500 -1.0574  0.6727
 1082TIP3   OH227440   8.311   5.582  17.054  0.3584 -0.4934 -0.4919
 1082TIP3    H127441   8.369   5.655  17.078  1.6999 -2.1132  1.4878
 1082TIP3    H227442   8.362   5.532  16.990  0.8416 -1.4696  0.6326
 1083TIP3   OH227443   4.709   0.894  17.002  0.6606  0.7627 -0.1833
 1083TIP3    H127444   4.736   0.959  16.937  1.9676 -0.0995 -0.5340
 1083TIP3    H227445   4.619   0.872  16.979  0.4150  1.9752 -0.4369
 1084TIP3   OH227446   2.052   8.790  16.918 -0.2761 -0.1622 -0.6061
 1084TIP3    H127447   1.978   8.824  16.968 -0.7333  0.1186 -1.4514
 1084TIP3    H227448   2.031   8.812  16.827  0.5112 -0.7047 -0.9268
 1085TIP3   OH227449   4.250   2.751  16.819  0.5941 -0.0707  0.8839
 1085TIP3    H127450   4.329   2.698  16.807  0.5238 -0.2710  1.2834
 1085TIP3    H227451   4.224   2.734  16.910  0.0499 -0.0657  0.7308
 1086TIP3   OH227452   6.306   5.209  17.262 -0.1902  0.1469 -0.9688
 1086TIP3    H127453   6.395   5.232  17.288 -1.4983  2.6473  1.8720
 1086TIP3    H227454   6.295   5.117  17.288  1.2154  0.1019 -0.4915
 1087TIP3   OH227455   5.444   0.763  16.484 -0.3730 -0.7184 -0.2568
 1087TIP3    H127456   5.516   0.807  16.529 -0.9273 -1.6396  1.6244
 1087TIP3    H227457   5.480   0.739  16.399  0.1562  2.6547 -1.1140
 1088TIP3   OH227458   2.175   6.682  17.990 -0.3510 -0.5563 -0.7112
 1088TIP3    H127459   2.123   6.692  18.069  1.2252  0.6547  0.2208
 1088TIP3    H227460   2.262   6.713  18.014 -0.2408  1.5486 -3.4103
 1089TIP3   OH227461   8.562   6.425  16.107 -0.0680  0.1456  0.1959
 1089TIP3    H127462   8.642   6.451  16.152 -0.9477  1.0755  1.2742
 1089TIP3    H227463   8.551   6.490  16.037  1.3985 -1.4054 -1.5912
 1090TIP3   OH227464   0.298   0.340  16.507  0.3926  0.2617 -0.0532
 1090TIP3    H127465   0.237   0.275  16.473  0.2073  0.5663 -0.2984
 1090TIP3    H227466   0.246   0.394  16.566  0.8865 -0.7791  1.3958
 1091TIP3   OH227467   9.033   0.699  17.593 -0.3328 -1.2413 -0.1154
 1091TIP3    H127468   9.071   0.673  17.677  3.0719  0.6313 -0.8782
 1091TIP3    H227469   9.032   0.618  17.541  0.5143 -1.8301  0.7467
 1092TIP3   OH227470   6.497   6.033  16.804  0.3374 -0.2433 -0.3349
 1092TIP3    H127471   6.455   6.081  16.732  1.7256 -0.4900 -1.3408
 1092TIP3    H227472   6.528   6.101  16.863  0.2176  0.0107 -0.5620
 1093TIP3   OH227473   0.139   2.201  16.490  0.5375  0.8609 -0.0383
 1093TIP3    H127474   0.148   2.114  16.451  0.0569  0.2620  1.1400
 1093TIP3    H227475   0.214   2.209  16.549  0.1128  0.8865  0.5046
 1094TIP3   OH227476   0.190   0.766  16.953  0.3376  0.2082  0.0690
 1094TIP3    H127477   0.176   0.733  17.041 -0.0378 -0.8783 -0.3885
 1094TIP3    H227478   0.181   0.861  16.961 -3.2233 -0.0516  0.6006
 1095TIP3   OH227479   0.370   0.955  16.012 -0.2581 -0.0413  0.5250
 1095TIP3    H127480   0.437   0.924  16.072  0.5290 -0.6341 -0.6371
 1095TIP3    H227481   0.389   1.048  16.000  0.1355 -0.1256  0.4946
 1096TIP3   OH227482   3.525   4.475  16.228 -0.0797 -0.3873  0.6668
 1096TIP3    H127483   3.484   4.394  16.199 -1.4399  0.1545  0.9801
 1096TIP3    H227484   3.602   4.484  16.172  0.5359 -2.2620  1.1435
 1097TIP3   OH227485   0.772   0.145  16.951  0.4542  0.2400 -0.0606
 1097TIP3    H127486   0.719   0.224  16.959  0.4527  0.1541  0.8946
 1097TIP3    H227487   0.828   0.161  16.875 -0.3245  0.6897 -0.5552
 1098TIP3   OH227488   0.673   7.346  16.205  0.2534  0.0081  0.0173
 1098TIP3    H127489   0.632   7.303  16.279 -0.9405  1.2072  0.0887
 1098TIP3    H227490   0.650   7.438  16.214  0.5164  0.2693 -1.5606
 1099TIP3   OH227491   4.995   2.012  17.499  0.3874  0.9684  0.0790
 1099TIP3    H127492   4.903   1.987  17.501 -0.3764  3.4233 -0.1452
 1099TIP3    H227493   5.008   2.063  17.580  2.1301 -0.9926  1.1291
 1100TIP3   OH227494   3.811   5.862  16.002  0.5316 -0.4288 -0.4036
 1100TIP3    H127495   3.794   5.780  16.049  2.7960 -0.5648  0.3066
 1100TIP3    H227496   3.733   5.916  16.020 -0.1183 -1.6867  0.7962
 1101TIP3   OH227497   8.593   7.301  17.528 -0.5803  0.4888 -0.5128
 1101TIP3    H127498   8.619   7.209  17.531 -0.5067  0.5180 -0.1292
 1101TIP3    H227499   8.544   7.310  17.447 -1.6315 -0.1637  0.0282
 1102TIP3   OH227500   8.734   8.167  17.202  0.0872  0.2553  0.1445
 1102TIP3    H127501   8.648   8.180  17.241 -0.6652  0.3110 -1.4859
 1102TIP3    H227502   8.787   8.238  17.238 -0.8927  1.0060  0.1414
 1103TIP3   OH227503   6.386   7.007  17.330 -0.5009  0.2379  0.4896
 1103TIP3    H127504   6.450   6.968  17.269 -2.9679 -1.4577 -1.2420
 1103TIP3    H227505   6.373   6.939  17.397 -1.5095 -0.0805 -0.0053
 1104TIP3   OH227506   4.535   1.240  16.770  0.5264  0.4070  1.0995
 1104TIP3    H127507   4.557   1.295  16.695  1.6501 -1.2262  0.1648
 1104TIP3    H227508   4.617   1.193  16.790 -0.2189 -0.4813  2.2292
 1105TIP3   OH227509   2.202   6.510  16.833 -0.2037 -0.4821 -0.4882
 1105TIP3    H127510   2.116   6.532  16.797 -0.6120  0.8986  1.1706
 1105TIP3    H227511   2.213   6.417  16.817 -2.9106 -1.1526  0.9713
 1106TIP3   OH227512   1.320   3.191  16.907 -0.4417 -0.1358  0.3368
 1106TIP3    H127513   1.302   3.284  16.918 -1.9791 -0.4164  0.3568
 1106TIP3    H227514   1.263   3.163  16.837  2.0891 -0.5102 -1.7311
 1107TIP3   OH227515   6.830   5.711  17.235 -0.1633  0.3398  0.2534
 1107TIP3    H127516   6.748   5.672  17.267 -1.6289  2.1934 -0.9692
 1107TIP3    H227517   6.802   5.795  17.197  2.3381  1.0289 -0.1997
 1108TIP3   OH227518   8.749   3.145  17.759 -0.2710  0.4201  0.4928
 1108TIP3    H127519   8.773   3.198  17.835  3.0660 -1.6763  1.1480
 1108TIP3    H227520   8.724   3.060  17.797 -1.1748  0.1662 -0.6434
 1109TIP3   OH227521   2.595   1.895  16.293  0.1908 -0.0496  0.1842
 1109TIP3    H127522   2.663   1.894  16.226 -0.4469  1.1802 -0.5109
 1109TIP3    H227523   2.642   1.897  16.376  0.9924 -1.5473 -0.1981
 1110TIP3   OH227524   7.193   9.021  17.051 -0.0714 -0.3607 -0.3441
 1110TIP3    H127525   7.197   9.113  17.074 -0.8489 -0.6371  0.9849
 1110TIP3    H227526   7.221   9.018  16.959  1.4456  0.9923  0.0276
 1111TIP3   OH227527   7.723   3.368  16.536  0.1450  0.3779 -0.2120
 1111TIP3    H127528   7.806   3.376  16.490 -0.8496  0.6148 -2.0424
 1111TIP3    H227529   7.727   3.435  16.605  2.1079 -0.7248  0.8538
 1112TIP3   OH227530   2.179   1.732  17.130 -0.0030  0.8289 -0.1120
 1112TIP3    H127531   2.180   1.644  17.168 -1.4992  0.9669  0.3224
 1112TIP3    H227532   2.089   1.742  17.097  1.0421  0.8761 -3.3420
 1113TIP3   OH227533   0.590   1.789  17.296  0.2311  0.3248 -0.2032
 1113TIP3    H127534   0.540   1.854  17.246  1.0391  1.3097  0.2199
 1113TIP3    H227535   0.680   1.799  17.265  0.6412  0.5255  0.9918
 1114TIP3   OH227536   0.583   1.448  16.015 -0.0049 -0.0764 -0.8250
 1114TIP3    H127537   0.535   1.531  16.011  1.1972  0.6720 -0.3268
 1114TIP3    H227538   0.665   1.466  15.968  0.0566 -1.1437 -1.1509
 1115TIP3   OH227539   6.138   7.759  16.598 -0.2129  0.1275  0.2898
 1115TIP3    H127540   6.171   7.684  16.548  0.3536  1.0878 -0.8376
 1115TIP3    H227541   6.091   7.720  16.671 -0.7287 -1.3478 -0.7656
 1116TIP3   OH227542   3.459   6.219  17.425 -0.3681 -0.0715  0.2691
 1116TIP3    H127543   3.483   6.301  17.381 -0.1953  0.7266  1.7775
 1116TIP3    H227544   3.375   6.238  17.467 -0.4445 -0.7458  0.4327
 1117TIP3   OH227545   7.456   5.003  17.029 -0.4453 -0.1359 -0.0577
 1117TIP3    H127546   7.545   4.976  17.007 -0.2078  1.4973 -1.2983
 1117TIP3    H227547   7.402   4.925  17.011  0.8946 -1.7901  2.5612
 1118TIP3   OH227548   5.860   0.607  15.990  0.4195 -0.0320  0.2665
 1118TIP3    H127549   5.881   0.513  15.995  0.7836  0.1235  2.2428
 1118TIP3    H227550   5.765   0.609  15.979  0.4536 -0.6360 -0.2103
 1119TIP3   OH227551   8.195   2.219  17.058 -0.3341 -0.1526  0.6019
 1119TIP3    H127552   8.117   2.239  17.111 -0.0789  0.5333  0.7297
 1119TIP3    H227553   8.194   2.123  17.050 -0.1955 -0.3079  2.1289
 1120TIP3   OH227554   3.597   8.442  16.613 -0.9758 -0.3178 -0.1578
 1120TIP3    H127555   3.598   8.348  16.601  1.4526 -0.7314  2.2037
 1120TIP3    H227556   3.562   8.455  16.701  0.5249  0.7484  0.3419
 1121TIP3   OH227557   5.936   1.937  16.908  0.0033 -0.5764  0.6138
 1121TIP3    H127558   5.853   1.980  16.928  0.0866 -0.8383  1.6135
 1121TIP3    H227559   5.913   1.854  16.868 -0.2020 -0.3525  0.2705
 1122TIP3   OH227560   6.115   6.246  17.806  0.7082 -0.0809 -0.3334
 1122TIP3    H127561   6.156   6.168  17.770  1.2141 -0.0789  0.2319
 1122TIP3    H227562   6.187   6.301  17.836  0.4697  1.4286 -2.3167
 1123TIP3   OH227563   2.967   9.056  16.315  0.4161 -0.3283  0.0911
 1123TIP3    H127564   3.031   9.025  16.251  1.5526  0.7105  0.6974
 1123TIP3    H227565   3.004   9.032  16.399 -1.6699 -2.8630  0.4262
 1124TIP3   OH227566   7.993   2.532  16.325  0.1028  0.8169  0.4013
 1124TIP3    H127567   8.065   2.542  16.263  1.6398 -3.0797  1.3320
 1124TIP3    H227568   7.914   2.542  16.271  1.3661 -1.2007 -2.0072
 1125TIP3   OH227569   5.591   7.253  16.211 -0.7359  0.1588 -0.2140
 1125TIP3    H127570   5.659   7.186  16.220  0.0260  1.1480  2.3159
 1125TIP3    H227571   5.516   7.219  16.260 -0.3934  1.0048  0.9632
 1126TIP3   OH227572   5.440   1.426  17.457  0.2806  0.4020 -0.1238
 1126TIP3    H127573   5.513   1.390  17.407  0.7984  1.0510  0.1544
 1126TIP3    H227574   5.481   1.464  17.535 -0.2552  1.4886 -0.3556
 1127TIP3   OH227575   6.817   3.410  16.750 -0.1653  0.5745 -0.4892
 1127TIP3    H127576   6.785   3.388  16.663 -2.0952  2.2857 -0.2898
 1127TIP3    H227577   6.765   3.486  16.776  1.2850  0.9289  1.6236
 1128TIP3   OH227578   5.693   8.410  16.899  0.3486  0.9058  0.5930
 1128TIP3    H127579   5.719   8.470  16.829 -0.3885  0.9707  0.3762
 1128TIP3    H227580   5.757   8.339  16.894 -0.0721  0.6002 -0.5419
 1129TIP3   OH227581   4.620   4.683  16.765  0.6809  0.4932  0.3213
 1129TIP3    H127582   4.577   4.708  16.847 -1.4708  0.1043 -0.6120
 1129TIP3    H227583   4.626   4.588  16.769 -1.5404  0.2345 -0.8554
 1130TIP3   OH227584   8.478   5.102  16.272 -0.4124 -0.0508  0.3267
 1130TIP3    H127585   8.451   5.053  16.194 -0.0241 -0.3650  0.3869
 1130TIP3    H227586   8.573   5.106  16.265 -0.4688  1.2377 -0.0017
 1131TIP3   OH227587   1.382   8.090  16.535 -0.3109 -0.3918 -0.1688
 1131TIP3    H127588   1.315   8.067  16.470 -1.3798 -1.8521  1.3697
 1131TIP3    H227589   1.390   8.185  16.528 -3.0138 -0.0686 -0.0176
 1132TIP3   OH227590   4.937   7.287  16.164 -0.0531  0.2570  0.6938
 1132TIP3    H127591   4.887   7.298  16.084  0.1237 -0.6556  0.4564
 1132TIP3    H227592   4.977   7.201  16.157  1.1762  0.7711  1.0881
 1133TIP3   OH227593   4.684   1.530  16.823 -0.1058  0.3991  0.3859
 1133TIP3    H127594   4.697   1.566  16.735  1.6196  0.5390  0.6495
 1133TIP3    H227595   4.594   1.499  16.824 -0.3841  1.0698 -1.1846
 1134TIP3   OH227596   4.413   8.891  17.154 -0.0682  0.2944 -0.4902
 1134TIP3    H127597   4.429   8.828  17.084  0.5355  0.0347 -0.1251
 1134TIP3    H227598   4.500   8.920  17.181 -0.3343  1.1954 -0.5637
 1135TIP3   OH227599   1.514   5.649  17.384  0.2470  0.6372  0.1658
 1135TIP3    H127600   1.536   5.559  17.361  2.4824  0.6424  1.9317
 1135TIP3    H227601   1.539   5.700  17.307  0.1586 -0.1011 -0.3633
 1136TIP3   OH227602   3.712   1.841  16.614  0.1680  0.3418  0.4315
 1136TIP3    H127603   3.796   1.868  16.652  0.6920  0.2394 -0.6010
 1136TIP3    H227604   3.711   1.746  16.623  0.9314  0.1627 -0.9863
 1137TIP3   OH227605   9.175   0.972  17.619  0.5572  0.3209  0.6599
 1137TIP3    H127606   9.239   1.042  17.613  1.9746 -0.9635 -0.0934
 1137TIP3    H227607   9.222   0.900  17.661 -0.9309 -0.1325  1.6675
 1138TIP3   OH227608   5.682   5.972  17.533  0.7211 -0.2420  0.0573
 1138TIP3    H127609   5.593   5.991  17.503  1.1698  2.9239  0.4346
 1138TIP3    H227610   5.736   5.980  17.455  0.8179 -1.4475 -0.0260
 1139TIP3   OH227611   0.659   5.182  16.708 -0.2519 -0.2402  0.3084
 1139TIP3    H127612   0.729   5.233  16.668  1.5279 -1.0168  2.2462
 1139TIP3    H227613   0.684   5.091  16.692 -1.0187 -0.5277  0.7216
 1140TIP3   OH227614   0.605   6.711  17.977  0.2461 -0.0300  0.2061
 1140TIP3    H127615   0.624   6.741  17.888 -0.9209  1.5693  0.4440
 1140TIP3    H227616   0.580   6.619  17.967 -0.1719  0.2084 -1.1689
 1141TIP3   OH227617   0.429   0.171  18.216 -0.3767 -0.0576 -0.3230
 1141TIP3    H127618   0.454   0.134  18.301  1.7835  1.0545 -0.4082
 1141TIP3    H227619   0.334   0.160  18.212 -0.3005 -1.8936  1.3722
 1142TIP3   OH227620   1.858   5.028  17.178 -0.4179 -0.3623 -0.0435
 1142TIP3    H127621   1.797   4.955  17.182 -0.7449 -0.0638  0.7791
 1142TIP3    H227622   1.901   5.027  17.264 -1.2246  1.0629  0.4102
 1143TIP3   OH227623   8.546   6.160  16.794 -0.2396  0.3420 -0.2568
 1143TIP3    H127624   8.568   6.182  16.703  0.1804  1.1782  0.0311
 1143TIP3    H227625   8.458   6.123  16.789  0.3545 -1.0025 -1.1741
 1144TIP3   OH227626   3.801   5.808  16.923 -0.7006 -0.1402 -0.2988
 1144TIP3    H127627   3.876   5.799  16.865  0.3426 -1.2394  1.1452
 1144TIP3    H227628   3.726   5.779  16.871  0.3951 -2.4997 -0.6954
 1145TIP3   OH227629   8.525   4.285  16.868 -0.0340  0.1785 -0.2068
 1145TIP3    H127630   8.454   4.287  16.804  1.4502 -1.9931 -2.0916
 1145TIP3    H227631   8.603   4.267  16.816  1.4043 -0.7599  2.1232
 1146TIP3   OH227632   7.422   5.746  16.010  0.4788 -0.0357 -0.4231
 1146TIP3    H127633   7.341   5.797  16.016 -0.1276 -1.0055  0.0110
 1146TIP3    H227634   7.492   5.811  16.006 -0.3760  0.8567 -1.9224
 1147TIP3   OH227635   5.328   2.263  18.012 -0.4810 -0.5151  0.1532
 1147TIP3    H127636   5.396   2.330  18.024 -1.4864  0.2564  2.0674
 1147TIP3    H227637   5.347   2.199  18.080 -0.6413 -1.2011 -0.4468
 1148TIP3   OH227638   4.456   3.062  16.180  0.2590 -0.2931 -0.2244
 1148TIP3    H127639   4.406   3.036  16.103 -0.0356  0.3035 -0.2380
 1148TIP3    H227640   4.391   3.066  16.250  0.2435  0.6719 -0.2817
 1149TIP3   OH227641   0.805   7.477  17.347 -0.1489  0.1721 -0.4583
 1149TIP3    H127642   0.711   7.492  17.343  0.1275  2.5216  0.3702
 1149TIP3    H227643   0.825   7.470  17.441  0.6434  0.8463 -0.5659
 1150TIP3   OH227644   3.721   0.135  16.628  0.9501  0.5395  0.1213
 1150TIP3    H127645   3.798   0.147  16.684  0.3814 -0.0744  1.0522
 1150TIP3    H227646   3.699   0.043  16.637 -0.3712  0.8742  0.4999
 1151TIP3   OH227647   7.881   2.050  16.482  0.3165  0.2023 -0.1103
 1151TIP3    H127648   7.833   1.987  16.536  0.2899 -0.3835 -0.7941
 1151TIP3    H227649   7.946   1.997  16.436  0.0089  0.5966 -1.0265
 1152TIP3   OH227650   3.791   0.513  16.757 -0.4170 -0.0505  0.0109
 1152TIP3    H127651   3.857   0.573  16.723 -2.0856  1.3681 -0.9003
 1152TIP3    H227652   3.719   0.570  16.785 -1.4658 -1.5568  0.5316
 1153TIP3   OH227653   6.765   4.065  16.900 -0.3035 -0.0558 -0.4234
 1153TIP3    H127654   6.825   4.009  16.851 -0.2862 -1.4310  1.0568
 1153TIP3    H227655   6.816   4.090  16.978 -1.0681  0.1646  0.0117
 1154TIP3   OH227656   6.561   4.758  16.903 -0.0187 -0.2261  0.2292
 1154TIP3    H127657   6.584   4.779  16.994 -0.8481 -0.5200  0.5144
 1154TIP3    H227658   6.573   4.663  16.896  2.9661  0.1024 -0.8414
 1155TIP3   OH227659   2.545   7.232  16.238  0.8142 -0.3542 -0.2968
 1155TIP3    H127660   2.554   7.145  16.199  0.8406  0.6748 -2.7957
 1155TIP3    H227661   2.604   7.231  16.313  1.3196 -2.2665 -0.6553
 1156TIP3   OH227662   4.171   1.354  15.831 -0.3781 -0.0754  0.2979
 1156TIP3    H127663   4.091   1.346  15.778 -1.0774  1.3647  1.0686
 1156TIP3    H227664   4.155   1.298  15.907 -0.4129 -0.2458  0.1641
 1157TIP3   OH227665   5.423   5.168  15.858 -0.2045 -0.2495 -0.0078
 1157TIP3    H127666   5.401   5.077  15.880 -0.2506 -0.2385 -0.0079
 1157TIP3    H227667   5.507   5.161  15.811 -0.3492 -0.3197 -0.2586
 1158TIP3   OH227668   5.595   0.110  16.459 -0.7455  0.3884  0.0480
 1158TIP3    H127669   5.548   0.027  16.450 -0.3186  0.1707 -0.1944
 1158TIP3    H227670   5.662   0.092  16.525 -0.4521  0.4471 -0.2306
 1159TIP3   OH227671   7.098   8.782  17.108 -0.2654  0.5498 -0.1480
 1159TIP3    H127672   7.138   8.766  17.193  0.9601  1.8603 -0.4467
 1159TIP3    H227673   7.110   8.875  17.092 -0.5541  0.3511 -1.7206
 1160TIP3   OH227674   1.066   8.224  16.560  0.2521  0.0897  0.4348
 1160TIP3    H127675   1.118   8.175  16.496  0.0088 -0.4270  0.6318
 1160TIP3    H227676   0.982   8.179  16.563 -0.5651  1.4493 -0.5588
 1161TIP3   OH227677   6.670   5.557  16.674 -0.2250 -0.4021  0.9331
 1161TIP3    H127678   6.670   5.485  16.612  1.1289  0.1785  0.2244
 1161TIP3    H227679   6.586   5.601  16.660  0.2521 -0.0019 -0.8288
 1162TIP3   OH227680   3.347   1.995  16.870  0.3283 -0.0186 -0.0668
 1162TIP3    H127681   3.417   1.935  16.845  0.2982  1.0013 -2.8459
 1162TIP3    H227682   3.392   2.078  16.889  0.0128  0.1961 -0.2577
 1163TIP3   OH227683   7.454   3.353  16.556 -0.1886 -0.4925 -0.0758
 1163TIP3    H127684   7.447   3.301  16.636 -1.2890 -3.2662 -1.8399
 1163TIP3    H227685   7.546   3.344  16.530  0.1503  0.3365  0.7565
 1164TIP3   OH227686   0.548   7.239  15.980  0.1878 -0.3515  0.0168
 1164TIP3    H127687   0.602   7.279  16.048 -0.4313 -0.9308  0.8743
 1164TIP3    H227688   0.458   7.246  16.014 -0.4163  1.3393 -1.7416
 1165TIP3   OH227689   2.730   5.270  17.211  0.4718 -0.0279  0.0804
 1165TIP3    H127690   2.752   5.363  17.206 -0.1558  0.1394  0.3169
 1165TIP3    H227691   2.806   5.229  17.252  0.4583  0.4834  0.6191
 1166TIP3   OH227692   3.867   0.025  16.335  0.4193 -0.0585  0.1392
 1166TIP3    H127693   3.776   0.053  16.339  0.2036 -0.4557 -1.4016
 1166TIP3    H227694   3.904   0.075  16.262  1.0896 -0.8277 -0.0605
 1167TIP3   OH227695   6.685   5.030  15.917  0.1533  0.3657  0.1732
 1167TIP3    H127696   6.618   4.977  15.961 -0.5188  1.0406 -0.0168
 1167TIP3    H227697   6.691   5.110  15.970  1.2515  0.0634  0.5274
 1168TIP3   OH227698   1.929   6.966  17.062 -0.8460 -0.7699  0.3704
 1168TIP3    H127699   1.985   6.966  17.139 -0.8925 -0.5524  0.4063
 1168TIP3    H227700   1.939   6.878  17.024  2.4458  0.2962 -1.7316
 1169TIP3   OH227701   0.818   3.275  16.170 -0.5361  0.4816  0.0511
 1169TIP3    H127702   0.883   3.205  16.172 -0.6875  0.3515  1.8838
 1169TIP3    H227703   0.870   3.356  16.170 -0.3500  0.4487 -2.5059
 1170TIP3   OH227704   0.534   9.036  17.328  0.3240  0.6609 -0.5452
 1170TIP3    H127705   0.607   8.983  17.360  1.0819  3.1775  2.2155
 1170TIP3    H227706   0.574   9.115  17.292 -0.9697  1.2256 -0.8186
 1171TIP3   OH227707   4.346   4.990  17.585 -0.6274 -0.1800  0.3369
 1171TIP3    H127708   4.325   4.992  17.492 -1.2015  0.7827  0.4803
 1171TIP3    H227709   4.324   5.077  17.617  0.2501 -0.2696  1.2363
 1172TIP3   OH227710   3.868   0.968  17.516  0.1832  0.0566  0.0251
 1172TIP3    H127711   3.894   0.979  17.608 -5.0882  0.0096  1.8289
 1172TIP3    H227712   3.834   1.053  17.490 -1.3498 -0.7287 -0.6985
 1173TIP3   OH227713   0.863   5.382  17.137 -0.8859  0.1411 -0.6608
 1173TIP3    H127714   0.848   5.345  17.224  0.3395  0.3764 -0.3298
 1173TIP3    H227715   0.879   5.475  17.152  1.9210 -0.2322 -0.7898
 1174TIP3   OH227716   5.224   1.714  17.005  0.2888  0.1518 -0.2218
 1174TIP3    H127717   5.221   1.702  17.100  1.0353 -0.3679 -0.2585
 1174TIP3    H227718   5.221   1.809  16.993  1.9128  0.3089  0.3999
 1175TIP3   OH227719   8.475   5.780  17.072 -0.1014  0.2144  0.2919
 1175TIP3    H127720   8.456   5.862  17.117 -1.0255 -0.4857  1.2363
 1175TIP3    H227721   8.554   5.747  17.115  0.6459  0.8906 -0.5182
 1176TIP3   OH227722   4.578   7.272  17.563  0.5001 -0.1988  0.5270
 1176TIP3    H127723   4.659   7.321  17.579 -0.2417  1.3274 -0.1696
 1176TIP3    H227724   4.563   7.223  17.644  1.5423  0.3550  1.0717
 1177TIP3   OH227725   7.062   8.679  16.664 -0.2759 -0.2551 -0.1651
 1177TIP3    H127726   7.106   8.651  16.584 -0.7421  1.3107 -1.0176
 1177TIP3    H227727   7.121   8.654  16.735  0.3779 -1.2171 -1.0371
 1178TIP3   OH227728   3.890   6.960  17.628 -0.1979  0.2413  0.7238
 1178TIP3    H127729   3.823   7.003  17.574  0.2353 -0.6505 -0.5689
 1178TIP3    H227730   3.973   6.993  17.592  0.0996 -0.5766  0.6440
 1179TIP3   OH227731   2.771   7.384  18.134  0.4804  0.6365 -0.4555
 1179TIP3    H127732   2.755   7.324  18.062  0.6790 -0.7694  0.6154
 1179TIP3    H227733   2.771   7.328  18.212  0.4982  2.0643  0.6092
 1180TIP3   OH227734   8.789   1.126  17.016 -0.3718  0.1765  0.2232
 1180TIP3    H127735   8.781   1.150  17.108 -1.1287 -1.4290  0.6160
 1180TIP3    H227736   8.770   1.207  16.968  2.1109  1.5772  1.4383
 1181TIP3   OH227737   0.909   8.584  17.858  0.0070  0.3772 -0.1609
 1181TIP3    H127738   0.820   8.606  17.887 -0.0550 -0.3532  0.2139
 1181TIP3    H227739   0.945   8.667  17.826 -0.8654  0.6453 -0.4689
 1182TIP3   OH227740   6.033   5.456  16.922 -0.6158  0.5650  0.0170
 1182TIP3    H127741   5.952   5.405  16.910  0.0485 -0.5603  0.1579
 1182TIP3    H227742   6.094   5.394  16.962  1.2590  0.4697 -2.7153
 1183TIP3   OH227743   4.963   8.736  16.567 -0.2008  0.3505 -0.4455
 1183TIP3    H127744   4.925   8.702  16.486 -0.4128 -0.2934 -0.0785
 1183TIP3    H227745   4.910   8.698  16.637 -0.3650  1.3459 -0.0164
 1184TIP3   OH227746   5.608   8.318  17.505  0.0487 -0.5265  0.2802
 1184TIP3    H127747   5.646   8.402  17.530 -0.0266  0.1810 -1.7528
 1184TIP3    H227748   5.560   8.288  17.582 -2.6052  2.8547  0.1392
 1185TIP3   OH227749   5.796   1.205  17.728 -0.4524  0.4532  0.2922
 1185TIP3    H127750   5.732   1.145  17.691  0.1842 -1.5849  2.2270
 1185TIP3    H227751   5.860   1.148  17.771  2.6113  2.3624 -1.3345
 1186TIP3   OH227752   3.278   2.204  15.737 -0.0280 -0.2162  0.1597
 1186TIP3    H127753   3.275   2.280  15.679 -1.0591 -0.5695 -0.2629
 1186TIP3    H227754   3.204   2.217  15.797  0.3920 -0.3863  0.7242
 1187TIP3   OH227755   8.493   6.182  15.969  0.1955  0.5379  0.3159
 1187TIP3    H127756   8.464   6.273  15.976  0.3366  0.8801 -2.4902
 1187TIP3    H227757   8.575   6.179  16.017 -0.0514  1.7537  0.8431
 1188TIP3   OH227758   8.710   3.529  17.304  0.5131 -0.1762  0.2098
 1188TIP3    H127759   8.710   3.618  17.269  0.7362  0.2085  1.1420
 1188TIP3    H227760   8.667   3.537  17.389  1.9189 -0.6428  1.0079
 1189TIP3   OH227761   7.393   4.015  17.381  0.1478  0.7154 -0.8842
 1189TIP3    H127762   7.446   3.943  17.414 -2.2177 -0.4588  0.6578
 1189TIP3    H227763   7.442   4.094  17.402  0.6295 -0.2315  1.8751
 1190TIP3   OH227764   1.229   2.424  17.355  0.3936  0.3071  0.6289
 1190TIP3    H127765   1.305   2.480  17.342 -0.1748  0.9025 -0.3184
 1190TIP3    H227766   1.166   2.480  17.400 -0.9933  1.2506 -2.2060
 1191TIP3   OH227767   2.266   8.470  17.843 -0.4352  0.0945  0.2702
 1191TIP3    H127768   2.195   8.415  17.809 -0.9031  1.4983 -1.1190
 1191TIP3    H227769   2.326   8.408  17.885 -2.5622 -1.1411  1.7205
 1192TIP3   OH227770   2.638   2.048  16.756  0.4370 -0.4772  0.7158
 1192TIP3    H127771   2.660   2.138  16.732  0.5534 -0.8537 -0.6706
 1192TIP3    H227772   2.720   2.012  16.789  1.4988 -1.2125 -2.3946
 1193TIP3   OH227773   3.181   5.409  17.518 -0.5304 -0.2079  0.5993
 1193TIP3    H127774   3.208   5.380  17.431 -1.9613  1.8192 -0.6048
 1193TIP3    H227775   3.107   5.352  17.540 -0.9632  0.0686 -0.0904
 1194TIP3   OH227776   1.133   2.189  17.233 -0.0695 -0.4013  0.3882
 1194TIP3    H127777   1.215   2.153  17.199 -0.1267 -0.6679  0.5243
 1194TIP3    H227778   1.157   2.273  17.270  0.8575 -1.9301  3.6377
 1195TIP3   OH227779   8.405   0.509  17.072  0.4012 -0.4957 -0.2835
 1195TIP3    H127780   8.346   0.517  16.997  2.1683 -1.6119 -1.8838
 1195TIP3    H227781   8.478   0.567  17.050  0.3079  0.2676  1.3010
 1196TIP3   OH227782   3.863   3.713  15.756  0.6061  0.1997  0.2797
 1196TIP3    H127783   3.834   3.676  15.672 -3.1087  0.8393  1.1391
 1196TIP3    H227784   3.887   3.637  15.808 -0.3992 -0.4970 -0.2323
 1197TIP3   OH227785   7.464   0.548  17.670  0.0509 -0.0344 -0.3077
 1197TIP3    H127786   7.507   0.469  17.703 -0.9048 -0.3355  0.2559
 1197TIP3    H227787   7.536   0.608  17.651  0.8476 -1.2954 -1.4569
 1198TIP3   OH227788   0.964   5.322  16.802 -0.8969  0.2802  0.1803
 1198TIP3    H127789   0.973   5.415  16.823  1.4341  0.4463 -1.2611
 1198TIP3    H227790   0.930   5.321  16.713 -1.3606 -0.2856  0.3541
 1199TIP3   OH227791   1.172   8.469  16.456  0.8238 -0.1569 -0.4540
 1199TIP3    H127792   1.113   8.545  16.461  0.9756 -0.1002  1.0868
 1199TIP3    H227793   1.116   8.394  16.474  0.7308 -0.3964 -1.6850
 1200TIP3   OH227794   0.040   2.242  16.201  0.3217  0.0793 -0.2265
 1200TIP3    H127795   0.121   2.279  16.167  0.3802  2.0408  1.8207
 1200TIP3    H227796   0.054   2.235  16.296 -0.3100 -3.8094 -0.2295
 1201TIP3   OH227797   0.897   4.074  16.954 -0.2009  0.1821  0.1739
 1201TIP3    H127798   0.846   4.104  17.030 -0.2497  0.9539 -0.1516
 1201TIP3    H227799   0.988   4.079  16.982 -0.1330  1.8246 -0.2649
 1202TIP3   OH227800   1.051   8.489  17.281 -0.6199  0.2045  0.3390
 1202TIP3    H127801   1.076   8.487  17.189 -0.1663  0.5562  0.4451
 1202TIP3    H227802   1.104   8.420  17.321 -0.5923  0.2530  0.3855
 1203TIP3   OH227803   0.808   6.817  16.692  0.6054 -0.2471  0.4847
 1203TIP3    H127804   0.789   6.771  16.610  1.3168 -0.0157  0.1939
 1203TIP3    H227805   0.835   6.747  16.752  2.5642 -0.1314 -0.2169
 1204TIP3   OH227806   7.906   8.577  17.440 -0.5629 -0.2495  0.3580
 1204TIP3    H127807   7.829   8.565  17.385  0.3249 -1.4076 -0.7018
 1204TIP3    H227808   7.939   8.664  17.416 -0.5803 -0.4583 -0.4515
 1205TIP3   OH227809   5.228   4.939  17.349  0.5511  0.3460  0.2024
 1205TIP3    H127810   5.290   5.002  17.385  1.4602 -0.3618 -0.0807
 1205TIP3    H227811   5.204   4.975  17.263 -0.6467  1.3980  0.9432
 1206TIP3   OH227812   6.199   7.940  16.389 -0.1348  0.1859  0.1193
 1206TIP3    H127813   6.230   7.901  16.307 -1.2807 -0.1780 -0.1698
 1206TIP3    H227814   6.165   7.865  16.439 -1.5933  0.6638 -0.0868
 1207TIP3   OH227815   5.380   8.996  16.110  0.3747 -0.5020  0.2242
 1207TIP3    H127816   5.347   8.912  16.143 -0.4026 -0.4142 -0.2899
 1207TIP3    H227817   5.347   9.061  16.172  1.3988 -0.6070  0.9066
 1208TIP3   OH227818   2.904   0.015  16.124 -0.1335 -0.1095 -0.7112
 1208TIP3    H127819   2.930  -0.041  16.197 -1.3608 -0.3806 -0.4655
 1208TIP3    H227820   2.946  -0.025  16.047  0.9088  0.0024 -0.2144
 1209TIP3   OH227821   5.921   8.623  17.256  0.2911 -0.3522 -0.0967
 1209TIP3    H127822   5.940   8.533  17.232  2.5107  0.0835 -0.1855
 1209TIP3    H227823   5.983   8.643  17.326 -0.2189  1.0833 -0.0126
 1210TIP3   OH227824   6.409   8.650  16.720  0.0923  0.5043  0.2875
 1210TIP3    H127825   6.338   8.694  16.767 -1.0525  1.0225 -1.8013
 1210TIP3    H227826   6.398   8.678  16.629  0.9185 -2.0986 -0.6896
 1211TIP3   OH227827   6.172   5.594  17.379 -0.0820  0.3294 -0.0847
 1211TIP3    H127828   6.238   5.547  17.430 -1.1159 -0.2913  0.7526
 1211TIP3    H227829   6.097   5.534  17.379 -0.8758  1.3082 -0.3916
 1212TIP3   OH227830   1.398   0.142  17.323 -0.0515 -0.3734 -0.0771
 1212TIP3    H127831   1.374   0.228  17.288 -1.0618 -0.2145  0.9216
 1212TIP3    H227832   1.331   0.083  17.288  1.2463 -0.9902 -1.6234
 1213TIP3   OH227833   2.259   5.223  17.009 -0.0102  0.3050 -0.0252
 1213TIP3    H127834   2.249   5.149  17.069  0.9041  0.5074  0.3891
 1213TIP3    H227835   2.341   5.206  16.964 -0.3388  0.5206 -0.7150
 1214TIP3   OH227836   7.519   4.475  17.336  0.0262  0.3441  0.3953
 1214TIP3    H127837   7.553   4.385  17.343 -1.8025 -0.4654 -0.5756
 1214TIP3    H227838   7.591   4.524  17.297  0.5278 -1.0412 -0.5004
 1215TIP3   OH227839   8.337   0.918  17.314  0.2266  0.5021 -0.5773
 1215TIP3    H127840   8.312   0.826  17.325 -1.7531  0.9753 -0.7132
 1215TIP3    H227841   8.418   0.927  17.362 -0.3259 -0.9877  0.7026
 1216TIP3   OH227842   5.591   0.695  16.272 -0.0253  0.7043 -0.1851
 1216TIP3    H127843   5.573   0.627  16.207 -0.4420 -0.3531  0.9802
 1216TIP3    H227844   5.687   0.705  16.269  0.5264 -2.4799  1.9437
 1217TIP3   OH227845   4.542   5.512  17.556 -0.4411 -0.1874  0.3282
 1217TIP3    H127846   4.465   5.476  17.598  0.2057 -1.4826  0.4589
 1217TIP3    H227847   4.602   5.437  17.547 -0.0108  0.3407 -1.6231
 1218TIP3   OH227848   4.378   5.932  17.741  0.7891  0.1277 -0.2279
 1218TIP3    H127849   4.420   5.876  17.675  0.0240  0.4949 -1.0445
 1218TIP3    H227850   4.449   5.958  17.799  1.5076 -0.0904 -0.9880
 1219TIP3   OH227851   0.397   8.971  15.868 -0.2789 -0.1076 -0.1710
 1219TIP3    H127852   0.418   8.880  15.850  0.7003 -0.6030  2.8801
 1219TIP3    H227853   0.307   8.970  15.899  0.3944 -0.4385  1.9137
 1220TIP3   OH227854   1.397   2.361  16.320  0.4421 -0.2636  0.1760
 1220TIP3    H127855   1.409   2.348  16.414 -0.6426 -0.1319  0.3399
 1220TIP3    H227856   1.405   2.456  16.309 -1.0623 -0.0776  0.4062
 1221TIP3   OH227857   2.222   0.465  16.351  0.4290 -0.0071 -0.0210
 1221TIP3    H127858   2.209   0.422  16.266 -1.5113  0.9349 -0.2676
 1221TIP3    H227859   2.174   0.411  16.413  1.4368 -0.4241  0.4127
 1222TIP3   OH227860   0.607   9.151  15.943  0.5912 -0.9141 -0.0386
 1222TIP3    H127861   0.607   9.245  15.962 -0.0609 -0.5281 -1.7736
 1222TIP3    H227862   0.515   9.127  15.939  0.5257 -0.6531 -3.7021
 1223TIP3   OH227863   8.834   4.338  17.252  0.4846 -0.3679 -0.4102
 1223TIP3    H127864   8.784   4.389  17.317 -0.1561  0.0596 -1.2114
 1223TIP3    H227865   8.767   4.293  17.201  1.0281 -1.7016  0.0020
 1224TIP3   OH227866   7.341   9.153  15.863 -0.1389 -0.1503 -0.2002
 1224TIP3    H127867   7.411   9.129  15.924 -1.6759 -3.3956  0.4679
 1224TIP3    H227868   7.323   9.072  15.815 -2.0141  1.1740 -1.8540
 1225TIP3   OH227869   1.447   4.579  17.326  0.2778  0.3372 -0.1023
 1225TIP3    H127870   1.405   4.658  17.293  2.5642  1.7403  0.1285
 1225TIP3    H227871   1.387   4.508  17.302 -0.0694  1.6536 -3.8611
 1226TIP3   OH227872   8.617   6.560  16.913 -0.6675 -0.0755 -0.3373
 1226TIP3    H127873   8.596   6.531  16.824 -2.6103  3.3266 -1.1734
 1226TIP3    H227874   8.708   6.590  16.909 -0.8767  0.4514 -1.3366
 1227TIP3   OH227875   4.299   4.698  17.616  0.2259 -0.0583  0.0570
 1227TIP3    H127876   4.304   4.793  17.627 -2.6117  0.1621  0.1914
 1227TIP3    H227877   4.256   4.686  17.531  0.1635 -1.2163  0.2365
 1228TIP3   OH227878   5.098   2.786  17.001 -0.3137  0.3419 -0.2599
 1228TIP3    H127879   5.002   2.784  17.011 -0.1848 -2.1699  1.7003
 1228TIP3    H227880   5.114   2.742  16.918 -0.8517  0.2354 -0.3165
 1229TIP3   OH227881   6.250   4.314  17.166 -0.0541  0.0127 -0.6450
 1229TIP3    H127882   6.215   4.403  17.171  0.5776  0.3584 -1.9376
 1229TIP3    H227883   6.212   4.269  17.242 -0.1867  1.4362  0.1697
 1230TIP3   OH227884   9.118   8.743  17.925 -0.1393 -0.1486 -0.1743
 1230TIP3    H127885   9.206   8.781  17.925  1.5348 -3.6510  0.1915
 1230TIP3    H227886   9.076   8.781  18.003  1.2720  1.0760  0.0381
 1231TIP3   OH227887   4.115   0.779  17.036  0.0478 -0.4070 -0.0746
 1231TIP3    H127888   4.092   0.846  17.100 -2.0560 -1.7024  0.6276
 1231TIP3    H227889   4.103   0.822  16.951  0.8877  0.7260  0.3576
 1232TIP3   OH227890   2.988   6.513  17.884  0.3599  0.3253 -0.3931
 1232TIP3    H127891   3.032   6.428  17.892 -0.4284 -0.0540 -0.0433
 1232TIP3    H227892   2.988   6.531  17.790  1.1997  0.3025 -0.4094
 1233TIP3   OH227893   6.961   3.806  17.879  0.3959  0.2920 -0.0944
 1233TIP3    H127894   7.042   3.816  17.830 -0.0610 -1.3581 -1.2878
 1233TIP3    H227895   6.971   3.723  17.926 -1.4419 -1.2365 -2.1680
 1234TIP3   OH227896   0.835   0.796  17.394 -0.3733  0.1853 -0.2409
 1234TIP3    H127897   0.923   0.766  17.419 -0.6039 -1.8098 -1.5614
 1234TIP3    H227898   0.776   0.738  17.443 -0.9294  0.7476 -0.2453
 1235TIP3   OH227899   5.838   7.149  17.617  0.5703  0.6034  0.5350
 1235TIP3    H127900   5.773   7.152  17.546  1.3478 -1.4079 -0.3295
 1235TIP3    H227901   5.789   7.175  17.695 -1.6501 -1.8341  0.1045
 1236TIP3   OH227902   6.906   2.316  16.447 -0.1096  0.1014 -0.3575
 1236TIP3    H127903   6.876   2.403  16.422  0.2631  0.2275 -0.3716
 1236TIP3    H227904   6.878   2.307  16.538 -0.4877  0.0808 -0.4711
 1237TIP3   OH227905   4.199   4.773  16.770  0.3855  0.0978 -0.1277
 1237TIP3    H127906   4.133   4.801  16.706 -0.8319  0.2752  1.1554
 1237TIP3    H227907   4.173   4.685  16.796 -1.1648  1.1991  2.5378
 1238TIP3   OH227908   2.867   2.220  17.070 -0.2177 -0.7542 -0.1533
 1238TIP3    H127909   2.844   2.143  17.017  1.3394 -0.4660 -1.3260
 1238TIP3    H227910   2.787   2.241  17.117 -1.4931 -1.4666 -1.8668
 1239TIP3   OH227911   1.757   0.618  16.881 -0.2613 -0.4262  0.0947
 1239TIP3    H127912   1.825   0.574  16.933  0.2746  0.5020  0.2027
 1239TIP3    H227913   1.703   0.546  16.847 -0.6682 -1.0693  1.9798
 1240TIP3   OH227914   1.009   7.123  16.476 -0.1431  0.5817  0.1500
 1240TIP3    H127915   1.037   7.064  16.546  1.0381  1.0641  0.1073
 1240TIP3    H227916   0.938   7.174  16.514  0.8053  1.1756  1.1858
 1241TIP3   OH227917   9.020   8.479  17.606 -0.2841  0.1148 -0.2936
 1241TIP3    H127918   9.086   8.459  17.540  0.9989 -0.9443  1.2392
 1241TIP3    H227919   9.031   8.411  17.673 -1.6150  1.0605  0.9565
 1242TIP3   OH227920   7.414   4.790  16.811  0.0432  0.2950 -0.2021
 1242TIP3    H127921   7.474   4.778  16.885 -1.8750  0.5323  1.4891
 1242TIP3    H227922   7.444   4.728  16.745  0.9937 -0.9526  1.3263
 1243TIP3   OH227923   6.206   7.131  16.042  0.1121  0.5002 -0.0147
 1243TIP3    H127924   6.217   7.125  15.947 -1.1526  0.8346 -0.2047
 1243TIP3    H227925   6.158   7.051  16.065  1.5663 -0.2404  0.5557
 1244TIP3   OH227926   6.665   1.256  17.605  0.5148  0.2522  0.2108
 1244TIP3    H127927   6.677   1.346  17.635  0.1356  0.3349  0.1236
 1244TIP3    H227928   6.636   1.265  17.514  3.3757 -0.0276 -0.8411
 1245TIP3   OH227929   3.835   9.091  16.893  0.4520 -0.2576  0.3444
 1245TIP3    H127930   3.773   9.069  16.823 -0.7711 -2.1339  1.9179
 1245TIP3    H227931   3.921   9.076  16.853  0.0044  2.0385 -1.7678
 1246TIP3   OH227932   4.834   1.353  17.059  0.2513  0.1507  0.1375
 1246TIP3    H127933   4.813   1.406  16.982  0.0033  2.9391  1.9947
 1246TIP3    H227934   4.923   1.322  17.042 -0.4684 -0.9488 -2.0612
 1247TIP3   OH227935   4.361   6.014  16.873  0.5855 -0.6674 -0.4133
 1247TIP3    H127936   4.274   6.050  16.891  1.3846  1.0464  0.1682
 1247TIP3    H227937   4.369   6.016  16.778  1.0403  1.8716 -0.3759
 1248TIP3   OH227938   8.785   7.447  17.707 -0.3999 -0.3957 -0.0505
 1248TIP3    H127939   8.851   7.403  17.653 -0.2202  0.1860 -0.3179
 1248TIP3    H227940   8.701   7.423  17.668 -0.2282  0.9831 -1.3613
 1249TIP3   OH227941   0.360   1.618  16.987 -0.5589 -0.5758  0.0121
 1249TIP3    H127942   0.449   1.648  17.007 -1.1586  0.4957  1.1701
 1249TIP3    H227943   0.373   1.543  16.930  1.0638  0.7209 -1.4499
 1250TIP3   OH227944   5.651   0.913  16.922 -0.4977  0.1103  0.5753
 1250TIP3    H127945   5.646   0.995  16.873  1.7373 -0.4591 -0.7410
 1250TIP3    H227946   5.672   0.939  17.011  2.7717  0.9856 -0.3254
 1251TIP3   OH227947   4.690   7.195  16.606  0.0388 -0.3922 -0.5717
 1251TIP3    H127948   4.609   7.149  16.630  1.1308 -1.6871  0.8835
 1251TIP3    H227949   4.730   7.139  16.539 -0.5072  0.5240 -1.6817
 1252TIP3   OH227950   4.771   7.033  16.043 -0.0019  0.5022  0.1163
 1252TIP3    H127951   4.677   7.021  16.033  0.0834 -0.0121 -0.0883
 1252TIP3    H227952   4.790   7.113  15.993  0.0734 -0.8336 -2.1437
 1253TIP3   OH227953   2.440   4.431  17.001  0.0493  0.3548 -0.0326
 1253TIP3    H127954   2.392   4.412  17.082  0.2026  0.5717  0.1099
 1253TIP3    H227955   2.506   4.495  17.027 -0.4676  1.1000 -0.5075
 1254TIP3   OH227956   6.227   5.771  16.334 -0.3852 -0.4442 -0.4332
 1254TIP3    H127957   6.144   5.726  16.349  0.1525 -1.4489 -0.3955
 1254TIP3    H227958   6.214   5.819  16.252 -1.8183  1.4189  0.7653
 1255TIP3   OH227959   8.549   2.633  17.086  0.2648  0.2461  0.0150
 1255TIP3    H127960   8.567   2.611  17.177 -0.4559  1.9720  0.6202
 1255TIP3    H227961   8.454   2.638  17.080  0.1621 -1.9054 -1.3969
 1256TIP3   OH227962   0.016   5.090  16.742  0.5408 -0.2146  0.1816
 1256TIP3    H127963  -0.044   5.094  16.816 -0.7132 -3.2821 -0.5007
 1256TIP3    H227964   0.076   5.019  16.764  1.2827  0.0288 -0.9620
 1257TIP3   OH227965   3.452   2.387  17.627  0.7072  0.6270  0.2155
 1257TIP3    H127966   3.478   2.430  17.546  0.9841 -0.6722 -0.4207
 1257TIP3    H227967   3.534   2.373  17.675  0.5852  1.0543  0.5627
 1258TIP3   OH227968   5.026   3.407  17.612 -0.1791  0.5002 -0.1240
 1258TIP3    H127969   4.943   3.366  17.635 -0.6570  0.9930 -0.8969
 1258TIP3    H227970   5.015   3.500  17.635  0.3655  0.4640  0.2971
 1259TIP3   OH227971   6.922   0.892  16.736 -0.3084  0.2603 -0.3288
 1259TIP3    H127972   6.940   0.912  16.644  0.7085  0.8716 -0.0070
 1259TIP3    H227973   6.992   0.935  16.785 -2.0559  1.8561  0.9028
 1260TIP3   OH227974   1.678   1.394  16.408 -0.0742 -0.1925  0.2013
 1260TIP3    H127975   1.694   1.398  16.313  0.4681  0.1090  0.2995
 1260TIP3    H227976   1.649   1.304  16.423  1.0696 -0.6372 -0.0769
 1261TIP3   OH227977   9.139   3.711  16.247 -0.4530 -0.1343 -0.0930
 1261TIP3    H127978   9.221   3.761  16.246 -0.2814 -0.4196 -0.5779
 1261TIP3    H227979   9.167   3.620  16.240 -0.7031 -0.4009  1.8155
 1262TIP3   OH227980   6.568   5.864  16.358 -0.4345  0.0836  0.3515
 1262TIP3    H127981   6.490   5.919  16.366 -1.1697 -0.8346 -0.3034
 1262TIP3    H227982   6.641   5.924  16.370 -1.1797  1.4050 -1.3327
 1263TIP3   OH227983   4.845   6.791  16.515 -0.2809  0.1089  0.0196
 1263TIP3    H127984   4.902   6.757  16.447 -1.6287 -3.1414  0.3228
 1263TIP3    H227985   4.764   6.813  16.469 -0.6345 -0.5453  0.3139
 1264TIP3   OH227986   5.309   6.799  16.492  0.4080  0.0435 -0.1294
 1264TIP3    H127987   5.268   6.876  16.451  1.2881  0.8188  0.4169
 1264TIP3    H227988   5.240   6.733  16.491 -0.4697  0.9285 -0.3486
 1265TIP3   OH227989   4.299   1.174  17.840  0.2862 -0.2230  0.3122
 1265TIP3    H127990   4.244   1.099  17.863 -0.3510 -0.0649 -0.6169
 1265TIP3    H227991   4.275   1.194  17.749  2.1704 -0.3832 -0.2543
 1266TIP3   OH227992   4.137   6.299  16.783  0.2644  0.1958 -0.0128
 1266TIP3    H127993   4.050   6.325  16.752  0.7629  1.6460 -0.2705
 1266TIP3    H227994   4.133   6.312  16.878 -0.0253 -0.4992  0.0823
 1267TIP3   OH227995   5.625   3.358  16.535 -0.0228 -0.3486  0.1714
 1267TIP3    H127996   5.642   3.304  16.612  2.5829  1.8509  1.3144
 1267TIP3    H227997   5.687   3.327  16.470 -1.9552 -1.9383 -1.0306
 1268TIP3   OH227998   2.489   4.801  16.949 -0.1857  0.3261 -0.7934
 1268TIP3    H127999   2.546   4.754  17.010 -0.4334 -1.4177 -1.8181
 1268TIP3    H228000   2.401   4.768  16.968 -0.3989  0.5105 -1.4126
 1269TIP3   OH228001   7.460   7.691  16.658 -0.2089  0.2299 -0.1391
 1269TIP3    H128002   7.381   7.721  16.613 -0.3493 -0.8780 -0.6541
 1269TIP3    H228003   7.524   7.675  16.588  0.0925  0.0120  0.1812
 1270TIP3   OH228004   3.394   6.323  15.967  0.1643 -0.2888 -0.3076
 1270TIP3    H128005   3.336   6.395  15.944  0.7705  0.5179  0.5847
 1270TIP3    H228006   3.338   6.259  16.010 -0.0014  0.7587  1.1091
 1271TIP3   OH228007   6.493   2.151  16.305  0.1502  0.2024  0.2145
 1271TIP3    H128008   6.409   2.190  16.327 -1.3038 -1.3193 -2.1695
 1271TIP3    H228009   6.532   2.211  16.242 -1.3178 -1.1744 -2.1531
 1272TIP3   OH228010   8.060   7.150  17.126  0.5445  0.8103 -0.1021
 1272TIP3    H128011   8.048   7.061  17.093  2.0736 -0.0695  1.5251
 1272TIP3    H228012   8.066   7.204  17.048  1.2800 -0.7758 -1.1938
 1273TIP3   OH228013   9.042   7.127  16.127  0.2712  0.5203 -0.0495
 1273TIP3    H128014   8.964   7.183  16.128  0.1079  0.4776  3.8405
 1273TIP3    H228015   9.113   7.186  16.104 -0.1763  2.0013  2.0886
 1274TIP3   OH228016   4.205   7.776  16.935 -0.0371  0.2266  0.1540
 1274TIP3    H128017   4.293   7.773  16.972 -0.6690 -0.9874  1.6734
 1274TIP3    H228018   4.218   7.756  16.842  1.4548  1.9764 -0.0786
 1275TIP3   OH228019   3.971   1.870  16.716  0.0838 -0.0251  0.4796
 1275TIP3    H128020   3.998   1.860  16.808 -3.5700  0.0885  1.7302
 1275TIP3    H228021   4.011   1.952  16.688 -0.2178  0.9488  2.6670
 1276TIP3   OH228022   1.670   7.071  16.263 -0.4849 -0.4425 -0.1283
 1276TIP3    H128023   1.716   7.153  16.249 -0.0898 -0.7529 -0.6854
 1276TIP3    H228024   1.577   7.094  16.257 -0.4034  0.0947  0.5125
 1277TIP3   OH228025   5.847   2.240  17.220  0.8652 -0.2563 -0.3556
 1277TIP3    H128026   5.778   2.301  17.194  0.8757 -0.2016 -0.2554
 1277TIP3    H228027   5.828   2.220  17.312 -1.0238 -2.9063 -1.1975
 1278TIP3   OH228028   9.024   0.011  18.034 -0.4025 -0.4995 -0.4599
 1278TIP3    H128029   8.987  -0.036  17.960 -1.3617 -0.6221  0.0882
 1278TIP3    H228030   8.966   0.086  18.047  1.3562  1.1496 -1.6111
 1279TIP3   OH228031   5.567   0.570  18.147 -0.7662  0.1655 -0.5724
 1279TIP3    H128032   5.526   0.552  18.062  0.8772  1.2638 -1.6672
 1279TIP3    H228033   5.529   0.654  18.174 -0.6552  0.2449 -0.6589
 1280TIP3   OH228034   1.127   2.612  17.587 -0.2351 -0.3122 -0.1635
 1280TIP3    H128035   1.037   2.635  17.607 -0.8809 -1.6527 -1.3740
 1280TIP3    H228036   1.141   2.527  17.630 -0.3422 -1.2481 -1.9066
 1281TIP3   OH228037   8.801   4.394  16.159 -0.3040 -0.1468 -0.1367
 1281TIP3    H128038   8.716   4.353  16.174 -0.5935  0.0051 -1.3082
 1281TIP3    H228039   8.858   4.355  16.225 -1.2179 -0.4207  0.5124
 1282TIP3   OH228040   3.783   4.975  16.468  0.1398 -0.2353 -0.0889
 1282TIP3    H128041   3.869   4.978  16.426 -0.1661 -2.1081 -0.9672
 1282TIP3    H228042   3.757   4.883  16.463 -1.0039 -0.1008  2.0860
 1283TIP3   OH228043   5.419   7.651  17.133  0.4549  0.2503 -0.0944
 1283TIP3    H128044   5.349   7.681  17.191  0.4564 -0.1123  0.0997
 1283TIP3    H228045   5.499   7.659  17.186  0.3303 -1.0263  0.3085
 1284TIP3   OH228046   5.031   4.252  16.685  0.2406  0.5184  0.0595
 1284TIP3    H128047   4.973   4.207  16.746  1.4396 -3.0341 -1.1726
 1284TIP3    H228048   4.984   4.254  16.602  0.3992  1.1603 -0.0263
 1285TIP3   OH228049   6.791   3.987  17.701 -0.3969 -0.5535 -0.2580
 1285TIP3    H128050   6.820   3.972  17.791 -1.9388  0.7967  0.5180
 1285TIP3    H228051   6.818   3.908  17.654  0.7084 -1.1644  1.3031
 1286TIP3   OH228052   3.215   4.664  16.401 -0.0824 -0.3205 -0.1777
 1286TIP3    H128053   3.290   4.679  16.458 -0.3103 -0.3263  0.1239
 1286TIP3    H228054   3.185   4.751  16.376  0.3495 -0.3262 -0.7269
 1287TIP3   OH228055   3.837   2.762  17.024  0.2482  0.2972 -0.4338
 1287TIP3    H128056   3.784   2.797  16.952  0.0858  0.2886 -0.3176
 1287TIP3    H228057   3.775   2.711  17.077 -0.2242  2.3773  1.1591
 1288TIP3   OH228058   1.303   8.749  17.434  0.3278  0.5535  0.3010
 1288TIP3    H128059   1.266   8.750  17.346  0.7832 -0.6855  0.0733
 1288TIP3    H228060   1.377   8.810  17.429  0.2044  0.6740 -0.1039
 1289TIP3   OH228061   6.402   3.716  16.019  0.2128 -0.0349 -0.3251
 1289TIP3    H128062   6.487   3.672  16.025 -0.1487 -0.9765 -1.5996
 1289TIP3    H228063   6.423   3.809  16.014  1.1994 -0.2691 -0.8039
 1290TIP3   OH228064   0.338   8.418  17.058 -0.4077  0.2083  0.1060
 1290TIP3    H128065   0.367   8.462  16.978  0.4257 -1.1289 -0.3544
 1290TIP3    H228066   0.327   8.327  17.032 -0.0589 -0.2624  1.5509
 1291TIP3   OH228067   2.413   0.029  17.376 -0.0885 -0.1812 -0.0152
 1291TIP3    H128068   2.392   0.101  17.435  1.0926  0.2864 -0.1385
 1291TIP3    H228069   2.508   0.016  17.387 -0.2126 -1.4454 -0.2932
 1292TIP3   OH228070   4.961   6.226  17.827 -0.1645  0.6180  0.1752
 1292TIP3    H128071   4.995   6.277  17.900 -0.3696  1.9234 -0.6140
 1292TIP3    H228072   5.032   6.164  17.806  0.7016  1.5745  0.2021
 1293TIP3   OH228073   7.679   1.980  16.700 -0.1213  0.4690  0.0399
 1293TIP3    H128074   7.729   2.011  16.776  1.5964  0.0608 -0.8917
 1293TIP3    H228075   7.624   2.055  16.677  0.7610  1.2894  0.5035
 1294TIP3   OH228076   4.980   3.237  17.368 -0.5784  0.2764 -0.3310
 1294TIP3    H128077   5.006   3.172  17.303 -1.4356  1.5254 -2.0288
 1294TIP3    H228078   5.063   3.275  17.398 -0.1723 -0.0924 -0.9515
 1295TIP3   OH228079   6.573   3.138  17.858  0.1105 -0.4160  0.3483
 1295TIP3    H128080   6.643   3.078  17.836 -1.1304 -1.9217  0.3160
 1295TIP3    H228081   6.617   3.215  17.894  1.7344 -1.7578  1.3756
 1296TIP3   OH228082   1.465   0.179  16.594  0.3869  0.3984 -0.0948
 1296TIP3    H128083   1.451   0.228  16.513  1.7431  0.1296 -0.5186
 1296TIP3    H228084   1.447   0.088  16.570 -1.0774  0.5136  0.4217
 1297TIP3   OH228085   2.123   3.547  16.148  0.0144  0.2914  0.5080
 1297TIP3    H128086   2.094   3.459  16.123 -0.6372  0.9761 -1.3000
 1297TIP3    H228087   2.205   3.559  16.100 -0.1810  0.8792  0.3222
 1298TIP3   OH228088   6.393   6.090  16.378  0.6283  0.1055  0.4707
 1298TIP3    H128089   6.308   6.133  16.384  0.6653  0.7368 -2.3333
 1298TIP3    H228090   6.454   6.155  16.414  0.4829  1.9686 -2.3040
 1299TIP3   OH228091   4.174   2.784  17.419  0.2067  0.3516 -0.1109
 1299TIP3    H128092   4.107   2.762  17.354  0.9289  1.7170 -1.3922
 1299TIP3    H228093   4.229   2.706  17.425 -0.2650 -0.0293 -0.6223
 1300TIP3   OH228094   0.765   6.962  16.060  0.3396 -0.7379 -0.4006
 1300TIP3    H128095   0.696   6.954  15.994  1.4172 -1.3604 -1.4859
 1300TIP3    H228096   0.799   7.051  16.049  0.0057 -0.5735 -0.1421
 1301TIP3   OH228097   5.786   0.093  16.208  0.0835 -0.3267 -0.3865
 1301TIP3    H128098   5.773   0.172  16.260 -0.9694 -0.4555 -0.4272
 1301TIP3    H228099   5.702   0.046  16.214  0.7601 -1.5414 -0.1968
 1302TIP3   OH228100   2.806   3.640  15.979 -0.3671 -0.1471  0.0922
 1302TIP3    H128101   2.846   3.619  15.894  0.9410  0.0016  0.6381
 1302TIP3    H228102   2.812   3.735  15.985 -0.9351 -0.1135  0.1262
 1303TIP3   OH228103   8.600   0.678  17.025  0.1538  0.2350  0.0554
 1303TIP3    H128104   8.630   0.755  17.073  0.7036  0.9669 -1.4055
 1303TIP3    H228105   8.661   0.670  16.951  0.2732 -1.7645  0.3131
 1304TIP3   OH228106   7.559   8.310  16.165  0.1976 -0.2264 -0.2003
 1304TIP3    H128107   7.528   8.386  16.116 -1.2001  0.4653  1.6363
 1304TIP3    H228108   7.489   8.246  16.156 -0.9542  0.5709  2.2586
 1305TIP3   OH228109   3.899   4.585  16.590 -0.2101 -0.3494 -0.1653
 1305TIP3    H128110   3.984   4.554  16.558  0.3808  0.1532  0.8735
 1305TIP3    H228111   3.868   4.515  16.647 -1.6845 -1.6560 -2.4050
 1306TIP3   OH228112   2.032   3.065  16.626 -0.1512  0.0889  0.1901
 1306TIP3    H128113   2.021   3.043  16.533 -0.2132  2.3208 -0.4086
 1306TIP3    H228114   1.981   3.145  16.637  1.2168  0.7992  1.7210
 1307TIP3   OH228115   6.637   1.715  16.741  0.2715  0.0651  0.2321
 1307TIP3    H128116   6.618   1.752  16.655  0.5725  0.3772  0.2999
 1307TIP3    H228117   6.627   1.789  16.801  3.3274  0.7014  0.1123
 1308TIP3   OH228118   3.387   2.919  17.632  0.4388  0.1689  0.2987
 1308TIP3    H128119   3.321   2.944  17.697  1.6185  0.8469  1.2835
 1308TIP3    H228120   3.411   3.001  17.589 -0.0224 -0.2144 -0.7043
 1309TIP3   OH228121   1.977   2.048  16.366 -0.5288  0.0846 -0.6830
 1309TIP3    H128122   2.039   1.978  16.385  0.1088  0.5955 -0.8411
 1309TIP3    H228123   1.910   2.041  16.435  0.2074  0.1144  0.0438
 1310TIP3   OH228124   5.436   3.148  17.885 -0.0524  0.3834  0.0205
 1310TIP3    H128125   5.381   3.196  17.824  0.1788  1.3482  0.5511
 1310TIP3    H228126   5.523   3.149  17.845  0.6414  3.0558  1.3917
 1311TIP3   OH228127   0.591   3.119  16.134 -0.0579 -0.5675  0.2558
 1311TIP3    H128128   0.616   3.044  16.187  1.1376  0.1246  0.7075
 1311TIP3    H228129   0.669   3.175  16.133 -0.7064  0.3564 -0.6101
 1312TIP3   OH228130   2.197   5.659  16.348 -0.4401 -0.0563 -0.0151
 1312TIP3    H128131   2.232   5.725  16.288  3.1948 -0.9452  0.8713
 1312TIP3    H228132   2.203   5.701  16.435  0.4516 -0.9616  0.3798
 1313TIP3   OH228133   7.584   4.049  16.893 -0.0156 -0.0314 -0.0988
 1313TIP3    H128134   7.529   3.993  16.838 -0.7473  0.4012  0.1701
 1313TIP3    H228135   7.627   4.108  16.831 -1.8783  1.3574 -0.1607
 1314TIP3   OH228136   2.584   2.594  17.565 -0.0031 -0.4942 -0.5621
 1314TIP3    H128137   2.518   2.571  17.499  0.8499 -1.9054 -0.9598
 1314TIP3    H228138   2.587   2.689  17.563 -0.2269 -0.4921 -2.3478
 1315TIP3   OH228139   4.043   3.745  16.687 -0.4456 -0.7892 -0.4262
 1315TIP3    H128140   4.112   3.678  16.689  0.0083 -0.3188 -0.2368
 1315TIP3    H228141   4.052   3.791  16.770 -0.3611 -0.0962 -0.8132
 1316TIP3   OH228142   6.380   7.607  16.020  0.0254  0.1178  0.6848
 1316TIP3    H128143   6.369   7.543  16.091  1.4105  0.4960  1.2879
 1316TIP3    H228144   6.345   7.688  16.055 -0.3014  0.0553  0.5073
 1317TIP3   OH228145   7.047   0.433  16.064 -0.0407  0.4759 -0.1876
 1317TIP3    H128146   7.077   0.371  15.997 -1.0261 -0.0934 -0.1238
 1317TIP3    H228147   7.114   0.501  16.065  0.2594  0.2332 -1.3965
 1318TIP3   OH228148   2.129   4.975  17.107  0.6670  0.0710 -0.2550
 1318TIP3    H128149   2.045   4.985  17.064  0.2099 -1.2883  0.2717
 1318TIP3    H228150   2.112   4.994  17.199  1.0680  0.3911 -0.2434
 1319TIP3   OH228151   5.932   2.001  17.609  0.6974  0.0797 -0.0091
 1319TIP3    H128152   5.921   1.926  17.551 -0.7595 -0.8388  1.3870
 1319TIP3    H228153   6.020   1.991  17.645  0.8869 -0.3876 -0.5819
 1320TIP3   OH228154   7.788   4.795  17.805 -0.0061  0.0316 -0.0171
 1320TIP3    H128155   7.743   4.733  17.749  0.8414  0.1137 -0.8099
 1320TIP3    H228156   7.881   4.783  17.784  0.1414  1.9770 -0.6345
 1321TIP3   OH228157   4.853   1.309  18.213 -0.0572  0.0229 -0.3592
 1321TIP3    H128158   4.883   1.317  18.304 -0.0561 -0.2452 -0.3351
 1321TIP3    H228159   4.781   1.246  18.218  0.3409 -0.4520 -0.6391
 1322TIP3   OH228160   4.657   5.752  16.072 -0.0428 -0.0194 -0.5615
 1322TIP3    H128161   4.608   5.671  16.084  0.4370 -0.0773  1.5781
 1322TIP3    H228162   4.731   5.727  16.017  0.2587 -1.1538  0.2990
 1323TIP3   OH228163   4.183   1.343  16.766 -0.6724 -0.0327 -0.0740
 1323TIP3    H128164   4.155   1.272  16.708  1.7799 -2.2758  1.2694
 1323TIP3    H228165   4.144   1.321  16.851  0.2517  0.0789  0.3911
 1324TIP3   OH228166   4.787   8.912  17.519 -0.0502  0.2445  0.3458
 1324TIP3    H128167   4.762   8.890  17.609 -2.1004  0.2515 -0.1720
 1324TIP3    H228168   4.832   8.996  17.526 -0.1387  0.2182  1.3702
 1325TIP3   OH228169   6.234   4.249  16.903  0.0040  0.3348  0.3489
 1325TIP3    H128170   6.280   4.328  16.873 -2.0429  1.3849 -0.2089
 1325TIP3    H228171   6.235   4.256  16.998  0.7808  0.4517  0.3371
 1326TIP3   OH228172   1.713   6.012  17.484  0.0001 -0.2342 -0.4716
 1326TIP3    H128173   1.807   5.995  17.482  0.1969 -0.4338  3.4950
 1326TIP3    H228174   1.674   5.925  17.496 -0.5387  0.0697 -0.0145
 1327TIP3   OH228175   2.492   3.429  16.373  0.1626 -0.8223  0.3258
 1327TIP3    H128176   2.427   3.497  16.389  1.4995  0.0679  2.3070
 1327TIP3    H228177   2.554   3.469  16.312  0.1400 -0.8022  0.3163
 1328TIP3   OH228178   3.426   3.513  16.672 -0.9300 -0.0979  0.7908
 1328TIP3    H128179   3.392   3.529  16.760 -1.4882  1.6034  0.3126
 1328TIP3    H228180   3.349   3.492  16.620 -0.8462  0.6444  0.3548
 1329TIP3   OH228181   7.048   5.255  16.430 -0.0614  0.5138 -1.2946
 1329TIP3    H128182   7.125   5.199  16.420  0.0494  0.3011  0.4480
 1329TIP3    H228183   7.079   5.343  16.408  0.8323  0.5049 -0.1559
 1330TIP3   OH228184   1.362   1.828  16.839 -0.1563  0.5282  0.2852
 1330TIP3    H128185   1.303   1.903  16.839 -0.1305  0.5909 -1.6279
 1330TIP3    H228186   1.304   1.752  16.827 -0.0112  0.4322  0.1901
 1331TIP3   OH228187   7.291   3.634  16.188  0.3291  0.2595  0.4252
 1331TIP3    H128188   7.317   3.721  16.157  0.1104  0.7390  1.5654
 1331TIP3    H228189   7.350   3.616  16.261  0.4204 -0.5877  0.1475
 1332TIP3   OH228190   8.206   2.533  17.555 -0.3232 -0.3764  0.8440
 1332TIP3    H128191   8.256   2.507  17.478 -0.1526  1.1312  0.4025
 1332TIP3    H228192   8.143   2.462  17.569 -0.2632 -0.7381 -0.6043
 1333TIP3   OH228193   3.519   2.492  16.276  0.5022  0.1948 -0.3451
 1333TIP3    H128194   3.540   2.399  16.277 -0.5706 -0.0643  0.2045
 1333TIP3    H228195   3.603   2.536  16.288  0.8627 -0.7588  0.9187
 1334TIP3   OH228196   6.522   0.746  16.837 -0.7877 -0.6395  0.2615
 1334TIP3    H128197   6.586   0.817  16.832 -0.1933 -1.2253 -0.8758
 1334TIP3    H228198   6.442   0.782  16.799  0.3420 -1.4049 -3.1617
 1335TIP3   OH228199   5.057   2.210  16.935 -0.6417  0.3224 -0.1707
 1335TIP3    H128200   4.967   2.178  16.934  0.4179 -3.0459 -1.3315
 1335TIP3    H228201   5.108   2.138  16.971  1.9674  0.7413 -2.6300
 1336TIP3   OH228202   3.890   2.168  17.297 -0.5059  0.0750  0.4859
 1336TIP3    H128203   3.812   2.130  17.256  0.3758 -0.1910 -1.0506
 1336TIP3    H228204   3.915   2.239  17.238 -0.3113  0.9694  1.6369
 1337TIP3   OH228205   1.183   4.936  16.117 -0.2416 -0.3418 -0.0671
 1337TIP3    H128206   1.243   4.862  16.115  1.2115  0.7913 -0.2522
 1337TIP3    H228207   1.125   4.922  16.041  1.0245 -0.5042 -1.0360
 1338TIP3   OH228208   2.090   2.614  17.491 -0.3408  0.0367  0.3219
 1338TIP3    H128209   2.171   2.661  17.511 -0.2605 -0.2161  0.5997
 1338TIP3    H228210   2.119   2.528  17.462 -0.4760  0.2603 -0.4937
 1339TIP3   OH228211   1.769   8.325  16.163  0.2904  0.4041  0.2893
 1339TIP3    H128212   1.714   8.404  16.160 -1.7445 -0.9522 -1.0387
 1339TIP3    H228213   1.840   8.343  16.103  1.9550  2.5465  2.6744
 1340TIP3   OH228214   1.138   1.745  17.701 -0.1282  0.3390  0.0127
 1340TIP3    H128215   1.087   1.823  17.681  1.0088  1.0965 -0.0189
 1340TIP3    H228216   1.229   1.775  17.700  0.3157 -0.9526  0.1631
 1341TIP3   OH228217   5.754   8.121  17.375 -0.3925 -0.1806  0.6231
 1341TIP3    H128218   5.689   8.184  17.407 -0.2948  0.1282  0.2128
 1341TIP3    H228219   5.723   8.096  17.288  0.6411  0.8517 -0.0723
 1342TIP3   OH228220   2.032   1.514  17.752  0.6939 -0.1137 -0.3147
 1342TIP3    H128221   2.103   1.452  17.735 -0.5482 -1.4234 -0.9299
 1342TIP3    H228222   1.959   1.459  17.782 -0.1160  1.1724  0.1306
 1343TIP3   OH228223   1.594   0.292  16.994  0.3134 -0.4932 -0.7387
 1343TIP3    H128224   1.600   0.314  16.901  1.1749 -1.1193 -0.8421
 1343TIP3    H228225   1.637   0.364  17.039  1.2017 -0.8930 -0.9292
 1344TIP3   OH228226   1.472   1.956  17.430 -0.5228  0.1784  0.4168
 1344TIP3    H128227   1.426   1.911  17.359  0.5843 -0.1648 -0.1071
 1344TIP3    H228228   1.436   2.045  17.430  2.2322  1.5543 -3.3775
 1345TIP3   OH228229   0.771   0.617  17.593  0.5667  0.6828 -0.6804
 1345TIP3    H128230   0.722   0.683  17.642 -0.2550 -0.4157  0.0414
 1345TIP3    H228231   0.853   0.607  17.641  0.6516  1.1048 -0.7362
 1346TIP3   OH228232   7.744   2.205  17.946 -0.1871  0.2902 -0.0023
 1346TIP3    H128233   7.654   2.175  17.958  0.5916 -2.4421 -0.1866
 1346TIP3    H228234   7.783   2.197  18.034  0.0489  0.8955 -0.0437
 1347TIP3   OH228235   1.853   7.061  17.649 -0.0027  0.2789 -0.6486
 1347TIP3    H128236   1.761   7.086  17.652  0.1904  1.0341 -0.8128
 1347TIP3    H228237   1.855   6.978  17.602 -0.6860 -0.1746  0.0980
 1348TIP3   OH228238   1.301   1.881  17.247 -0.7627 -0.0750  0.0023
 1348TIP3    H128239   1.306   1.945  17.176 -0.7959  0.6096  0.6078
 1348TIP3    H228240   1.251   1.808  17.210  1.4114 -0.8854 -1.5132
 1349TIP3   OH228241   6.139   4.701  17.748 -0.1943 -0.0299  0.3022
 1349TIP3    H128242   6.222   4.698  17.700 -0.9189 -0.8153 -0.9478
 1349TIP3    H228243   6.095   4.780  17.715 -0.4598 -0.2725  0.0753
 1350TIP3   OH228244   5.689   5.777  17.792  0.5629 -0.0152  0.0312
 1350TIP3    H128245   5.723   5.834  17.723  1.1800  0.8612  1.0231
 1350TIP3    H228246   5.613   5.824  17.827  0.1475 -0.5385 -0.1510
 1351TIP3   OH228247   6.660   0.963  16.723  0.1705 -0.3841 -0.1010
 1351TIP3    H128248   6.649   1.046  16.769 -0.6831  0.6702 -2.0770
 1351TIP3    H228249   6.755   0.949  16.722  0.3742  0.8515 -0.1710
 1352TIP3   OH228250   2.960   0.091  16.518 -0.0366  0.2073  0.0151
 1352TIP3    H128251   3.044   0.111  16.559 -0.0546  1.2867 -0.4410
 1352TIP3    H228252   2.978   0.095  16.424 -0.6161  0.5615 -0.0880
 1353TIP3   OH228253   3.793   6.359  17.774 -0.1929 -0.3171 -0.2471
 1353TIP3    H128254   3.846   6.375  17.853 -0.3647  1.0684 -0.3820
 1353TIP3    H228255   3.856   6.369  17.702 -0.2678 -0.4452 -0.3281
 1354TIP3   OH228256   5.365   9.086  15.848 -0.4189 -0.6572 -0.1679
 1354TIP3    H128257   5.383   9.062  15.938 -0.0987  0.1654 -0.0021
 1354TIP3    H228258   5.339   9.004  15.805  0.5831 -1.2673  0.3773
 1355TIP3   OH228259   8.344   6.116  17.440  0.2863 -0.1449  0.2190
 1355TIP3    H128260   8.253   6.135  17.465  0.2152  1.5286 -1.1280
 1355TIP3    H228261   8.397   6.147  17.513 -0.1018  1.4361 -0.1331
 1356TIP3   OH228262   8.132   7.664  17.190  0.0558  1.0753  0.0458
 1356TIP3    H128263   8.129   7.753  17.156  0.2627  0.4298 -1.7548
 1356TIP3    H228264   8.060   7.619  17.147  0.9827 -0.0511 -0.4023
 1357TIP3   OH228265   8.748   8.253  15.762 -0.4947  0.2110 -0.0224
 1357TIP3    H128266   8.712   8.226  15.678  0.2725  1.1046 -0.6587
 1357TIP3    H228267   8.691   8.323  15.792 -1.5151 -0.9429  0.8382
 1358TIP3   OH228268   2.184   0.690  17.667  0.3047  0.0052 -0.0156
 1358TIP3    H128269   2.204   0.716  17.577 -0.3997  1.8662  0.3100
 1358TIP3    H228270   2.094   0.657  17.664  0.6493 -0.9379 -0.1605
 1359TIP3   OH228271   3.298   7.785  16.993  0.3975  1.0194  0.5483
 1359TIP3    H128272   3.230   7.830  17.044 -0.5011  1.0848 -0.6656
 1359TIP3    H228273   3.303   7.697  17.031  0.3029  1.3095  1.2445
 1360TIP3   OH228274   6.885   2.596  16.372  0.1080 -0.6507 -0.4809
 1360TIP3    H128275   6.902   2.563  16.283  0.9934 -0.5561 -0.3536
 1360TIP3    H228276   6.919   2.686  16.370  0.2866 -0.7088  0.0049
 1361TIP3   OH228277   8.146   0.105  16.196  0.3528  0.0032  0.2629
 1361TIP3    H128278   8.188   0.053  16.127  2.5407  0.8957  0.8474
 1361TIP3    H228279   8.110   0.181  16.150 -0.6877 -0.7529 -0.2334
 1362TIP3   OH228280   8.560   1.574  16.339 -0.1412 -0.1662  0.0902
 1362TIP3    H128281   8.611   1.541  16.413 -1.7405 -0.3086  1.1808
 1362TIP3    H228282   8.622   1.576  16.266  1.0874 -1.5298  1.0358
 1363TIP3   OH228283   6.279   1.471  17.129 -0.6570 -0.3441 -0.4103
 1363TIP3    H128284   6.301   1.419  17.051 -0.1852  1.6878 -1.7167
 1363TIP3    H228285   6.185   1.487  17.121 -0.4180  0.8123 -1.2407
 1364TIP3   OH228286   2.160   1.113  17.476 -0.3463  0.3537  0.2787
 1364TIP3    H128287   2.243   1.065  17.481 -1.0781 -0.9661  0.4573
 1364TIP3    H228288   2.185   1.204  17.465  1.2088 -0.3086 -3.5140
 1365TIP3   OH228289   6.045   2.654  18.154 -0.5080  0.0673  0.7604
 1365TIP3    H128290   5.987   2.666  18.229 -2.2155 -2.0038 -0.1184
 1365TIP3    H228291   6.104   2.584  18.180  0.1282  0.6237  0.8310
 1366TIP3   OH228292   3.049   1.430  17.510  0.1395  0.1373  0.4826
 1366TIP3    H128293   3.074   1.340  17.491  0.5547  0.4556 -0.5325
 1366TIP3    H228294   2.963   1.423  17.552  0.0792 -0.7121  0.2369
 1367TIP3   OH228295   0.125   9.014  15.952  0.6743 -0.4815 -0.4462
 1367TIP3    H128296   0.144   9.066  16.031  0.8180 -0.5776 -0.4162
 1367TIP3    H228297   0.085   9.077  15.892  1.2327 -0.2333 -0.5693
 1368TIP3   OH228298   6.051   1.652  17.072  0.5002  0.1201  0.1546
 1368TIP3    H128299   5.976   1.626  17.019 -0.5864  1.4753  0.9411
 1368TIP3    H228300   6.118   1.677  17.009  0.4183 -1.3597 -0.5663
 1369TIP3   OH228301   3.023   6.298  17.111  0.3324  0.2422  0.1723
 1369TIP3    H128302   2.984   6.300  17.198  1.3323  0.7114  0.6340
 1369TIP3    H228303   3.011   6.208  17.080 -0.2811  0.1491  0.6645
 1370TIP3   OH228304   6.163   8.620  17.674  0.5100 -0.2075 -0.0679
 1370TIP3    H128305   6.209   8.660  17.600  1.4119  0.1892  0.6918
 1370TIP3    H228306   6.110   8.691  17.710  2.3539  0.4954  1.4780
 1371TIP3   OH228307   7.610   3.721  16.595  0.3188 -0.1712  0.2305
 1371TIP3    H128308   7.660   3.802  16.598  0.2771 -0.1788  1.6812
 1371TIP3    H228309   7.656   3.662  16.655 -0.8949 -0.4686  0.8983
 1372TIP3   OH228310   4.582   6.724  17.845  0.1276 -0.6095 -0.0748
 1372TIP3    H128311   4.577   6.670  17.924 -1.3784 -0.3880  0.0082
 1372TIP3    H228312   4.578   6.661  17.773 -1.5922 -0.6709  0.0220
 1373TIP3   OH228313   6.844   1.328  16.398  0.0545 -0.4132 -0.3619
 1373TIP3    H128314   6.828   1.290  16.485  0.6999 -1.6472 -0.7520
 1373TIP3    H228315   6.939   1.323  16.388  0.1657  1.3012 -0.4754
 1374TIP3   OH228316   6.259   7.396  16.977 -0.0208 -0.1918 -0.0527
 1374TIP3    H128317   6.295   7.329  16.919  0.4353 -1.1349  1.2795
 1374TIP3    H228318   6.310   7.475  16.956 -0.2362 -0.3659 -1.3012
 1375TIP3   OH228319   7.899   4.233  16.913  0.5568  1.1041 -0.5354
 1375TIP3    H128320   7.835   4.202  16.850 -0.7167  0.0786  1.1714
 1375TIP3    H228321   7.872   4.323  16.932 -0.4031  0.6844  0.1612
 1376TIP3   OH228322   0.466   6.863  16.921 -0.3977  0.3849  0.1265
 1376TIP3    H128323   0.395   6.924  16.903 -0.6255 -0.2603 -1.2530
 1376TIP3    H228324   0.543   6.903  16.879  0.3261  1.5449  2.3839
 1377TIP3   OH228325   8.386   2.813  18.127 -0.5074  0.2339  0.2585
 1377TIP3    H128326   8.407   2.853  18.043 -0.2779  0.8254  0.5975
 1377TIP3    H228327   8.443   2.856  18.189 -0.0937 -0.7789  0.5965
 1378TIP3   OH228328   3.789   3.313  16.309 -0.1844 -0.1454 -0.5238
 1378TIP3    H128329   3.730   3.313  16.234 -1.9914  1.5109  0.7743
 1378TIP3    H228330   3.756   3.384  16.365  4.6118  2.7623 -0.8597
 1379TIP3   OH228331   8.797   2.043  16.256  0.2804 -0.1030 -0.7791
 1379TIP3    H128332   8.875   2.047  16.201  0.2630 -2.1326 -1.0047
 1379TIP3    H228333   8.731   2.000  16.201 -0.2486 -0.6172  0.2383
 1380TIP3   OH228334   0.424   4.684  16.342 -0.3167  0.1426 -0.0879
 1380TIP3    H128335   0.441   4.639  16.260 -1.2124 -3.5902  1.6004
 1380TIP3    H228336   0.502   4.667  16.396 -0.9712 -0.0371  0.8351
 1381TIP3   OH228337   1.130   2.089  16.475  0.1118  0.6781  0.0588
 1381TIP3    H128338   1.104   2.117  16.562  2.3805  2.7878  0.1802
 1381TIP3    H228339   1.163   2.000  16.487 -0.8878  0.4361  1.0701
 1382TIP3   OH228340   1.813   3.286  17.247 -0.0004  0.2271  0.1609
 1382TIP3    H128341   1.740   3.342  17.276  0.7927  2.0088 -1.1130
 1382TIP3    H228342   1.774   3.230  17.179 -0.6518 -0.3537  0.9856
 1383TIP3   OH228343   7.268   0.875  17.485 -0.1888  0.7077  0.2411
 1383TIP3    H128344   7.357   0.839  17.482  0.3915  2.1180 -1.9849
 1383TIP3    H228345   7.211   0.800  17.468  0.6967  0.0949 -0.0930
 1384TIP3   OH228346   5.572   0.764  17.871  0.1955  0.1757  0.4592
 1384TIP3    H128347   5.519   0.769  17.950  0.2248 -1.5461  0.6309
 1384TIP3    H228348   5.656   0.729  17.900  0.7019  0.8617 -0.1359
 1385TIP3   OH228349   7.741   5.797  16.768  0.1512  0.1256 -0.4918
 1385TIP3    H128350   7.825   5.752  16.773 -0.7608 -1.6655 -0.5515
 1385TIP3    H228351   7.743   5.844  16.684  1.1664  0.3313 -0.3650
 1386TIP3   OH228352   3.218   0.101  17.307 -0.4545 -0.3473  0.1754
 1386TIP3    H128353   3.207   0.007  17.313 -1.5374 -0.4454 -2.2798
 1386TIP3    H228354   3.301   0.113  17.260  0.3973 -0.0022  1.7022
 1387TIP3   OH228355   6.820   9.009  16.484 -0.1280 -0.0480 -0.5180
 1387TIP3    H128356   6.860   8.977  16.564 -0.3495  2.0342  0.4910
 1387TIP3    H228357   6.847   8.946  16.417  2.2701 -0.4166  0.6828
 1388TIP3   OH228358   5.415   3.526  16.485 -0.3680 -0.6099  0.4015
 1388TIP3    H128359   5.487   3.465  16.504 -0.0634 -0.4408 -0.1839
 1388TIP3    H228360   5.455   3.594  16.431 -0.7960 -0.0937  0.7241
 1389TIP3   OH228361   2.469   3.315  16.984  0.3785 -0.2842  0.6977
 1389TIP3    H128362   2.481   3.273  16.899 -0.3550 -0.6844  0.7782
 1389TIP3    H228363   2.516   3.398  16.977  1.1418 -0.7435  0.2451
 1390TIP3   OH228364   7.242   5.893  15.801  0.0007  0.0646 -0.5960
 1390TIP3    H128365   7.308   5.959  15.780 -0.7584  0.6311 -1.2399
 1390TIP3    H228366   7.287   5.809  15.789  0.9176  0.4452  0.0410
 1391TIP3   OH228367   1.553   6.854  16.456 -0.4353  0.0713 -0.5055
 1391TIP3    H128368   1.495   6.838  16.530 -2.5289  0.4135 -1.9947
 1391TIP3    H228369   1.517   6.931  16.412  1.0160  0.1607 -1.6385
 1392TIP3   OH228370   1.008   6.703  16.837  0.5200 -0.1377  0.1248
 1392TIP3    H128371   0.984   6.748  16.919 -0.3061 -0.0805 -0.1407
 1392TIP3    H228372   0.996   6.610  16.857 -4.9034 -0.1172 -1.3579
 1393TIP3   OH228373   3.496   8.234  16.782 -0.3977 -0.2570  0.3189
 1393TIP3    H128374   3.506   8.308  16.841  2.1151 -0.6880  0.5216
 1393TIP3    H228375   3.474   8.160  16.839  2.0748 -0.6852  0.8218
 1394TIP3   OH228376   0.932   6.196  17.231  0.2608  0.2386 -0.1247
 1394TIP3    H128377   0.996   6.188  17.301  0.4617  1.1679 -0.1797
 1394TIP3    H228378   0.899   6.286  17.239 -1.6470 -0.4702  0.4085
 1395TIP3   OH228379   7.235   1.308  17.306  0.4038  0.5528 -0.1229
 1395TIP3    H128380   7.246   1.314  17.401 -0.9454  0.2057  0.0831
 1395TIP3    H228381   7.319   1.337  17.270  0.5746  1.7189  1.1408
 1396TIP3   OH228382   1.790   2.870  16.954 -0.5040 -0.2664 -0.1565
 1396TIP3    H128383   1.709   2.833  16.990 -1.0659  1.7224  0.7747
 1396TIP3    H228384   1.767   2.896  16.865 -1.1640  0.9740  0.3487
 1397TIP3   OH228385   1.967   0.654  16.637 -0.8230  0.3536  0.2829
 1397TIP3    H128386   2.038   0.715  16.618  0.0758 -0.5264  0.6776
 1397TIP3    H228387   1.933   0.629  16.551  0.6963 -0.7263 -0.0413
 1398TIP3   OH228388   7.881   5.097  17.438  0.0805  0.3124  0.1644
 1398TIP3    H128389   7.889   5.110  17.532  1.5254 -0.4108  0.1709
 1398TIP3    H228390   7.814   5.030  17.428  0.6778 -0.3740  0.7373
 1399TIP3   OH228391   4.780   3.968  17.093 -0.1099 -0.8620 -0.1722
 1399TIP3    H128392   4.711   3.948  17.155 -0.3055 -2.0167 -0.7311
 1399TIP3    H228393   4.813   3.883  17.065  0.8555 -0.3468 -0.6692
 1400TIP3   OH228394   0.834   1.564  16.531 -0.1270 -0.4387  0.1291
 1400TIP3    H128395   0.787   1.644  16.506  0.9642  0.3200  0.4215
 1400TIP3    H228396   0.849   1.518  16.449 -0.8104 -0.3710 -0.0385
 1401TIP3   OH228397   8.733   7.002  17.279 -0.1952  0.2863  0.1564
 1401TIP3    H128398   8.812   7.055  17.265  0.5868 -0.7337  0.5541
 1401TIP3    H228399   8.754   6.918  17.238 -0.9903 -0.0706  0.4780
 1402TIP3   OH228400   0.210   6.254  17.725 -0.7838  0.3031 -0.4452
 1402TIP3    H128401   0.206   6.172  17.676 -3.2674 -0.7402  1.2860
 1402TIP3    H228402   0.140   6.307  17.689 -0.1919  1.0468 -0.5174
 1403TIP3   OH228403   5.826   7.964  16.714 -0.0595  0.0869  0.0683
 1403TIP3    H128404   5.871   8.016  16.647 -0.1545  0.8769  0.6043
 1403TIP3    H228405   5.823   7.876  16.678  0.4108  0.3817 -0.7138
 1404TIP3   OH228406   8.375   4.039  17.512  0.1800  0.4892  0.0900
 1404TIP3    H128407   8.398   3.946  17.520  0.3281  0.5808  0.8173
 1404TIP3    H228408   8.357   4.067  17.602  2.7265  1.8086  0.2921
 1405TIP3   OH228409   5.359   2.535  17.520 -0.1019  0.3251  0.2015
 1405TIP3    H128410   5.436   2.479  17.511 -0.6600 -0.8418  2.1730
 1405TIP3    H228411   5.318   2.534  17.433  1.1676 -0.4257 -0.4094
 1406TIP3   OH228412   6.271   6.362  17.253 -0.6301 -0.3250  0.5464
 1406TIP3    H128413   6.179   6.387  17.239  0.0750  1.1082 -2.3177
 1406TIP3    H228414   6.274   6.269  17.228 -1.3450 -0.4647  0.9380
 1407TIP3   OH228415   3.047   1.319  16.648 -0.4657 -0.4511  0.3981
 1407TIP3    H128416   3.065   1.410  16.622  0.1720 -0.4780  0.7135
 1407TIP3    H228417   3.120   1.269  16.612 -1.0643 -0.9238 -0.1858
 1408TIP3   OH228418   2.126   2.810  16.704  0.3877 -0.2867  0.3472
 1408TIP3    H128419   2.071   2.835  16.779  0.7085  1.4107  0.0585
 1408TIP3    H228420   2.115   2.882  16.642  1.0822 -1.0910 -0.7262
 1409TIP3   OH228421   0.352   8.081  15.851  0.1773 -0.8249  0.1739
 1409TIP3    H128422   0.311   8.008  15.803  0.1759  0.5645 -2.0686
 1409TIP3    H228423   0.369   8.147  15.784  0.7397  1.0147  2.0355
 1410TIP3   OH228424   9.058   0.370  17.672  0.0027 -0.4397  0.6438
 1410TIP3    H128425   9.067   0.390  17.579  0.6848 -0.4572  0.7013
 1410TIP3    H228426   9.079   0.276  17.678 -1.9514 -0.9191  0.5497
 1411TIP3   OH228427   8.280   6.839  17.266 -0.2090  0.3536 -0.1432
 1411TIP3    H128428   8.369   6.805  17.259 -0.6322 -0.4393 -2.5779
 1411TIP3    H228429   8.286   6.928  17.231 -0.5905 -0.2106 -1.7217
 1412TIP3   OH228430   3.632   1.979  17.739  0.4391 -0.0424  0.3010
 1412TIP3    H128431   3.683   2.050  17.701 -2.0391  2.5744  1.5122
 1412TIP3    H228432   3.559   1.967  17.679  1.5809 -2.8094 -0.7182
 1413TIP3   OH228433   9.191   7.397  17.138 -0.1596 -0.0916  0.2619
 1413TIP3    H128434   9.205   7.382  17.232 -2.4225 -0.0410  0.6716
 1413TIP3    H228435   9.178   7.491  17.131  0.5078 -0.0268 -0.2096
 1414TIP3   OH228436   4.236   0.209  16.388 -0.0516  0.6502 -0.6995
 1414TIP3    H128437   4.311   0.253  16.426 -0.2414  0.2753  0.1341
 1414TIP3    H228438   4.273   0.148  16.324  0.5023 -0.6253  0.7629
 1415TIP3   OH228439   9.210   2.390  16.989  0.0222 -0.0632  0.2307
 1415TIP3    H128440   9.136   2.419  16.936  1.3632  1.0225 -1.1762
 1415TIP3    H228441   9.260   2.332  16.931  0.5628 -0.3396  0.9531
 1416TIP3   OH228442   5.131   4.714  17.114 -0.0633 -0.4547 -0.1762
 1416TIP3    H128443   5.198   4.705  17.047  0.4958 -3.7251  0.6186
 1416TIP3    H228444   5.062   4.653  17.087 -0.7893 -0.2680  1.1431
 1417TIP3   OH228445   3.406   1.650  17.782 -0.3118 -0.1312  0.4724
 1417TIP3    H128446   3.335   1.649  17.718  1.4264  0.9156 -1.5974
 1417TIP3    H228447   3.390   1.730  17.833 -0.7533 -0.0162  0.1646
 1418TIP3   OH228448   2.567   0.061  17.142 -0.1521  0.0280  0.1010
 1418TIP3    H128449   2.572   0.134  17.081 -0.7393 -1.1911 -1.4905
 1418TIP3    H228450   2.491   0.081  17.198 -0.5435  0.4539 -0.5681
 1419TIP3   OH228451   4.090   2.056  16.573 -0.1943  0.0728 -0.7212
 1419TIP3    H128452   4.162   2.015  16.525 -0.0656 -1.2889  0.5323
 1419TIP3    H228453   4.019   2.062  16.510 -0.2215 -2.1738 -1.0049
 1420TIP3   OH228454   8.658   3.979  16.957 -0.1698  0.1997 -0.1949
 1420TIP3    H128455   8.627   4.020  17.038  0.3113 -1.0006  0.6119
 1420TIP3    H228456   8.580   3.940  16.918 -0.4969  1.1971 -0.6009
 1421TIP3   OH228457   0.418   2.530  17.710 -0.9694 -0.6171  0.2417
 1421TIP3    H128458   0.364   2.453  17.688 -0.2601 -0.9635 -0.3299
 1421TIP3    H228459   0.404   2.591  17.638  0.8454 -1.4848 -0.9309
 1422TIP3   OH228460   1.251   8.671  16.154  0.1890  0.0653  0.2228
 1422TIP3    H128461   1.223   8.581  16.170 -0.1369 -0.2605 -1.8645
 1422TIP3    H228462   1.275   8.705  16.240 -1.2334 -1.4805  1.2846
 1423TIP3   OH228463   7.551   5.935  17.806 -0.1941  0.4792 -0.0603
 1423TIP3    H128464   7.498   5.858  17.830  0.8138 -0.7678 -1.5939
 1423TIP3    H228465   7.641   5.902  17.805  0.2797  1.7474 -0.5576
 1424TIP3   OH228466   1.154   7.268  16.773 -0.2538  0.1970  0.1121
 1424TIP3    H128467   1.148   7.180  16.736 -0.0668  0.2743 -0.1090
 1424TIP3    H228468   1.248   7.285  16.780 -0.2884  0.0373  0.9899
 1425TIP3   OH228469   7.337   0.911  17.029  0.3121  0.2569  0.2185
 1425TIP3    H128470   7.281   0.934  17.103  1.1438  0.8557  0.6723
 1425TIP3    H228471   7.346   0.992  16.979  1.0868  0.2675  0.3626
 1426TIP3   OH228472   7.755   2.249  17.544  0.6043 -0.2028 -0.1986
 1426TIP3    H128473   7.840   2.274  17.582  1.4276 -0.9369 -1.4610
 1426TIP3    H228474   7.699   2.325  17.557  1.0828 -0.1328  1.7330
 1427TIP3   OH228475   0.548   6.097  17.099 -0.4193  0.0374  0.2724
 1427TIP3    H128476   0.519   6.091  17.008  1.0280 -2.7583 -0.1229
 1427TIP3    H228477   0.637   6.132  17.094 -0.9939  1.6703  0.8319
 1428TIP3   OH228478   4.867   8.679  16.908 -0.3747 -0.4727  0.0997
 1428TIP3    H128479   4.807   8.738  16.863 -0.6932  0.4112  1.6057
 1428TIP3    H228480   4.886   8.723  16.991 -0.4278 -2.3785  1.1819
 1429TIP3   OH228481   1.596   2.177  16.899  0.5131  0.0104 -0.2175
 1429TIP3    H128482   1.680   2.193  16.942  0.2914 -0.3114  0.3500
 1429TIP3    H228483   1.615   2.186  16.806  1.4631 -1.2779 -0.1784
 1430TIP3   OH228484   0.222   1.219  17.266  0.5277  0.5438 -0.3645
 1430TIP3    H128485   0.145   1.267  17.296  0.1078 -0.3120 -0.0471
 1430TIP3    H228486   0.229   1.145  17.326  0.1315 -0.7773 -1.8976
 1431TIP3   OH228487   6.906   2.580  17.214 -0.2843 -0.1294  0.3288
 1431TIP3    H128488   6.823   2.614  17.180  0.6409  1.4530 -0.4322
 1431TIP3    H228489   6.883   2.494  17.248 -1.6627 -1.0976 -2.6452
 1432TIP3   OH228490   3.113   2.550  16.183  0.0878  0.4399 -0.1094
 1432TIP3    H128491   3.190   2.552  16.126  0.9490 -0.8030  0.9624
 1432TIP3    H228492   3.145   2.582  16.268 -0.2381 -1.2981  0.7038
 1433TIP3   OH228493   0.760   3.237  17.839 -0.9389  0.0236 -0.1499
 1433TIP3    H128494   0.840   3.200  17.877 -0.7668  1.3954  0.9031
 1433TIP3    H228495   0.691   3.175  17.862 -0.8117  0.7348  2.3597
 1434TIP3   OH228496   1.116   0.065  16.584 -0.1108 -0.5928 -0.7060
 1434TIP3    H128497   1.107   0.080  16.490 -0.0870  2.3994 -0.3448
 1434TIP3    H228498   1.204   0.028  16.593  0.1973 -0.1807 -1.7953
 1435TIP3   OH228499   5.582   0.291  17.892 -0.4736  0.3657  0.0106
 1435TIP3    H128500   5.652   0.316  17.953  2.0304 -0.7663 -2.1830
 1435TIP3    H228501   5.603   0.340  17.812 -2.0592 -0.2437 -0.8055
 1436TIP3   OH228502   6.963   2.218  17.411 -0.4548  0.2272  0.8110
 1436TIP3    H128503   6.986   2.222  17.319  0.5944 -0.5397  1.0237
 1436TIP3    H228504   6.932   2.128  17.424 -1.4521  0.5896  1.0201
 1437TIP3   OH228505   5.386   5.511  17.714 -0.0487 -0.9089  0.3583
 1437TIP3    H128506   5.350   5.425  17.736 -2.2542  0.0967  0.8878
 1437TIP3    H228507   5.474   5.511  17.753  0.3929 -3.2256 -0.4645
 1438TIP3   OH228508   8.286   7.868  16.486 -0.1580 -0.3567  0.1731
 1438TIP3    H128509   8.346   7.826  16.424 -0.3561 -1.4086  0.6709
 1438TIP3    H228510   8.341   7.893  16.560 -0.0246  0.3609 -0.1623
 1439TIP3   OH228511   1.622   2.368  15.842 -0.1819 -0.0043 -0.0013
 1439TIP3    H128512   1.558   2.302  15.817  0.9599 -0.9293 -0.6375
 1439TIP3    H228513   1.571   2.438  15.882 -1.4179 -1.3734  0.9210
 1440TIP3   OH228514   9.209   4.177  16.673 -0.1761  0.3836  0.3925
 1440TIP3    H128515   9.199   4.265  16.710  0.6224  1.0244 -0.8521
 1440TIP3    H228516   9.298   4.151  16.696 -0.1046  0.2754  0.0025
 1441TIP3   OH228517   6.097   7.021  17.389  0.0866  0.5125 -0.1034
 1441TIP3    H128518   6.175   6.992  17.342 -0.7578  0.0688 -1.2848
 1441TIP3    H228519   6.039   7.054  17.320 -1.1652 -0.1026  0.6328
 1442TIP3   OH228520   1.598   8.814  15.934 -0.1260 -0.0862  0.4748
 1442TIP3    H128521   1.507   8.802  15.961 -0.5376 -1.0996 -1.2018
 1442TIP3    H228522   1.593   8.832  15.840  1.3858  0.4112  0.4539
 1443TIP3   OH228523   5.463   2.217  17.594  0.1502 -0.5458 -0.4995
 1443TIP3    H128524   5.513   2.288  17.555 -1.4228  1.2248  0.5413
 1443TIP3    H228525   5.509   2.196  17.675 -0.8129  1.2601  0.5917
 1444TIP3   OH228526   7.138   1.066  16.767  0.5062 -0.5703  0.1240
 1444TIP3    H128527   7.214   1.015  16.740  1.1127 -0.1078  0.9079
 1444TIP3    H228528   7.172   1.126  16.833 -0.4130  0.1025  0.0042
 1445TIP3   OH228529   6.752   3.964  16.180  0.2394  0.3169 -0.2827
 1445TIP3    H128530   6.713   3.879  16.201  0.8615  0.1863  0.3872
 1445TIP3    H228531   6.846   3.950  16.188  0.4365  0.7070 -1.5750
 1446TIP3   OH228532   4.475   6.270  16.269 -0.0101  0.1938  0.1064
 1446TIP3    H128533   4.408   6.326  16.306  1.0018  0.8872  0.9271
 1446TIP3    H228534   4.508   6.318  16.193 -2.2040 -1.2999 -1.9381
 1447TIP3   OH228535   2.837   4.881  15.857 -0.0615  0.2505  0.6858
 1447TIP3    H128536   2.867   4.810  15.913  0.7782 -0.5328 -0.7090
 1447TIP3    H228537   2.917   4.925  15.829 -0.4283  0.2671 -0.3527
 1448TIP3   OH228538   5.851   4.190  17.307  0.5970 -0.1823 -0.2832
 1448TIP3    H128539   5.759   4.216  17.301  0.6508 -0.0275 -0.4532
 1448TIP3    H228540   5.854   4.129  17.380  0.9048  2.2196  1.8514
 1449TIP3   OH228541   5.229   8.420  17.133 -0.6714 -0.1192  0.6136
 1449TIP3    H128542   5.256   8.507  17.104 -1.3622 -0.7031 -2.1044
 1449TIP3    H228543   5.141   8.432  17.168 -1.1306  0.2034 -0.5855
 1450TIP3   OH228544   6.922   3.361  17.276 -0.0773 -0.4665 -0.5218
 1450TIP3    H128545   6.837   3.394  17.304  0.7980  0.6651  0.9485
 1450TIP3    H228546   6.927   3.381  17.183 -0.7763  0.9114 -0.2810
 1451TIP3   OH228547   3.808   8.136  16.773 -0.1007 -0.3779 -1.0937
 1451TIP3    H128548   3.758   8.188  16.710 -0.3587  0.6264 -0.1071
 1451TIP3    H228549   3.899   8.146  16.746  0.2955  3.4181  0.8598
 1452TIP3   OH228550   4.364   6.062  15.871 -0.1318  0.1211 -0.2379
 1452TIP3    H128551   4.327   6.077  15.958  0.3616 -1.5149  0.2824
 1452TIP3    H228552   4.353   6.146  15.826 -0.4658  0.9781  1.3621
 1453TIP3   OH228553   2.130   4.620  17.246 -0.2383  0.0457 -0.7060
 1453TIP3    H128554   2.053   4.652  17.294 -1.5070 -0.9324 -2.0057
 1453TIP3    H228555   2.111   4.641  17.154  0.6204 -1.0419 -1.1500
 1454TIP3   OH228556   8.256   8.665  17.417  0.0022 -0.4086 -0.1941
 1454TIP3    H128557   8.271   8.704  17.331  0.5000  0.6089  0.3337
 1454TIP3    H228558   8.181   8.713  17.453 -2.9589 -3.5680 -1.6651
 1455TIP3   OH228559   3.607   0.299  16.806 -0.3452  0.2126  0.2799
 1455TIP3    H128560   3.627   0.243  16.731  1.5414  1.1209  0.0721
 1455TIP3    H228561   3.653   0.381  16.789 -0.9185  0.8948  1.8359
 1456TIP3   OH228562   1.795   4.524  16.963  0.0688  0.3154 -0.2047
 1456TIP3    H128563   1.749   4.595  16.919 -2.1062  1.8973  4.0972
 1456TIP3    H228564   1.857   4.567  17.021  1.7238 -1.5648 -0.4680
 1457TIP3   OH228565   0.749   0.163  18.089  0.0289  0.2372 -0.0867
 1457TIP3    H128566   0.720   0.130  18.004 -1.7237 -0.3302  0.7014
 1457TIP3    H228567   0.669   0.181  18.138  0.9753  2.0502  0.9150
 1458TIP3   OH228568   7.683   1.395  16.821 -0.1809  0.1696  0.1164
 1458TIP3    H128569   7.747   1.426  16.757  0.8967 -0.4326  0.8764
 1458TIP3    H228570   7.663   1.305  16.794  2.0560 -0.9492  1.8840
 1459TIP3   OH228571   4.798   4.971  17.070  0.5447  0.4917 -0.4984
 1459TIP3    H128572   4.756   4.972  16.984 -1.1120 -1.9698  0.1744
 1459TIP3    H228573   4.726   4.958  17.132  1.8881  0.3226  1.1036
 1460TIP3   OH228574   7.453   8.058  17.240  0.0019 -0.1453  0.0536
 1460TIP3    H128575   7.398   8.074  17.162 -1.0121  0.1449  0.8034
 1460TIP3    H228576   7.421   8.122  17.304  2.7319  1.5955 -0.1718
 1461TIP3   OH228577   4.392   2.994  17.441  0.1935 -0.0030  0.6507
 1461TIP3    H128578   4.477   2.951  17.454  0.4902  0.4376  0.2179
 1461TIP3    H228579   4.370   2.976  17.350  0.0880  0.3491  0.6032
 1462TIP3   OH228580   8.913   1.006  16.556  0.3861  0.3698  0.2809
 1462TIP3    H128581   8.891   0.970  16.470  0.3815 -0.9239  0.8024
 1462TIP3    H228582   9.004   0.980  16.570 -0.0782 -0.8356  1.3212
 1463TIP3   OH228583   6.966   3.647  16.917 -0.3996 -0.1733  0.5281
 1463TIP3    H128584   6.883   3.645  16.870  0.7393 -0.9820 -1.5618
 1463TIP3    H228585   6.999   3.736  16.903  1.6362 -1.3488 -3.5556
 1464TIP3   OH228586   3.598   2.058  16.503 -0.4798 -0.2894  0.0356
 1464TIP3    H128587   3.646   1.984  16.540 -0.6579  0.1891  1.2519
 1464TIP3    H228588   3.508   2.044  16.531 -0.2413  1.2247  1.6540
 1465TIP3   OH228589   0.836   0.851  18.078 -0.1771  0.3195  0.0725
 1465TIP3    H128590   0.866   0.917  18.141 -1.5679 -0.2666  1.4162
 1465TIP3    H228591   0.901   0.781  18.084  0.8684  1.1693 -0.7772
 1466TIP3   OH228592   1.481   3.254  17.136  0.1835 -0.0759 -0.2068
 1466TIP3    H128593   1.462   3.211  17.053  2.2752 -0.2858 -0.6276
 1466TIP3    H228594   1.505   3.344  17.112  0.3674 -0.0077  0.2149
 1467TIP3   OH228595   4.417   4.487  17.774 -0.0308 -0.0316  0.1500
 1467TIP3    H128596   4.391   4.498  17.865 -2.1256  0.6884 -0.4735
 1467TIP3    H228597   4.361   4.548  17.725  0.8725 -0.5510 -1.6358
 1468TIP3   OH228598   2.728   6.772  16.024  0.3345  0.3303 -0.3245
 1468TIP3    H128599   2.640   6.778  15.985 -0.5934  0.0234  1.5959
 1468TIP3    H228600   2.712   6.742  16.113  2.3956  0.5681  0.1606
 1469TIP3   OH228601   8.140   8.774  17.645  0.0105  0.2574  0.3633
 1469TIP3    H128602   8.094   8.723  17.711 -0.5120  2.0984  1.5147
 1469TIP3    H228603   8.090   8.856  17.639  1.4617  1.1355 -0.5086
 1470TIP3   OH228604   6.472   3.691  16.838  0.2890  0.0818 -0.3974
 1470TIP3    H128605   6.456   3.660  16.927  0.3549  0.0580 -0.3928
 1470TIP3    H228606   6.390   3.673  16.791 -0.1481  1.1190 -0.0612
 1471TIP3   OH228607   0.924   1.659  17.491  0.2512  0.4500  0.1722
 1471TIP3    H128608   0.848   1.602  17.503 -0.3704  1.4528  1.1574
 1471TIP3    H228609   0.931   1.708  17.573  2.4666 -0.1951  0.4425
 1472TIP3   OH228610   8.511   2.684  16.393 -0.2879  0.6521 -0.0133
 1472TIP3    H128611   8.432   2.719  16.353  0.1032  0.4800 -0.9458
 1472TIP3    H228612   8.479   2.623  16.460 -0.9501  0.1661 -0.7515
 1473TIP3   OH228613   7.082   0.089  17.909  0.1321 -0.1571  0.6230
 1473TIP3    H128614   7.157   0.080  17.968 -0.7298  0.9225  1.9242
 1473TIP3    H228615   7.043   0.001  17.906 -0.0336 -0.1463  1.9772
 1474TIP3   OH228616   1.242   0.247  16.830  0.1164  0.5802 -0.1863
 1474TIP3    H128617   1.254   0.218  16.740  1.8601  1.7229 -0.3796
 1474TIP3    H228618   1.263   0.340  16.829  0.8093  0.4954  1.4969
 1475TIP3   OH228619   2.065   3.908  16.230 -0.1904  0.6564  0.8891
 1475TIP3    H128620   2.064   3.819  16.196 -1.6610  0.6658  0.8592
 1475TIP3    H228621   2.140   3.949  16.187  0.1805 -0.4012  0.4992
 1476TIP3   OH228622   6.682   3.482  17.287 -0.2581 -0.3738 -0.5558
 1476TIP3    H128623   6.634   3.405  17.316 -0.6618 -0.1337 -0.5691
 1476TIP3    H228624   6.663   3.548  17.354  0.7244 -0.5094 -0.1160
 1477TIP3   OH228625   2.814   5.699  17.491  0.6059  0.0597  0.2878
 1477TIP3    H128626   2.840   5.680  17.582 -1.8052 -0.0078  1.0443
 1477TIP3    H228627   2.782   5.789  17.494 -2.7106 -0.9679  0.4197
 1478TIP3   OH228628   5.914   6.670  16.201  0.5636 -0.1937  0.0242
 1478TIP3    H128629   5.946   6.674  16.291 -1.2006  0.7292  0.6762
 1478TIP3    H228630   5.842   6.733  16.199  0.8798  0.1738 -2.1888
 1479TIP3   OH228631   2.598   5.141  16.065  0.1251 -0.2071 -0.2161
 1479TIP3    H128632   2.592   5.046  16.055  0.8304 -0.2555 -0.2170
 1479TIP3    H228633   2.690   5.161  16.049  0.3764  0.2638  1.6397
 1480TIP3   OH228634   6.701   8.469  16.374 -0.0368  0.3720 -0.0510
 1480TIP3    H128635   6.690   8.557  16.409  0.7455  0.0631  1.0166
 1480TIP3    H228636   6.613   8.444  16.344 -0.5903  0.9188  1.0711
 1481TIP3   OH228637   8.360   0.813  16.411  0.1189  0.4886  0.4179
 1481TIP3    H128638   8.388   0.840  16.323 -0.1771  0.8998  0.4481
 1481TIP3    H228639   8.293   0.746  16.395  0.7694 -0.1657  0.3408
 1482TIP3   OH228640   0.115   0.904  16.093  0.3561 -0.1976 -0.3355
 1482TIP3    H128641   0.203   0.905  16.054  0.3593  0.5001 -0.3215
 1482TIP3    H228642   0.102   0.813  16.119  0.2930 -0.7509 -2.1188
 1483TIP3   OH228643   7.886   7.299  17.617 -0.0415 -0.2357  0.5304
 1483TIP3    H128644   7.820   7.364  17.594 -1.1568 -1.1934  0.9014
 1483TIP3    H228645   7.933   7.338  17.691 -1.2397 -0.1668  1.2908
 1484TIP3   OH228646   2.580   8.178  15.982  0.3376  0.0425 -0.5014
 1484TIP3    H128647   2.500   8.230  15.976  0.6782  0.6907  0.3723
 1484TIP3    H228648   2.647   8.231  15.937  0.6196  0.2360  0.1349
 1485TIP3   OH228649   3.062   6.878  16.451 -0.0604  0.1624  0.3470
 1485TIP3    H128650   3.039   6.856  16.541 -1.1409 -3.6538 -0.6991
 1485TIP3    H228651   2.980   6.910  16.412 -0.3770 -1.1039 -0.0452
 1486TIP3   OH228652   6.021   5.894  17.957 -0.1103  0.9015  0.1310
 1486TIP3    H128653   6.019   5.829  17.887  2.7075  0.3799  0.4094
 1486TIP3    H228654   6.091   5.864  18.015 -0.0427  3.1583  1.3129
 1487TIP3   OH228655   7.053   4.942  16.216 -0.0914  0.3788 -0.3560
 1487TIP3    H128656   7.039   4.855  16.253 -1.4223  0.8802  0.3676
 1487TIP3    H228657   7.009   4.940  16.132 -2.6151  1.1809  0.8595
 1488TIP3   OH228658   0.188   7.820  17.292  0.1063 -0.2813  0.8254
 1488TIP3    H128659   0.251   7.750  17.305  0.0547 -0.1640  1.7450
 1488TIP3    H228660   0.156   7.841  17.380 -1.6686 -0.7533  0.3522
 1489TIP3   OH228661   2.246   8.317  17.004  0.3770 -0.3035 -0.6235
 1489TIP3    H128662   2.206   8.404  17.009 -0.8964 -0.7230 -2.5267
 1489TIP3    H228663   2.172   8.256  17.002  1.2408 -1.4874  0.7933
 1490TIP3   OH228664   2.551   0.468  17.102 -0.3211  0.1714 -0.0599
 1490TIP3    H128665   2.511   0.386  17.130 -1.1693  0.2277 -1.0537
 1490TIP3    H228666   2.587   0.449  17.015  2.0640  0.0547  0.8658
 1491TIP3   OH228667   0.748   1.129  17.131  0.1908  0.0123 -0.5371
 1491TIP3    H128668   0.655   1.144  17.145  0.4746  0.2974  1.3131
 1491TIP3    H228669   0.769   1.178  17.052 -0.9201  1.1926 -0.1225
 1492TIP3   OH228670   3.531   2.839  16.696  0.5613 -0.2460 -0.4180
 1492TIP3    H128671   3.524   2.750  16.730  2.1848 -0.4290 -0.4686
 1492TIP3    H228672   3.465   2.888  16.744  0.1868 -1.3143  0.1977
 1493TIP3   OH228673   2.078   1.813  15.999  0.3848  0.3681  0.6135
 1493TIP3    H128674   1.990   1.799  16.035 -0.6048 -0.6491 -1.9544
 1493TIP3    H228675   2.062   1.848  15.911  2.5740  0.7387  0.3179
 1494TIP3   OH228676   6.443   4.459  16.808 -0.0387 -0.0004  0.1940
 1494TIP3    H128677   6.533   4.438  16.784 -0.5427  0.5095 -2.4513
 1494TIP3    H228678   6.414   4.519  16.740 -2.4897 -0.3741  0.8308
 1495TIP3   OH228679   5.397   8.375  16.744 -0.5557 -0.5515 -0.1653
 1495TIP3    H128680   5.392   8.301  16.805 -3.2881 -0.6881 -0.4463
 1495TIP3    H228681   5.432   8.337  16.664  1.6176 -0.6902  0.7833
 1496TIP3   OH228682   6.808   7.013  16.766  0.0910  0.1430  0.0688
 1496TIP3    H128683   6.877   7.079  16.757 -0.6406  0.9878  0.4604
 1496TIP3    H228684   6.768   7.031  16.851  0.0029 -0.9408  0.2771
 1497TIP3   OH228685   5.989   0.951  17.872  0.6564  0.2889  0.1460
 1497TIP3    H128686   6.080   0.922  17.875  0.6450  0.3180  0.7475
 1497TIP3    H228687   5.939   0.878  17.908  0.3664 -0.0029 -0.8028
 1498TIP3   OH228688   2.715   0.817  17.193 -0.5302 -0.0106  0.1178
 1498TIP3    H128689   2.806   0.796  17.216 -1.1464 -1.0284  1.8818
 1498TIP3    H228690   2.691   0.751  17.128  0.0773  0.4398 -0.5699
 1499TIP3   OH228691   6.473   6.376  15.848  0.1445 -0.3193 -0.1148
 1499TIP3    H128692   6.511   6.296  15.884  0.6307  0.0812  0.2701
 1499TIP3    H228693   6.500   6.376  15.756  2.1535  0.5526  0.4073
 1500TIP3   OH228694   3.075   6.300  16.344 -0.0390 -0.3920 -0.4452
 1500TIP3    H128695   3.135   6.268  16.412 -0.2052 -1.1096 -0.6322
 1500TIP3    H228696   3.084   6.395  16.348  0.8069 -0.4709 -0.1841
 1501TIP3   OH228697   7.941   5.260  16.607 -0.9607  0.2259 -0.4363
 1501TIP3    H128698   8.024   5.296  16.574 -1.5059  0.6188 -1.4235
 1501TIP3    H228699   7.966   5.179  16.651  0.1604  1.2045  0.8214
 1502TIP3   OH228700   7.080   8.576  18.005 -0.0824 -0.3656  0.6174
 1502TIP3    H128701   7.151   8.575  18.070 -0.9153  0.9742  1.6136
 1502TIP3    H228702   7.072   8.668  17.981 -2.2272 -0.3034  1.3930
 1503TIP3   OH228703   1.209   3.526  17.608  0.3816 -0.2574 -0.2075
 1503TIP3    H128704   1.163   3.453  17.648 -0.8552  2.2309  3.3711
 1503TIP3    H228705   1.301   3.499  17.609 -0.0072 -1.6900  1.2336
 1504TIP3   OH228706   8.031   5.608  16.954 -0.1281  0.2118  0.7512
 1504TIP3    H128707   8.076   5.587  17.036  1.4015  0.8443  0.1176
 1504TIP3    H228708   8.083   5.679  16.916 -2.1311  1.4985  0.3155
 1505TIP3   OH228709   7.001   5.254  15.911  0.2099 -0.2581 -0.0375
 1505TIP3    H128710   6.926   5.256  15.970  0.8851  3.2135  0.9635
 1505TIP3    H228711   6.965   5.277  15.826 -0.0739  0.1471  0.1852
 1506TIP3   OH228712   2.405   8.800  17.360 -0.2670  0.0160 -0.3373
 1506TIP3    H128713   2.410   8.851  17.441  0.2375 -1.7514  0.7904
 1506TIP3    H228714   2.477   8.738  17.367  0.2403  0.2958 -2.5085
 1507TIP3   OH228715   8.849   1.610  17.557 -0.6220 -0.1468 -0.2186
 1507TIP3    H128716   8.758   1.591  17.538 -1.1681  0.5766  1.4433
 1507TIP3    H228717   8.877   1.539  17.615 -0.6296  0.4745  0.5641
 1508TIP3   OH228718   4.429   4.448  17.430  0.1858  0.2375 -0.5872
 1508TIP3    H128719   4.392   4.494  17.355  0.3987  1.6692  0.1625
 1508TIP3    H228720   4.459   4.517  17.489 -0.4854 -0.8433  1.0928
 1509TIP3   OH228721   4.899   1.077  17.692 -0.0796 -0.6661  0.3524
 1509TIP3    H128722   4.831   1.099  17.629  2.0857  1.3027 -1.4853
 1509TIP3    H228723   4.885   1.137  17.765 -1.0605 -1.2002  0.6259
 1510TIP3   OH228724   5.195   6.315  16.069 -0.1097  0.3511 -0.2865
 1510TIP3    H128725   5.287   6.335  16.056 -0.1211  0.4707 -0.1778
 1510TIP3    H228726   5.149   6.370  16.006 -0.0433 -0.4313 -1.0353
 1511TIP3   OH228727   8.241   0.541  16.074  0.2140  0.2351 -0.1170
 1511TIP3    H128728   8.226   0.470  16.012  0.9446  0.6455 -0.7832
 1511TIP3    H228729   8.317   0.587  16.039 -0.8061  1.9170 -0.2185
 1512TIP3   OH228730   2.587   0.601  16.029 -0.1455 -1.3167 -0.2904
 1512TIP3    H128731   2.563   0.684  15.987 -0.4002 -1.0119  0.4398
 1512TIP3    H228732   2.503   0.559  16.049 -0.0207 -2.1268 -1.3465
 1513TIP3   OH228733   3.872   2.316  16.602  0.0137 -0.1473  0.5764
 1513TIP3    H128734   3.901   2.329  16.511  0.5666  0.9842  0.8948
 1513TIP3    H228735   3.788   2.361  16.607  0.9960  1.7483  1.1566
 1514TIP3   OH228736   3.304   4.869  15.511  0.2349  0.1810 -0.0468
 1514TIP3    H128737   3.341   4.902  15.593  0.8443 -0.5884 -0.0008
 1514TIP3    H228738   3.345   4.922  15.444 -1.3600  1.8126  0.1961
 1515TIP3   OH228739   6.411   1.984  17.719  0.5293 -0.2431 -0.0164
 1515TIP3    H128740   6.371   2.039  17.652  3.1955  1.1630 -0.5974
 1515TIP3    H228741   6.464   2.044  17.771  0.5610 -1.7158  1.7751
 1516TIP3   OH228742   4.292   6.037  16.167  0.2066  0.5250  0.5298
 1516TIP3    H128743   4.346   6.106  16.204  1.4300 -0.5835  0.8962
 1516TIP3    H228744   4.243   6.002  16.241  0.5041  0.2113  0.5844
 1517TIP3   OH228745   1.639   5.921  16.349 -0.2110  0.5211 -0.2410
 1517TIP3    H128746   1.647   5.947  16.441 -1.0801 -1.1412  0.3382
 1517TIP3    H228747   1.729   5.904  16.320  0.3177  3.1670 -0.3988
 1518TIP3   OH228748   0.854   6.542  16.560  0.1718 -0.5355 -0.0818
 1518TIP3    H128749   0.926   6.481  16.546  0.2170 -0.4954 -0.0270
 1518TIP3    H228750   0.844   6.588  16.477  2.1335  1.5333  0.6942
 1519TIP3   OH228751   7.209   9.067  17.476  0.1514 -0.4925  0.0256
 1519TIP3    H128752   7.279   9.045  17.538 -1.4712  0.1082  2.1849
 1519TIP3    H228753   7.244   9.140  17.425  1.2938 -0.5416  0.7088
 1520TIP3   OH228754   7.560   6.321  16.334 -0.4496  0.3694 -0.4201
 1520TIP3    H128755   7.574   6.328  16.429 -0.2045 -1.4355 -0.2830
 1520TIP3    H228756   7.644   6.344  16.295  0.1585 -1.1255 -0.0580
 1521TIP3   OH228757   3.289   0.272  15.987  0.4743 -0.1279  0.3376
 1521TIP3    H128758   3.228   0.202  15.965  0.5329 -0.1615  0.2839
 1521TIP3    H228759   3.368   0.227  16.018  0.8312 -0.1041 -0.5142
 1522TIP3   OH228760   6.895   8.625  17.256  0.0449 -0.3703  0.1042
 1522TIP3    H128761   6.855   8.562  17.195 -0.5730  0.3000 -0.2050
 1522TIP3    H228762   6.944   8.684  17.200 -0.2515  0.0525  0.2907
 1523TIP3   OH228763   8.860   0.263  18.050 -0.1121 -0.3655 -0.0051
 1523TIP3    H128764   8.835   0.346  18.009 -0.5923 -0.0945  0.8007
 1523TIP3    H228765   8.779   0.212  18.052  0.0588 -0.6386 -0.0016
 1524TIP3   OH228766   1.433   2.914  16.725 -0.3530  0.3638 -0.1593
 1524TIP3    H128767   1.454   2.911  16.632  1.5517  1.3909  0.1777
 1524TIP3    H228768   1.347   2.873  16.732 -0.3755 -0.0639 -2.3081
 1525TIP3   OH228769   1.179   2.815  16.746  0.0672 -0.1163  0.0063
 1525TIP3    H128770   1.090   2.802  16.715  0.2086 -0.2101 -0.3657
 1525TIP3    H228771   1.171   2.822  16.841 -0.5419  1.6078 -0.1527
 1526TIP3   OH228772   8.184   6.902  15.881 -0.1871  0.4639  0.3089
 1526TIP3    H128773   8.185   6.834  15.814  1.2141  2.1336 -1.4759
 1526TIP3    H228774   8.093   6.930  15.886 -0.8184 -1.5501  1.1860
 1527TIP3   OH228775   5.326   4.727  16.930  0.0583 -0.1811 -0.1071
 1527TIP3    H128776   5.352   4.757  16.843 -0.9416 -0.2968 -0.4537
 1527TIP3    H228777   5.409   4.707  16.974  0.8474  3.2865  0.2546
 1528TIP3   OH228778   8.525   6.646  15.957 -0.2348 -0.1319  0.6869
 1528TIP3    H128779   8.562   6.696  15.884 -0.4637 -1.1188 -0.1464
 1528TIP3    H228780   8.536   6.702  16.033 -0.0619  0.9735 -0.1228
 1529TIP3   OH228781   2.760   7.383  17.329 -0.3694  0.1510  0.0595
 1529TIP3    H128782   2.758   7.474  17.359 -0.1255 -0.1778  1.1170
 1529TIP3    H228783   2.850   7.355  17.345 -0.5369 -0.3800  0.0611
 1530TIP3   OH228784   4.366   8.386  17.883 -0.5949  0.4719  0.3448
 1530TIP3    H128785   4.292   8.377  17.822 -0.1815  0.6832 -0.1958
 1530TIP3    H228786   4.335   8.345  17.964 -0.9074 -0.4431 -0.2184
 1531TIP3   OH228787   7.991   8.961  15.485 -0.1324 -0.1174 -0.2121
 1531TIP3    H128788   8.062   9.017  15.516 -1.0960  1.6797 -1.0671
 1531TIP3    H228789   7.993   8.969  15.390 -1.2788 -0.2744 -0.2676
 1532TIP3   OH228790   3.333   7.307  17.397  0.1407  0.2806  0.5463
 1532TIP3    H128791   3.386   7.351  17.330  0.9898  0.1770  1.1292
 1532TIP3    H228792   3.307   7.378  17.456 -0.2293  0.3034  0.3587
 1533TIP3   OH228793   9.158   3.104  16.090  0.4424  0.1025 -0.0102
 1533TIP3    H128794   9.099   3.077  16.160 -0.5657  1.4715 -0.2903
 1533TIP3    H228795   9.104   3.104  16.011  0.7408  1.5056 -0.2477
 1534TIP3   OH228796   3.337   1.564  17.068  0.1386  0.3751 -0.1030
 1534TIP3    H128797   3.303   1.521  17.146  0.3687  0.1284 -0.1408
 1534TIP3    H228798   3.306   1.509  16.995  1.0274 -0.1239 -0.1115
 1535TIP3   OH228799   0.049   1.942  16.349  0.2457 -0.1526 -0.0764
 1535TIP3    H128800  -0.018   1.885  16.388 -2.6049  2.9432 -0.0163
 1535TIP3    H228801   0.010   1.970  16.266  0.9681  2.5470  0.4279
 1536TIP3   OH228802   5.739   6.444  16.872 -0.1509 -0.5422 -0.6648
 1536TIP3    H128803   5.723   6.538  16.866  0.2952 -0.3761  0.4704
 1536TIP3    H228804   5.818   6.437  16.926 -0.2690 -1.5675 -0.6115
 1537TIP3   OH228805   7.577   8.025  17.569 -0.0055 -0.5047  0.3602
 1537TIP3    H128806   7.670   8.016  17.551 -0.0368 -1.8802  0.7290
 1537TIP3    H228807   7.566   7.987  17.656 -0.8252  0.1467  0.5510
 1538TIP3   OH228808   0.429   2.883  16.690  0.8069 -0.8038  0.0866
 1538TIP3    H128809   0.417   2.879  16.595 -1.0986 -2.6074  0.3455
 1538TIP3    H228810   0.459   2.972  16.706 -0.3004  0.0321 -2.0522
 1539TIP3   OH228811   5.887   8.626  16.053 -0.1177 -0.3287 -0.3262
 1539TIP3    H128812   5.873   8.693  15.986 -0.4011 -0.8766 -0.8277
 1539TIP3    H228813   5.820   8.560  16.035 -1.5438  0.4783  1.7826
 1540TIP3   OH228814   4.637   9.011  17.316  0.1735 -0.3722 -0.3284
 1540TIP3    H128815   4.686   8.967  17.385 -0.2231 -1.4401 -0.7115
 1540TIP3    H228816   4.704   9.055  17.264  0.7380 -1.7329 -0.7834
 1541TIP3   OH228817   6.454   6.379  16.743  0.3016 -0.3324 -0.3103
 1541TIP3    H128818   6.518   6.427  16.795  1.4941 -1.3087 -0.8021
 1541TIP3    H228819   6.392   6.344  16.807  1.1390 -0.6262  0.3628
 1542TIP3   OH228820   0.662   0.633  17.932  0.3719 -0.1666  0.2679
 1542TIP3    H128821   0.713   0.684  17.995 -1.3314 -0.9279  2.3900
 1542TIP3    H228822   0.721   0.561  17.907  0.5874 -0.7465  2.2551
 1543TIP3   OH228823   5.802   9.114  16.629 -0.0332  0.0789 -0.1053
 1543TIP3    H128824   5.839   9.059  16.697 -0.3053  1.3259  1.0927
 1543TIP3    H228825   5.863   9.187  16.621  0.1774 -0.2217 -1.4608
 1544TIP3   OH228826   7.818   0.114  16.860  0.6958 -0.6384 -0.9519
 1544TIP3    H128827   7.837   0.052  16.789  0.8682  0.2696 -1.7161
 1544TIP3    H228828   7.724   0.107  16.874  0.8478 -1.7706 -0.3549
 1545TIP3   OH228829   6.472   5.022  16.949 -0.2120 -0.2529 -0.1996
 1545TIP3    H128830   6.486   4.934  16.913 -1.2251 -1.7046  2.6653
 1545TIP3    H228831   6.542   5.033  17.014 -0.1488  1.0577 -0.4525
 1546TIP3   OH228832   8.561   1.666  16.807  0.4065 -0.3697 -0.3450
 1546TIP3    H128833   8.534   1.732  16.870 -0.0566  0.6118 -1.5434
 1546TIP3    H228834   8.657   1.670  16.807  0.5075 -1.4226  1.3372
 1547TIP3   OH228835   2.092   8.545  17.021  0.1236  0.1209 -0.0571
 1547TIP3    H128836   2.035   8.536  17.098 -0.3196 -2.0457 -0.5687
 1547TIP3    H228837   2.098   8.639  17.006  0.4480  0.6396  2.7876
 1548TIP3   OH228838   6.910   4.702  16.935 -0.0150  0.3440 -0.1312
 1548TIP3    H128839   6.894   4.707  16.841  3.1329 -0.2224 -0.7905
 1548TIP3    H228840   6.857   4.627  16.964  0.5111 -0.7689 -1.8799
 1549TIP3   OH228841   2.382   0.264  17.514  0.1360  0.0654 -0.2054
 1549TIP3    H128842   2.299   0.310  17.500  0.0212 -0.1037 -0.0734
 1549TIP3    H228843   2.438   0.329  17.557 -0.3602 -0.2381  0.9289
 1550TIP3   OH228844   5.525   3.198  16.869 -0.2735  0.1109 -0.6039
 1550TIP3    H128845   5.531   3.209  16.964  0.2366 -0.9860 -0.4900
 1550TIP3    H228846   5.436   3.166  16.855 -0.1725 -0.2644 -0.4228
 1551TIP3   OH228847   2.210   6.979  18.049  0.0564 -0.0035 -0.2305
 1551TIP3    H128848   2.169   7.004  17.966  1.1448 -0.3855 -0.8963
 1551TIP3    H228849   2.301   7.005  18.040  0.6165 -1.7075  0.1094
 1552TIP3   OH228850   6.278   0.879  17.395 -0.2800 -0.1304 -0.1412
 1552TIP3    H128851   6.205   0.931  17.430  0.1751  0.1475  0.4174
 1552TIP3    H228852   6.356   0.919  17.433  0.1892 -0.2639 -0.9343
 1553TIP3   OH228853   7.560   4.712  17.049  0.0396 -0.0503  0.4916
 1553TIP3    H128854   7.593   4.744  17.133 -0.7001 -0.3825  0.9126
 1553TIP3    H228855   7.637   4.712  16.992 -0.0674  3.4947  0.1291
 1554TIP3   OH228856   7.269   4.538  16.568 -0.0107 -0.1418 -1.0700
 1554TIP3    H128857   7.361   4.516  16.560  0.0504  0.0286 -0.8509
 1554TIP3    H228858   7.268   4.633  16.576 -0.1302 -0.2107 -0.0979
 1555TIP3   OH228859   3.740   1.723  15.791  0.1874 -0.1251 -0.2584
 1555TIP3    H128860   3.708   1.634  15.779  1.6971 -0.8600  0.9103
 1555TIP3    H228861   3.749   1.733  15.885  0.9359  0.9538 -0.4273
 1556TIP3   OH228862   0.770   2.068  16.405  0.0999  0.1464  0.2453
 1556TIP3    H128863   0.788   2.127  16.331 -0.4091 -0.0599 -0.0522
 1556TIP3    H228864   0.803   1.983  16.376  1.8956  0.5126  1.1392
 1557TIP3   OH228865   7.227   4.243  17.309 -0.2813 -0.2622 -0.4113
 1557TIP3    H128866   7.292   4.181  17.276  0.2937  1.2697 -2.3314
 1557TIP3    H228867   7.161   4.248  17.240 -1.6634 -0.5919  0.8268
 1558TIP3   OH228868   4.571   5.482  16.061 -0.1111  0.4872 -0.4620
 1558TIP3    H128869   4.499   5.517  16.009 -0.9219  0.9883  0.9333
 1558TIP3    H228870   4.566   5.387  16.048 -0.4748  0.5808 -1.0478
 1559TIP3   OH228871   1.915   6.857  16.543 -0.4451 -0.3539  0.2399
 1559TIP3    H128872   1.871   6.843  16.459 -0.5977  1.1723  0.0354
 1559TIP3    H228873   1.857   6.816  16.607 -0.9850 -0.3905 -0.2619
 1560TIP3   OH228874   2.609   7.997  17.831  0.1250 -0.7130 -0.1147
 1560TIP3    H128875   2.663   7.930  17.874 -0.0680 -1.0637 -0.4184
 1560TIP3    H228876   2.536   8.011  17.891  0.7622  0.0829  0.5118
 1561TIP3   OH228877   4.356   6.527  16.201 -0.3045 -0.0160  0.7600
 1561TIP3    H128878   4.317   6.540  16.287  1.7056  0.6002  1.6381
 1561TIP3    H228879   4.396   6.612  16.180  0.3791 -0.5496 -0.1595
 1562TIP3   OH228880   8.763   5.444  17.360  0.1653 -0.4164 -0.6229
 1562TIP3    H128881   8.760   5.492  17.443  0.9419 -2.6554  0.8067
 1562TIP3    H228882   8.676   5.406  17.351 -0.3184  0.8393 -1.5366
 1563TIP3   OH228883   6.506   7.158  15.932  0.0885  0.3769  0.3249
 1563TIP3    H128884   6.590   7.128  15.897 -0.4771 -1.6910  0.5924
 1563TIP3    H228885   6.441   7.122  15.872 -0.7263 -0.4151  1.6488
 1564TIP3   OH228886   6.137   4.720  16.807 -0.2546  0.0291 -0.1127
 1564TIP3    H128887   6.159   4.798  16.858 -1.3215  0.8419 -0.8380
 1564TIP3    H228888   6.200   4.720  16.735  0.4146 -0.3775  0.4666
 1565TIP3   OH228889   1.533   3.790  17.273  0.3211  0.0863  0.1698
 1565TIP3    H128890   1.616   3.785  17.320  0.1684 -1.2489  0.3315
 1565TIP3    H228891   1.521   3.883  17.255  1.6474  0.3351  0.5027
 1566TIP3   OH228892   1.979   6.591  16.321 -0.3490  0.0834 -0.2546
 1566TIP3    H128893   2.052   6.595  16.259 -0.7949 -2.7283 -1.1158
 1566TIP3    H228894   1.902   6.616  16.270 -0.3681  0.3296 -0.1073
 1567TIP3   OH228895   8.616   8.806  16.521  0.0267 -0.5532 -0.6975
 1567TIP3    H128896   8.641   8.758  16.600  1.9193 -1.0833 -1.5661
 1567TIP3    H228897   8.542   8.756  16.485 -1.1469 -0.0556  0.9140
 1568TIP3   OH228898   1.550   1.317  17.235 -0.1936 -0.0494  0.4288
 1568TIP3    H128899   1.631   1.318  17.184 -0.1917  2.5950  0.3527
 1568TIP3    H228900   1.562   1.245  17.297  1.7168 -0.4711 -0.3454
 1569TIP3   OH228901   3.302   0.796  16.552 -0.2932 -0.9498 -0.3145
 1569TIP3    H128902   3.228   0.810  16.611  0.7975 -2.1991  1.4570
 1569TIP3    H228903   3.275   0.722  16.497 -0.7676 -0.7000 -0.4219
 1570TIP3   OH228904   8.077   1.616  16.437  0.3018 -0.1375  0.2743
 1570TIP3    H128905   8.037   1.537  16.399 -1.6423  1.5300 -1.3883
 1570TIP3    H228906   8.097   1.671  16.362 -2.9859  2.9945  1.3958
 1571TIP3   OH228907   6.705   3.775  17.884  0.2851  0.4636 -0.5051
 1571TIP3    H128908   6.698   3.797  17.977 -2.6928 -1.7214 -0.0702
 1571TIP3    H228909   6.795   3.800  17.860 -0.0397  4.8503  1.8470
 1572TIP3   OH228910   3.854   1.532  17.529 -0.1087  0.4273 -0.2491
 1572TIP3    H128911   3.881   1.573  17.611  0.6821  1.6123 -1.0694
 1572TIP3    H228912   3.765   1.564  17.515 -0.5607 -0.4410  0.5436
 1573TIP3   OH228913   9.076   1.113  16.859 -0.0140  0.3792  0.0871
 1573TIP3    H128914   9.027   1.195  16.866 -0.1798  0.2710  0.2393
 1573TIP3    H228915   9.142   1.129  16.792  0.5256  0.9245  0.7237
 1574TIP3   OH228916   5.095   3.239  16.889  0.2671  0.4103  0.0401
 1574TIP3    H128917   5.169   3.193  16.849 -0.1097 -0.7161  0.5870
 1574TIP3    H228918   5.135   3.293  16.958  0.6207  0.0707  0.1062
 1575TIP3   OH228919   7.132   0.211  16.764 -0.0370 -0.1129  0.2277
 1575TIP3    H128920   7.147   0.305  16.774 -0.1552 -0.1522  0.8092
 1575TIP3    H228921   7.208   0.170  16.805 -0.3502 -0.2794  0.6433
 1576TIP3   OH228922   8.762   3.981  16.320 -0.5157  0.0534 -0.1673
 1576TIP3    H128923   8.798   3.917  16.381  1.2205  1.4574  0.3886
 1576TIP3    H228924   8.776   3.943  16.234  1.2924  0.0152  0.1066
 1577TIP3   OH228925   8.620   8.672  17.375  0.4196  0.3684 -0.2636
 1577TIP3    H128926   8.661   8.735  17.317 -0.3876  0.6286 -0.5656
 1577TIP3    H228927   8.590   8.724  17.450  2.1991 -0.0861  0.8186
 1578TIP3   OH228928   3.613   0.040  16.982  0.0142 -0.0505 -0.3629
 1578TIP3    H128929   3.678   0.109  16.971  0.0346 -0.1985 -1.2499
 1578TIP3    H228930   3.664  -0.042  16.976 -0.0512 -0.1460  0.3747
 1579TIP3   OH228931   2.855   6.522  17.061  0.2943 -0.2353  0.2767
 1579TIP3    H128932   2.770   6.483  17.039  0.0033  0.3920  0.2840
 1579TIP3    H228933   2.916   6.448  17.059 -0.2057 -0.6486  0.0200
 1580TIP3   OH228934   3.993   5.491  17.679 -0.3887 -0.1793  0.2858
 1580TIP3    H128935   4.020   5.552  17.747  1.7598 -1.1303  0.3748
 1580TIP3    H228936   4.023   5.531  17.597 -1.2001  0.0356  0.0856
 1581TIP3   OH228937   6.004   7.867  17.102 -0.4072 -0.2361 -0.8202
 1581TIP3    H128938   6.030   7.803  17.035 -0.0204 -1.9146  0.8541
 1581TIP3    H228939   5.909   7.862  17.104 -0.3443 -1.8019  0.1991
 1582TIP3   OH228940   8.640   8.993  16.850  0.1181  0.1139  0.0762
 1582TIP3    H128941   8.620   9.081  16.881 -3.3307 -0.5418  0.1130
 1582TIP3    H228942   8.600   8.934  16.914 -1.4859 -1.3549 -2.0891
 1583TIP3   OH228943   2.854   0.610  16.030 -0.3951  0.1835  0.1001
 1583TIP3    H128944   2.763   0.580  16.040 -0.2347 -0.8042 -1.0825
 1583TIP3    H228945   2.906   0.529  16.036  0.5021  0.8359  1.6265
 1584TIP3   OH228946   1.244   8.699  16.888 -0.3397 -0.9087 -1.0772
 1584TIP3    H128947   1.187   8.747  16.828 -0.5582  0.8865  0.4726
 1584TIP3    H228948   1.186   8.635  16.930 -0.7591 -0.4802 -0.9931
 1585TIP3   OH228949   1.538   1.526  16.923 -0.0145 -0.0180  0.0509
 1585TIP3    H128950   1.445   1.523  16.901  0.0593  0.1188 -0.2878
 1585TIP3    H228951   1.542   1.578  17.003 -0.3384 -0.9703  0.6932
 1586TIP3   OH228952   1.262   4.412  16.360 -0.2945  0.3017 -0.1032
 1586TIP3    H128953   1.350   4.377  16.346 -0.9624 -1.1145 -1.0792
 1586TIP3    H228954   1.271   4.473  16.433  1.7972  1.4543 -1.2256
 1587TIP3   OH228955   7.865   8.860  16.244 -0.5446 -0.4865  0.6137
 1587TIP3    H128956   7.897   8.791  16.303 -0.3177 -1.2314 -0.3457
 1587TIP3    H228957   7.936   8.925  16.244 -0.2372 -0.8175  0.6136
 1588TIP3   OH228958   0.185   2.406  17.203 -0.1586  0.1965  0.2232
 1588TIP3    H128959   0.113   2.387  17.143 -0.5238  1.0388  0.3812
 1588TIP3    H228960   0.147   2.395  17.290 -0.1608  0.8343  0.3098
 1589TIP3   OH228961   5.497   7.392  17.494 -0.3115  0.5233 -0.2994
 1589TIP3    H128962   5.563   7.451  17.532  1.5449 -0.4635 -1.8141
 1589TIP3    H228963   5.478   7.329  17.563 -0.1071  1.1627  0.3542
 1590TIP3   OH228964   5.286   6.872  17.760  0.3517 -0.3837 -0.2661
 1590TIP3    H128965   5.314   6.901  17.673  0.7773  1.0849  0.3232
 1590TIP3    H228966   5.367   6.843  17.803  0.3024 -0.1837 -0.0358
 1591TIP3   OH228967   0.950   3.426  17.386  0.1152 -0.3158 -0.0586
 1591TIP3    H128968   1.017   3.482  17.348 -1.3264  1.6521  0.1490
 1591TIP3    H228969   0.998   3.351  17.421  1.9268 -0.1165 -1.9184
 1592TIP3   OH228970   7.288   7.249  17.040 -0.0100 -0.5899 -0.2178
 1592TIP3    H128971   7.363   7.189  17.040 -0.1728 -0.8109  0.7725
 1592TIP3    H228972   7.324   7.332  17.008  0.1020 -1.3149 -2.1154
 1593TIP3   OH228973   3.377   8.516  17.486 -0.3184 -0.4586  0.3059
 1593TIP3    H128974   3.305   8.457  17.510 -0.6267  0.0143  0.5750
 1593TIP3    H228975   3.375   8.517  17.390  0.3000 -1.6114  0.2619
 1594TIP3   OH228976   7.206   2.561  16.560 -0.4461  0.4253  0.1436
 1594TIP3    H128977   7.224   2.649  16.528 -2.3208  0.4745 -0.9342
 1594TIP3    H228978   7.271   2.505  16.517  1.1628  1.2974  1.3121
 1595TIP3   OH228979   3.599   4.124  16.756  0.0669  0.0458 -0.3664
 1595TIP3    H128980   3.577   4.203  16.806 -2.3720 -1.3069  0.9234
 1595TIP3    H228981   3.538   4.124  16.682  1.4602  0.3700 -1.5614
 1596TIP3   OH228982   4.576   6.524  17.671 -0.6573 -0.1233 -0.1345
 1596TIP3    H128983   4.644   6.471  17.713  0.1941  0.2614 -0.9868
 1596TIP3    H228984   4.519   6.460  17.629  0.4828 -0.4132 -1.3361
 1597TIP3   OH228985   6.452   1.558  17.611  0.1323  0.2160 -0.3885
 1597TIP3    H128986   6.457   1.522  17.522  1.1582 -0.2761 -0.1511
 1597TIP3    H228987   6.386   1.505  17.655 -0.5300  0.5923 -0.9068
 1598TIP3   OH228988   5.417   8.907  16.996  0.0960 -0.0527 -0.3591
 1598TIP3    H128989   5.416   8.920  16.901  0.2850  0.9578 -0.2415
 1598TIP3    H228990   5.492   8.960  17.026 -1.5801  1.8857  0.6328
 1599TIP3   OH228991   0.839   2.472  17.402 -0.0358  0.2096  0.2153
 1599TIP3    H128992   0.882   2.458  17.318  0.2293  0.3406  0.3299
 1599TIP3    H228993   0.745   2.476  17.380 -0.0343 -0.5509  0.0223
 1600TIP3   OH228994   0.852   6.693  17.386  0.4434 -0.3618  0.2059
 1600TIP3    H128995   0.898   6.771  17.353 -0.3421 -0.6404 -1.6792
 1600TIP3    H228996   0.765   6.724  17.408 -0.2673 -0.8827 -1.7033
 1601TIP3   OH228997   5.906   2.949  17.339  0.3988  0.1681 -0.0275
 1601TIP3    H128998   5.939   2.866  17.372 -1.3185 -0.3019  0.6484
 1601TIP3    H228999   5.811   2.942  17.349  0.2800  2.8940  1.6452
 1602TIP3   OH229000   1.806   2.152  15.891 -0.4224 -0.5159 -0.0696
 1602TIP3    H129001   1.795   2.135  15.984  2.4574  2.0452  0.9314
 1602TIP3    H229002   1.766   2.238  15.878  0.2641 -0.3073 -0.8835
 1603TIP3   OH229003   1.677   3.746  16.215 -0.6015 -0.1034  0.7367
 1603TIP3    H129004   1.591   3.719  16.183  0.0738  1.7652 -3.2395
 1603TIP3    H229005   1.660   3.829  16.260 -1.1998 -1.3446  2.9266
 1604TIP3   OH229006   8.617   1.782  16.105  0.0049  0.8121  0.3539
 1604TIP3    H129007   8.704   1.752  16.131 -0.2068  0.5982  0.8417
 1604TIP3    H229008   8.633   1.846  16.036  0.5554  0.8653  0.5251
 1605TIP3   OH229009   0.737   6.045  16.735  0.1958  0.0853 -0.5951
 1605TIP3    H129010   0.787   6.073  16.811  1.0769  0.8110 -1.4234
 1605TIP3    H229011   0.646   6.064  16.757  0.6333  2.3008 -0.5539
 1606TIP3   OH229012   2.616   5.940  16.180  0.5317  0.1879 -0.5802
 1606TIP3    H129013   2.692   5.945  16.122  0.1865  0.9270 -0.9713
 1606TIP3    H229014   2.587   5.849  16.173  0.5205  0.2560 -1.5306
 1607TIP3   OH229015   4.348   8.585  16.663 -0.2488  0.0699 -0.1393
 1607TIP3    H129016   4.334   8.600  16.570  0.1860  0.5642 -0.1352
 1607TIP3    H229017   4.261   8.576  16.700 -0.3993 -2.1141 -0.8829
 1608TIP3   OH229018   8.776   2.183  16.953 -0.0667 -0.1945 -0.1817
 1608TIP3    H129019   8.712   2.237  17.000 -0.1002 -0.1126 -0.3221
 1608TIP3    H229020   8.834   2.149  17.021 -0.2567 -0.2655 -0.0539
 1609TIP3   OH229021   7.230   8.671  16.055  0.4108 -0.5508 -0.0793
 1609TIP3    H129022   7.136   8.688  16.045  0.3801  0.6570  1.7530
 1609TIP3    H229023   7.234   8.583  16.092 -0.1543  0.1215  1.6894
 1610TIP3   OH229024   8.314   8.842  16.130 -0.3012  0.1704 -1.1661
 1610TIP3    H129025   8.238   8.784  16.136 -0.5637  0.6229  1.1079
 1610TIP3    H229026   8.383   8.788  16.092 -0.4469 -1.8144  1.0863
 1611TIP3   OH229027   3.532   1.558  15.603 -0.8944 -0.4955 -0.1159
 1611TIP3    H129028   3.468   1.542  15.672 -0.9074 -0.1360 -0.0403
 1611TIP3    H229029   3.554   1.651  15.612 -0.4692 -0.5821 -0.2292
 1612TIP3   OH229030   8.970   1.371  16.873 -0.2105  0.2760  0.0594
 1612TIP3    H129031   9.064   1.386  16.860  0.2452  0.4954  2.9053
 1612TIP3    H229032   8.935   1.458  16.892 -0.8845  0.0983 -0.3546
 1613TIP3   OH229033   5.358   8.234  17.357  0.0870 -0.2453  0.4604
 1613TIP3    H129034   5.432   8.249  17.416  0.2565  1.1244 -0.0701
 1613TIP3    H229035   5.284   8.278  17.399  0.1087  0.3667 -0.1342
 1614TIP3   OH229036   3.633   3.683  17.695  0.3465  0.1045  0.0592
 1614TIP3    H129037   3.538   3.688  17.686  0.4302 -0.0814 -1.1402
 1614TIP3    H229038   3.660   3.774  17.710 -0.0926  0.0220  1.4906
 1615TIP3   OH229039   1.541   5.073  16.200 -0.5113 -0.2816 -0.0524
 1615TIP3    H129040   1.476   5.143  16.209 -0.2374  0.1369 -1.1674
 1615TIP3    H229041   1.531   5.021  16.280 -0.7923  0.9596  0.7443
 1616TIP3   OH229042   3.691   6.459  15.899 -0.1744  0.7233  0.0483
 1616TIP3    H129043   3.661   6.518  15.969 -1.3972  0.1727 -0.0009
 1616TIP3    H229044   3.614   6.444  15.845  0.3135 -0.3355 -0.3739
 1617TIP3   OH229045   6.657   5.798  16.883 -0.0111  0.6080 -0.0092
 1617TIP3    H129046   6.642   5.749  16.802  0.3134  2.4135 -1.2126
 1617TIP3    H229047   6.630   5.887  16.862 -0.7285  0.9380  2.1616
 1618TIP3   OH229048   8.414   8.184  16.560 -0.1147 -0.2668  0.1512
 1618TIP3    H129049   8.479   8.236  16.607 -0.7249  1.1728 -0.5316
 1618TIP3    H229050   8.423   8.095  16.596  1.1728  0.2301  1.1271
 1619TIP3   OH229051   2.435   8.189  17.468  0.2239  0.1349 -0.3485
 1619TIP3    H129052   2.504   8.249  17.441 -0.8881  1.7680  0.2325
 1619TIP3    H229053   2.404   8.149  17.386 -1.0230  2.6782 -1.2421
 1620TIP3   OH229054   1.947   6.327  16.946 -0.0998 -0.7220 -0.0771
 1620TIP3    H129055   1.901   6.402  16.984  0.5503 -0.3982  0.0777
 1620TIP3    H229056   1.993   6.287  17.020  1.5066  0.1534 -0.5550
 1621TIP3   OH229057   4.587   4.700  17.324 -0.5944  0.2742 -0.1122
 1621TIP3    H129058   4.664   4.646  17.344  0.1258  1.7386  1.3179
 1621TIP3    H229059   4.568   4.746  17.406 -0.6631  2.7818 -1.4406
 1622TIP3   OH229060   5.015   8.306  16.702  0.5256 -0.3193 -0.2882
 1622TIP3    H129061   5.049   8.292  16.614  0.4038  2.2789 -0.8275
 1622TIP3    H229062   5.032   8.399  16.720 -0.9739 -0.3712  1.7473
 1623TIP3   OH229063   6.386   2.309  16.836  0.1609 -0.4830 -0.1434
 1623TIP3    H129064   6.414   2.372  16.769  1.3124 -0.4780  0.3235
 1623TIP3    H229065   6.467   2.281  16.878 -0.4284 -1.5210  0.3432
 1624TIP3   OH229066   1.473   2.581  16.926 -0.1326 -0.6304  0.1273
 1624TIP3    H129067   1.384   2.557  16.898  1.0556 -1.2717 -3.6579
 1624TIP3    H229068   1.489   2.526  17.002 -2.5910 -1.3014  0.2482
 1625TIP3   OH229069   3.614   6.195  16.335 -0.1263 -0.4658 -0.5385
 1625TIP3    H129070   3.618   6.140  16.257 -0.8755 -0.4889 -0.5656
 1625TIP3    H229071   3.567   6.273  16.306 -1.6360 -1.0624  0.2216
 1626TIP3   OH229072   7.481   7.489  15.941 -0.4472  0.2188  0.4444
 1626TIP3    H129073   7.555   7.524  15.892 -0.8159  0.9561  0.4113
 1626TIP3    H229074   7.467   7.551  16.012 -0.8586 -0.0579  0.6108
 1627TIP3   OH229075   2.301   7.251  16.684  0.1201 -0.3805 -0.0491
 1627TIP3    H129076   2.234   7.197  16.642 -1.0657  0.5202  0.6384
 1627TIP3    H229077   2.265   7.270  16.771  1.0817  0.4860  0.1721
 1628TIP3   OH229078   1.945   8.678  17.375  0.0396 -0.5952 -0.4783
 1628TIP3    H129079   2.022   8.726  17.346 -0.3019 -0.9365 -1.9945
 1628TIP3    H229080   1.892   8.667  17.297 -1.4683 -0.5481  0.4862
 1629TIP3   OH229081   4.310   3.727  17.033 -0.1843 -0.3565  0.1830
 1629TIP3    H129082   4.372   3.656  17.017  1.5208  1.1477 -0.2076
 1629TIP3    H229083   4.325   3.789  16.961 -1.1843  0.6963  0.8430
 1630TIP3   OH229084   3.746   6.293  15.573  0.0295  0.2942 -0.1276
 1630TIP3    H129085   3.677   6.244  15.616  1.5907 -1.8299  0.1225
 1630TIP3    H229086   3.717   6.384  15.576 -2.4238 -0.4441  0.4945
 1631TIP3   OH229087   5.436   7.013  15.759 -0.1484 -0.1525  0.0645
 1631TIP3    H129088   5.354   7.047  15.796  0.9188  2.7559  0.0217
 1631TIP3    H229089   5.419   7.007  15.665 -0.8181 -1.2504  0.2383
 1632TIP3   OH229090   9.033   2.869  17.792 -0.1903  0.0358 -0.7348
 1632TIP3    H129091   9.013   2.902  17.880  1.1860 -1.8343  0.3470
 1632TIP3    H229092   8.954   2.821  17.766 -0.7016  0.8142 -0.6313
 1633TIP3   OH229093   0.147   3.867  17.254  0.1864 -0.3182 -0.5486
 1633TIP3    H129094   0.172   3.792  17.309  1.3457  0.2405 -0.2836
 1633TIP3    H229095   0.230   3.909  17.233 -0.5357  2.1359  1.0616
 1634TIP3   OH229096   2.258   7.542  15.813  0.1724  0.4136 -0.0263
 1634TIP3    H129097   2.173   7.560  15.854 -0.2618 -2.0142  0.3265
 1634TIP3    H229098   2.238   7.479  15.744  1.9514 -2.8604  2.1854
 1635TIP3   OH229099   1.720   2.900  16.693  0.4377  0.3301 -0.4326
 1635TIP3    H129100   1.746   2.990  16.712 -0.8847  0.7013 -0.2856
 1635TIP3    H229101   1.678   2.904  16.607  0.8267 -0.2433 -0.6549
 1636TIP3   OH229102   8.366   0.486  17.659 -0.6434 -0.1468 -0.8478
 1636TIP3    H129103   8.380   0.392  17.671  1.6195  0.3683  1.4327
 1636TIP3    H229104   8.448   0.526  17.689 -1.8005  2.6122 -1.0824
 1637TIP3   OH229105   1.265   4.897  16.392 -0.1237 -0.0852 -0.0356
 1637TIP3    H129106   1.203   4.837  16.432  0.1492  1.1936  2.5498
 1637TIP3    H229107   1.226   4.922  16.309 -1.9288 -1.1016  0.4703
 1638TIP3   OH229108   0.052   4.726  17.863 -0.0950  0.4230  0.2178
 1638TIP3    H129109   0.069   4.690  17.949 -0.7413  0.0368  0.1919
 1638TIP3    H229110  -0.041   4.752  17.866  0.2732  1.8576  0.1574
 1639TIP3   OH229111   7.228   2.130  17.004 -0.0450  0.8545 -0.2008
 1639TIP3    H129112   7.177   2.064  17.050 -1.9772  1.6546 -1.0713
 1639TIP3    H229113   7.229   2.205  17.063 -0.8480  1.2030 -0.6029
 1640TIP3   OH229114   0.761   1.963  16.053  0.2899 -0.6223 -0.2342
 1640TIP3    H129115   0.783   1.919  16.135 -0.6463 -1.6189 -0.4903
 1640TIP3    H229116   0.838   2.016  16.033  1.5101 -2.1769  0.0869
 1641TIP3   OH229117   4.015   5.139  16.417  0.3908  0.7548  0.2294
 1641TIP3    H129118   4.018   5.067  16.353 -0.0381 -0.1776  1.2204
 1641TIP3    H229119   4.064   5.105  16.493 -1.9665  0.4681  1.7160
 1642TIP3   OH229120   7.448   1.143  17.812  0.0985 -0.1709 -0.1654
 1642TIP3    H129121   7.448   1.049  17.827  1.4172 -0.1755 -0.0728
 1642TIP3    H229122   7.541   1.168  17.814 -0.1673  0.9973 -0.9691
 1643TIP3   OH229123   3.909   1.652  17.807  0.0154 -0.3634 -0.1625
 1643TIP3    H129124   3.887   1.563  17.835  1.0094 -0.1205  1.5811
 1643TIP3    H229125   3.848   1.708  17.855  1.3163  0.0284  1.1402
 1644TIP3   OH229126   6.480   5.115  17.784  0.5751  0.2375 -0.3498
 1644TIP3    H129127   6.436   5.068  17.714 -0.7093  1.7809 -0.6262
 1644TIP3    H229128   6.559   5.063  17.802 -0.4229 -1.6180 -1.0757
 1645TIP3   OH229129   4.527   9.136  15.978  0.2098 -0.4568  0.0985
 1645TIP3    H129130   4.559   9.072  16.041  2.5634 -0.1569 -0.6821
 1645TIP3    H229131   4.593   9.205  15.977 -0.5233  0.3014 -1.5760
 1646TIP3   OH229132   7.552   0.281  17.692  0.5936 -0.3681  0.9007
 1646TIP3    H129133   7.598   0.216  17.745  2.3636 -0.8595 -1.1091
 1646TIP3    H229134   7.470   0.238  17.668  0.8105 -1.0309  1.3105
 1647TIP3   OH229135   2.846   9.145  17.281  0.3305 -0.1233  0.1482
 1647TIP3    H129136   2.837   9.186  17.367  1.0820 -1.0715  0.6998
 1647TIP3    H229137   2.778   9.186  17.227 -0.5368  0.0583  1.3508
 1648TIP3   OH229138   5.365   7.695  17.586  0.4974  0.2515  0.7209
 1648TIP3    H129139   5.408   7.630  17.642  0.6882 -0.9517 -0.7914
 1648TIP3    H229140   5.437   7.743  17.545  0.3725  0.1879  0.4241
 1649TIP3   OH229141   1.744   8.413  15.802  0.6177 -0.6202  0.2679
 1649TIP3    H129142   1.764   8.320  15.812  0.1445 -0.9343 -1.3498
 1649TIP3    H229143   1.649   8.418  15.800  0.5980 -0.4938 -2.2228
 1650TIP3   OH229144   3.858   6.134  16.730  0.6475 -0.3718  0.0925
 1650TIP3    H129145   3.913   6.068  16.689  1.9269  0.2957  0.6966
 1650TIP3    H229146   3.827   6.093  16.811 -0.7134 -1.1618 -0.7882
 1651TIP3   OH229147   7.883   2.198  18.166  0.3846  0.5343  0.3695
 1651TIP3    H129148   7.939   2.124  18.192  2.1048  1.0050 -1.6570
 1651TIP3    H229149   7.916   2.272  18.216  1.1015  0.6441 -0.2421
 1652TIP3   OH229150   8.162   8.904  16.884 -0.0774 -0.1404  0.0054
 1652TIP3    H129151   8.190   8.874  16.797  0.7838  0.6176  0.0059
 1652TIP3    H229152   8.237   8.887  16.940 -0.8875 -1.2980  0.7833
 1653TIP3   OH229153   1.547   3.035  17.244  0.1522  0.3067 -0.4986
 1653TIP3    H129154   1.552   3.123  17.208  0.7594  0.0606 -1.0501
 1653TIP3    H229155   1.545   2.978  17.166 -0.4902 -0.1555 -0.1522
 1654TIP3   OH229156   7.667   8.144  16.434 -0.6826 -0.0793  0.0131
 1654TIP3    H129157   7.647   8.237  16.424 -1.0590 -0.2252 -0.6522
 1654TIP3    H229158   7.595   8.110  16.487  0.1498  0.2558  1.4180
 1655TIP3   OH229159   2.790   7.831  17.253 -0.4225  0.2279  0.3509
 1655TIP3    H129160   2.733   7.907  17.263  0.8920  1.1004  1.4218
 1655TIP3    H229161   2.869   7.853  17.302  0.9686 -0.8402 -1.3035
 1656TIP3   OH229162   7.905   1.626  17.124 -0.0348 -0.5717  0.0092
 1656TIP3    H129163   7.922   1.587  17.039 -0.2073 -0.5236 -0.0457
 1656TIP3    H229164   7.850   1.562  17.170 -0.5459 -0.2741 -0.1816
 1657TIP3   OH229165   1.957   1.606  16.973  0.9579  0.3733  0.2544
 1657TIP3    H129166   1.941   1.542  17.042 -3.5275  1.9364  0.9441
 1657TIP3    H229167   1.907   1.574  16.898 -0.1644  2.2538  0.1424
 1658TIP3   OH229168   4.102   4.129  16.097 -0.1975 -0.2487 -0.2048
 1658TIP3    H129169   4.141   4.202  16.145 -3.0579  0.1054  1.8631
 1658TIP3    H229170   4.118   4.053  16.153 -0.1993 -0.5606 -0.6307
 1659TIP3   OH229171   2.156   5.606  17.311 -0.4413  0.1661  0.0702
 1659TIP3    H129172   2.062   5.622  17.316 -0.4385  0.1233  0.2730
 1659TIP3    H229173   2.184   5.653  17.233 -0.8598 -0.9343 -0.7673
 1660TIP3   OH229174   3.713   1.564  16.649  0.2363  0.1719 -0.0409
 1660TIP3    H129175   3.783   1.538  16.709 -0.6873  0.0844  1.0506
 1660TIP3    H229176   3.646   1.497  16.661 -1.1596  1.6765  0.9798
 1661TIP3   OH229177   7.734   4.857  17.343  0.0087  0.0251 -0.5884
 1661TIP3    H129178   7.675   4.868  17.417  0.9638 -0.5689  0.2919
 1661TIP3    H229179   7.775   4.772  17.357  1.7013  0.7807 -0.6830
 1662TIP3   OH229180   5.627   0.981  16.366 -0.2910 -0.4110  0.0193
 1662TIP3    H129181   5.680   0.921  16.313 -1.5524 -0.7861 -0.8594
 1662TIP3    H229182   5.624   1.062  16.315 -0.5460 -0.3815  0.0807
 1663TIP3   OH229183   5.072   6.753  16.784  0.0988  0.1945  0.1243
 1663TIP3    H129184   5.058   6.847  16.770 -0.3076 -0.0279 -1.0221
 1663TIP3    H229185   5.164   6.739  16.762 -0.0074  0.2113 -0.3361
 1664TIP3   OH229186   7.042   7.124  17.096 -0.2903  0.1464  0.5947
 1664TIP3    H129187   7.024   7.077  17.015  2.1398 -0.4126  0.2878
 1664TIP3    H229188   7.135   7.147  17.090 -0.5811  2.0704  2.2473
 1665TIP3   OH229189   4.564   8.119  17.428  0.2389 -0.0772 -0.0560
 1665TIP3    H129190   4.483   8.134  17.379 -0.8820 -1.8138  1.1621
 1665TIP3    H229191   4.619   8.194  17.405 -1.5949  1.0428 -1.1103
 1666TIP3   OH229192   7.645   8.765  16.589 -0.1612  0.2711 -0.2269
 1666TIP3    H129193   7.738   8.779  16.572 -0.5777  2.3025 -1.0588
 1666TIP3    H229194   7.643   8.695  16.655  1.8231 -2.0203 -2.3938
 1667TIP3   OH229195   5.698   3.297  17.091  0.0881 -0.3658 -0.4956
 1667TIP3    H129196   5.769   3.240  17.121  1.8623 -0.1047 -3.7710
 1667TIP3    H229197   5.722   3.384  17.124 -0.7330 -0.8177  1.4591
 1668TIP3   OH229198   3.313   6.561  17.462 -0.6875 -0.5337  0.4063
 1668TIP3    H129199   3.306   6.479  17.512  2.2101 -1.2225 -0.1202
 1668TIP3    H229200   3.347   6.624  17.525  0.0019 -0.5730  0.0801
 1669TIP3   OH229201   6.631   2.384  16.240 -0.5173  0.2426 -0.7380
 1669TIP3    H129202   6.718   2.401  16.204  0.7453  0.7646  2.2180
 1669TIP3    H229203   6.608   2.465  16.287 -1.8506 -0.4610 -0.1186
 1670TIP3   OH229204   5.371   7.955  17.137 -0.1449 -0.2628 -0.3583
 1670TIP3    H129205   5.340   7.894  17.203 -1.0045 -0.2186 -0.7122
 1670TIP3    H229206   5.377   7.903  17.057  0.0486 -0.1071 -0.4483
 1671TIP3   OH229207   1.904   7.457  18.007  0.1496  0.6820  0.0268
 1671TIP3    H129208   1.988   7.413  17.995  0.1188  1.0037 -1.5810
 1671TIP3    H229209   1.888   7.501  17.923 -0.9777  1.7415  0.7637
 1672TIP3   OH229210   7.131   3.116  17.623  0.0389 -0.1434  0.0009
 1672TIP3    H129211   7.046   3.148  17.594 -0.1449  1.0119  1.6666
 1672TIP3    H229212   7.124   3.021  17.617 -0.5292 -0.0304 -2.0466
 1673TIP3   OH229213   1.114   7.733  17.510  0.3893  0.3117 -0.0416
 1673TIP3    H129214   1.114   7.706  17.418 -0.1537  1.4039 -0.3677
 1673TIP3    H229215   1.079   7.657  17.557  2.2851 -0.9289 -0.5061
 1674TIP3   OH229216   2.768   0.990  16.892 -0.0775 -0.0540  0.4888
 1674TIP3    H129217   2.831   1.026  16.830 -0.0173 -0.7265  0.1440
 1674TIP3    H229218   2.721   0.924  16.842 -1.5855  0.9513  0.5228
 1675TIP3   OH229219   6.455   0.204  16.839 -0.4271 -0.1653  0.3009
 1675TIP3    H129220   6.457   0.293  16.876  2.4047  0.1094 -0.2445
 1675TIP3    H229221   6.474   0.147  16.913  1.7970  0.0907 -0.0128
 1676TIP3   OH229222   3.528   6.419  16.192  0.5606 -0.2495  0.0851
 1676TIP3    H129223   3.566   6.497  16.152 -1.9125  0.4619 -1.0840
 1676TIP3    H229224   3.487   6.373  16.119 -0.0055 -1.4320  1.1224
 1677TIP3   OH229225   5.208   1.736  17.903 -0.1004  0.3875  0.1415
 1677TIP3    H129226   5.224   1.830  17.899 -1.1850  0.5560 -1.8155
 1677TIP3    H229227   5.124   1.725  17.858  0.5711 -1.6242 -0.7238
 1678TIP3   OH229228   3.553   1.051  17.500  0.8480  0.1773  0.0933
 1678TIP3    H129229   3.491   1.124  17.494 -0.9278 -1.0081  2.3274
 1678TIP3    H229230   3.638   1.090  17.480  0.0281  2.9493  1.4430
 1679TIP3   OH229231   8.477   5.284  16.509  0.1681  0.8134  0.1044
 1679TIP3    H129232   8.438   5.370  16.492  0.3415  1.1193  1.1971
 1679TIP3    H229233   8.464   5.235  16.427 -1.5792  1.2422  0.0932
 1680TIP3   OH229234   4.203   8.012  16.087 -0.3442  0.0181 -0.0877
 1680TIP3    H129235   4.184   7.973  16.173  1.5351  0.5704  0.6262
 1680TIP3    H229236   4.117   8.030  16.049 -1.2744  1.1846  2.3504
 1681TIP3   OH229237   2.046   0.475  16.831  0.7450 -0.0675  0.0578
 1681TIP3    H129238   2.142   0.481  16.830  0.7672 -0.3981 -0.2316
 1681TIP3    H229239   2.017   0.552  16.781  0.9794 -1.5062 -2.4755
 1682TIP3   OH229240   4.546   4.685  17.046  0.2166 -0.2028 -0.3679
 1682TIP3    H129241   4.570   4.699  17.138  0.5102  0.3627 -0.5267
 1682TIP3    H229242   4.473   4.623  17.050  0.0861 -0.0210  0.2596
 1683TIP3   OH229243   7.177   2.411  17.080 -0.2879  0.0699 -0.4145
 1683TIP3    H129244   7.209   2.454  17.160 -0.0604 -0.5888 -0.1456
 1683TIP3    H229245   7.242   2.433  17.013  0.5546 -0.9316  0.0355
 1684TIP3   OH229246   3.866   5.295  17.538 -0.1090 -0.1160 -0.1086
 1684TIP3    H129247   3.912   5.343  17.606  0.6843 -0.2801 -0.5224
 1684TIP3    H229248   3.796   5.249  17.584 -0.3894  0.8021  0.4010
 1685TIP3   OH229249   0.428   4.440  16.987 -0.4739 -0.0773 -0.2087
 1685TIP3    H129250   0.499   4.494  17.022  0.0978 -1.3882  0.6952
 1685TIP3    H229251   0.349   4.473  17.032 -0.2929  0.6318 -0.3879
 1686TIP3   OH229252   6.802   7.467  17.839  0.7078 -0.2235  0.1083
 1686TIP3    H129253   6.800   7.459  17.744  0.5959 -0.3956  0.1232
 1686TIP3    H229254   6.728   7.525  17.860  1.7611  1.2041 -0.0259
 1687TIP3   OH229255   7.293   2.943  17.117  0.5562 -0.2046 -0.3556
 1687TIP3    H129256   7.326   2.939  17.207  0.5822  0.1935 -0.3451
 1687TIP3    H229257   7.317   2.858  17.079 -0.0750 -0.6527  0.2191
 1688TIP3   OH229258   8.462   2.771  17.442  0.0045  0.8143 -0.2094
 1688TIP3    H129259   8.389   2.769  17.381  0.0382  0.0288 -0.2342
 1688TIP3    H229260   8.421   2.759  17.528  0.1766 -0.6935 -0.3094
 1689TIP3   OH229261   7.511   8.798  16.917  0.2845 -0.5169  0.0269
 1689TIP3    H129262   7.497   8.710  16.952 -3.7180  0.0167  0.1767
 1689TIP3    H229263   7.507   8.855  16.994 -1.8477  0.1088 -0.4985
 1690TIP3   OH229264   0.217   9.150  15.581 -0.6048 -0.1187 -0.1139
 1690TIP3    H129265   0.249   9.241  15.577 -1.7039  0.2882  0.0350
 1690TIP3    H229266   0.163   9.147  15.660  0.5148 -1.2876  0.6523
 1691TIP3   OH229267   4.097   5.508  17.335 -0.3663 -0.1381 -0.0001
 1691TIP3    H129268   4.025   5.562  17.302 -1.1819  0.6230  2.7352
 1691TIP3    H229269   4.167   5.570  17.354 -0.3139 -0.3981  0.6781
 1692TIP3   OH229270   5.967   0.123  16.627 -0.3682 -0.1036 -0.1140
 1692TIP3    H129271   6.057   0.145  16.652 -0.3006 -0.2329 -0.2382
 1692TIP3    H229272   5.919   0.205  16.636 -0.4158 -0.2138  0.7382
 1693TIP3   OH229273   6.191   0.259  16.717 -0.1066 -0.1318  0.0822
 1693TIP3    H129274   6.232   0.312  16.648  0.1827  0.6179  0.8148
 1693TIP3    H229275   6.265   0.224  16.767 -0.2820 -1.4995 -0.5734
 1694TIP3   OH229276   5.835   5.656  16.878 -0.0295 -0.6075 -0.0429
 1694TIP3    H129277   5.824   5.665  16.783 -0.1768  1.5998  0.1200
 1694TIP3    H229278   5.911   5.599  16.888 -0.1535 -1.0560 -1.4828
 1695TIP3   OH229279   4.073   0.225  16.824  0.0668  0.3764 -0.4255
 1695TIP3    H129280   4.030   0.244  16.741  0.9853  0.8944 -0.7941
 1695TIP3    H229281   4.163   0.201  16.800  0.5588  1.2618  0.4635
 1696TIP3   OH229282   0.139   7.857  17.730  0.1212  0.2676  0.0536
 1696TIP3    H129283   0.184   7.924  17.679 -0.3561  0.1620 -0.5182
 1696TIP3    H229284   0.081   7.905  17.788  1.0272  0.4079  0.8574
 1697TIP3   OH229285   0.627   8.918  18.048 -0.1086  0.6173 -0.8634
 1697TIP3    H129286   0.685   8.968  18.107 -1.2547  1.5279 -0.4762
 1697TIP3    H229287   0.571   8.984  18.008 -0.9546 -0.2599 -1.1537
 1698TIP3   OH229288   5.788   6.752  16.847  0.0353 -0.3372  0.7298
 1698TIP3    H129289   5.718   6.816  16.844  0.8001  0.5214  0.8312
 1698TIP3    H229290   5.828   6.763  16.933 -0.5540 -1.7644  1.2112
 1699TIP3   OH229291   1.844   2.503  17.562 -0.5234  0.3487  0.1467
 1699TIP3    H129292   1.928   2.547  17.555 -1.2396  2.3816  2.7291
 1699TIP3    H229293   1.866   2.413  17.588  0.8873  1.1514  1.9640
 1700TIP3   OH229294   0.498   7.954  17.604  0.3796  0.4355 -0.3434
 1700TIP3    H129295   0.571   8.010  17.577  0.7905  0.1786  0.2036
 1700TIP3    H229296   0.527   7.916  17.687  1.5745 -3.2143 -2.2266
 1701TIP3   OH229297   2.341   7.573  16.446 -0.1561 -0.3704 -0.3040
 1701TIP3    H129298   2.362   7.569  16.353  0.7106  2.5545 -0.3405
 1701TIP3    H229299   2.408   7.630  16.483 -2.6619  1.7124  1.3740
 1702TIP3   OH229300   6.058   0.361  17.334  0.2308 -1.1952 -0.5072
 1702TIP3    H129301   5.994   0.429  17.311  0.2521 -1.0320 -0.0886
 1702TIP3    H229302   6.098   0.392  17.415 -0.5153 -2.2251  0.2844
 1703TIP3   OH229303   7.887   1.141  17.141  0.2081  0.8018  0.4092
 1703TIP3    H129304   7.978   1.114  17.123  0.4896  2.2180 -0.4630
 1703TIP3    H229305   7.841   1.125  17.058 -0.2937  0.3347  0.7703
 1704TIP3   OH229306   3.609   8.973  16.353  0.1436  0.0450 -0.8323
 1704TIP3    H129307   3.534   8.970  16.293 -1.0921  0.3590  0.6203
 1704TIP3    H229308   3.655   8.891  16.339  0.6166  0.6331 -3.0545
 1705TIP3   OH229309   4.790   5.743  16.375  0.4519  0.3574  0.3401
 1705TIP3    H129310   4.702   5.720  16.405  0.8455  0.6378  1.8041
 1705TIP3    H229311   4.776   5.816  16.314 -0.4037 -0.3071 -0.2731
 1706TIP3   OH229312   1.604   2.187  17.630  0.2410 -0.2607 -0.2489
 1706TIP3    H129313   1.513   2.183  17.603 -0.2118 -0.2122  1.1862
 1706TIP3    H229314   1.643   2.254  17.574 -1.2775  1.7034  0.8942
 1707TIP3   OH229315   3.225   3.203  16.980 -0.2522  0.3835  0.0910
 1707TIP3    H129316   3.159   3.248  16.927 -0.7078  0.5268  0.7541
 1707TIP3    H229317   3.193   3.214  17.070  1.0134  1.0238  0.4833
 1708TIP3   OH229318   7.699   3.008  16.438  0.3202 -0.1249  0.1297
 1708TIP3    H129319   7.645   2.958  16.500  0.2813 -0.1749  0.0558
 1708TIP3    H229320   7.717   2.946  16.367 -0.7499  0.3235 -0.5576
 1709TIP3   OH229321   1.915   0.683  17.546  0.5300 -0.0140  0.1979
 1709TIP3    H129322   1.918   0.773  17.578  0.2607  1.5459 -3.5894
 1709TIP3    H229323   1.834   0.647  17.581  0.3497  1.4150  1.3245
 1710TIP3   OH229324   3.672   8.408  16.242 -0.5783 -0.1666  0.0438
 1710TIP3    H129325   3.739   8.411  16.174  0.0504  0.3091  0.6726
 1710TIP3    H229326   3.619   8.332  16.220  0.2629 -0.6452 -0.3777
 1711TIP3   OH229327   2.621   0.474  16.273  0.0508  0.3623 -0.3182
 1711TIP3    H129328   2.601   0.537  16.204 -1.6996  1.0554  0.7513
 1711TIP3    H229329   2.626   0.526  16.353 -0.2673 -0.6933  0.4143
 1712TIP3   OH229330   2.526   5.673  17.340  0.4835 -0.1060  0.1910
 1712TIP3    H129331   2.467   5.736  17.382  0.5036  0.8896 -1.2186
 1712TIP3    H229332   2.590   5.652  17.408  1.0320  2.1125  0.4393
 1713TIP3   OH229333   4.748   6.016  16.227 -0.5479  0.0600 -0.5378
 1713TIP3    H129334   4.757   6.001  16.133 -1.2445  0.2427 -0.6383
 1713TIP3    H229335   4.654   6.026  16.241 -0.4099  0.5359  0.1011
 1714TIP3   OH229336   3.144   7.187  16.553 -0.1402  0.2035  0.0458
 1714TIP3    H129337   3.158   7.206  16.460  1.3093 -1.1649 -0.0535
 1714TIP3    H229338   3.195   7.254  16.599 -0.6055  0.6887 -0.1257
 1715TIP3   OH229339   8.289   2.744  17.709 -0.6763  0.4233 -0.3396
 1715TIP3    H129340   8.256   2.666  17.664  0.9082 -0.0366 -0.7670
 1715TIP3    H229341   8.226   2.813  17.688 -2.5649 -0.8759  0.6966
 1716TIP3   OH229342   5.141   0.725  16.576 -0.3316 -0.0012  0.4169
 1716TIP3    H129343   5.213   0.753  16.520  1.9689 -2.8503  1.6728
 1716TIP3    H229344   5.116   0.640  16.542 -1.3294 -0.1956  1.5708
 1717TIP3   OH229345   6.790   7.792  17.291  0.0271 -0.1232 -0.4041
 1717TIP3    H129346   6.807   7.771  17.383 -2.4205  0.7832  0.3515
 1717TIP3    H229347   6.864   7.755  17.243  0.6582 -1.8904  1.7729
 1718TIP3   OH229348   8.217   1.679  16.162  0.0204 -0.5972  0.6247
 1718TIP3    H129349   8.181   1.755  16.116  0.9007  1.3933  2.9633
 1718TIP3    H229350   8.306   1.670  16.129  0.1160 -0.1982  0.7687
 1719TIP3   OH229351   0.960   5.587  16.876  0.2315 -0.0386 -0.0142
 1719TIP3    H129352   0.889   5.637  16.836  0.0079 -1.0382 -0.9108
 1719TIP3    H229353   0.993   5.644  16.946 -1.2632  0.5495  0.2426
 1720TIP3   OH229354   1.499   5.925  16.899  0.2953 -0.5395 -0.1467
 1720TIP3    H129355   1.475   5.847  16.848 -1.1821 -0.7838  0.8823
 1720TIP3    H229356   1.468   5.907  16.987  2.7971 -0.1150  0.9061
 1721TIP3   OH229357   8.797   4.534  16.680 -0.4283  0.6612 -0.2576
 1721TIP3    H129358   8.740   4.527  16.603  0.0079 -1.5484 -0.4535
 1721TIP3    H229359   8.857   4.606  16.658 -1.1381  0.9306 -1.4145
 1722TIP3   OH229360   6.930   0.974  17.517 -0.2481  0.1320  0.8788
 1722TIP3    H129361   6.957   0.887  17.487  1.7301  1.0141 -0.0535
 1722TIP3    H229362   6.861   1.000  17.455  0.8405  0.1944 -0.3383
 1723TIP3   OH229363   7.582   0.120  18.074 -0.1531 -0.8724 -0.2460
 1723TIP3    H129364   7.617   0.040  18.034 -0.3453 -2.0188  1.7656
 1723TIP3    H229365   7.660   0.165  18.108  0.2728  1.1583 -3.4869
 1724TIP3   OH229366   3.287   2.591  16.764 -1.2538  0.7850 -0.3570
 1724TIP3    H129367   3.272   2.565  16.674 -3.0817 -0.4420  0.2557
 1724TIP3    H229368   3.283   2.510  16.814 -0.4269  1.4582  0.8661
 1725TIP3   OH229369   7.894   4.906  17.116  0.4763  0.2007  0.7140
 1725TIP3    H129370   7.822   4.914  17.053  0.7404 -2.8541 -0.1592
 1725TIP3    H229371   7.853   4.921  17.201 -0.5153  1.4655  0.0511
 1726TIP3   OH229372   1.823   7.625  16.192  0.3070 -0.3116  0.0162
 1726TIP3    H129373   1.884   7.559  16.224 -1.1389 -1.4261  0.5259
 1726TIP3    H229374   1.855   7.707  16.230  2.0726 -0.6737 -0.5597
 1727TIP3   OH229375   1.367   2.197  17.508 -0.0487  0.2040  0.2617
 1727TIP3    H129376   1.345   2.283  17.473 -0.3868  0.7685  1.8001
 1727TIP3    H229377   1.289   2.170  17.556 -0.3706 -1.4899 -1.1135
 1728TIP3   OH229378   5.595   6.586  17.403 -0.2344 -0.0849 -0.0395
 1728TIP3    H129379   5.683   6.613  17.377 -0.7220  2.3320  0.6017
 1728TIP3    H229380   5.538   6.620  17.334 -0.8893  0.6617  0.8480
 1729TIP3   OH229381   6.770   5.122  17.532 -0.3975  0.3037  0.0513
 1729TIP3    H129382   6.793   5.203  17.578 -1.8555  0.7381  0.0473
 1729TIP3    H229383   6.845   5.064  17.547  0.6915  1.6648  0.0081
 1730TIP3   OH229384   4.234   1.548  17.417  0.3758 -0.1574  0.2266
 1730TIP3    H129385   4.270   1.483  17.357  1.0291 -0.1373  0.5729
 1730TIP3    H229386   4.224   1.501  17.500  0.9795  0.2104  0.5151
 1731TIP3   OH229387   8.315   7.093  16.025  0.3805 -0.1220  0.3878
 1731TIP3    H129388   8.281   7.016  15.980  0.7860  0.0513 -0.2433
 1731TIP3    H229389   8.252   7.112  16.094  0.4528 -1.2180  0.7716
 1732TIP3   OH229390   7.724   1.022  16.641  0.5251 -0.3078 -0.1401
 1732TIP3    H129391   7.750   1.109  16.610  0.3275 -0.1137  0.2322
 1732TIP3    H229392   7.678   0.983  16.566 -0.5224  0.4071  0.1028
 1733TIP3   OH229393   3.952   2.560  16.824 -0.3289 -1.0399  0.8662
 1733TIP3    H129394   3.900   2.560  16.903 -0.7606  2.8925  0.7894
 1733TIP3    H229395   3.899   2.607  16.760  1.4768 -0.8712 -0.6065
 1734TIP3   OH229396   7.768   3.549  16.751 -0.3574 -0.0311 -0.3434
 1734TIP3    H129397   7.736   3.505  16.830 -0.1574  0.0910 -0.1956
 1734TIP3    H229398   7.861   3.563  16.766 -0.0244 -1.1788 -1.1408
 1735TIP3   OH229399   8.394   9.049  16.685 -0.1224  0.1444  0.4460
 1735TIP3    H129400   8.374   8.959  16.713 -0.0584 -0.9157 -2.5183
 1735TIP3    H229401   8.483   9.064  16.718 -0.0232 -0.9852  0.7656
 1736TIP3   OH229402   7.607   2.743  17.363 -0.3686 -0.4440 -0.9384
 1736TIP3    H129403   7.536   2.806  17.379  0.2798  0.4010 -1.3032
 1736TIP3    H229404   7.562   2.664  17.334 -1.2148 -0.1949 -0.3627
 1737TIP3   OH229405   8.825   6.033  17.295  0.1975  0.1033 -0.3066
 1737TIP3    H129406   8.747   6.020  17.240 -0.0038  0.9627 -0.2465
 1737TIP3    H229407   8.838   5.949  17.339 -1.6123  0.3505  0.8379
 1738TIP3   OH229408   5.820   7.676  16.787 -0.2457 -0.1237  0.3478
 1738TIP3    H129409   5.785   7.623  16.715  1.6127  1.4656 -1.8918
 1738TIP3    H229410   5.877   7.617  16.835  0.0575 -0.7252 -0.7320
 1739TIP3   OH229411   1.062   1.916  17.473 -0.1669 -0.1293  0.2342
 1739TIP3    H129412   1.102   1.854  17.412 -1.3655 -0.0800 -0.6390
 1739TIP3    H229413   1.010   1.974  17.417 -0.5069  0.5316  1.2143
 1740TIP3   OH229414   5.537   0.379  16.467  0.4476  0.4920  0.5421
 1740TIP3    H129415   5.588   0.419  16.396 -1.6827  0.0760 -1.3433
 1740TIP3    H229416   5.580   0.295  16.482  0.8154  0.4826 -0.4458
 1741TIP3   OH229417   2.579   8.995  17.025 -0.2991 -0.1985 -0.1452
 1741TIP3    H129418   2.546   9.085  17.026  1.7516  0.6288 -1.5110
 1741TIP3    H229419   2.502   8.942  17.004 -0.7727  1.7304 -4.4851
 1742TIP3   OH229420   6.933   2.733  16.117 -0.5291 -0.4485  0.1569
 1742TIP3    H129421   6.965   2.799  16.177  0.7370 -0.5079 -0.4331
 1742TIP3    H229422   6.911   2.781  16.037 -0.5649 -0.6044  0.0717
 1743TIP3   OH229423   3.071   7.285  18.034 -0.4553  0.0211 -0.0099
 1743TIP3    H129424   3.031   7.259  17.950  1.7464 -0.7946 -0.8760
 1743TIP3    H229425   3.090   7.203  18.078  0.5679  0.3662  0.2158
 1744TIP3   OH229426   3.984   2.168  16.821 -0.4013 -0.0260  0.2507
 1744TIP3    H129427   4.074   2.136  16.814 -0.2234  0.7043 -1.1412
 1744TIP3    H229428   3.971   2.218  16.741 -2.6850 -1.6766 -0.4970
 1745TIP3   OH229429   3.536   7.869  17.447 -0.3296 -0.1874  0.4202
 1745TIP3    H129430   3.597   7.814  17.497 -0.5839 -1.2328 -0.3741
 1745TIP3    H229431   3.590   7.942  17.416  0.4565 -0.9311 -0.0189
 1746TIP3   OH229432   3.824   8.361  17.596  0.1010 -0.0325 -0.7118
 1746TIP3    H129433   3.878   8.439  17.579  0.5276 -0.3211 -0.7045
 1746TIP3    H229434   3.848   8.335  17.684  2.0721 -1.8020 -1.6818
 1747TIP3   OH229435   7.837   8.885  17.826 -0.0825  0.7527  0.0019
 1747TIP3    H129436   7.917   8.926  17.859  0.3286  1.7513 -2.0709
 1747TIP3    H229437   7.864   8.797  17.802  0.2816  0.9019 -0.1572
 1748TIP3   OH229438   2.852   5.567  16.975  0.1181  0.1335  0.3988
 1748TIP3    H129439   2.901   5.634  16.927  0.5008 -0.5869 -0.2307
 1748TIP3    H229440   2.786   5.617  17.024 -1.3016  0.7916 -2.0392
 1749TIP3   OH229441   7.341   6.357  17.123  0.0351 -0.6955  0.1056
 1749TIP3    H129442   7.387   6.342  17.040  1.8665 -1.0691  1.1365
 1749TIP3    H229443   7.365   6.282  17.178  0.7245  0.6471  1.7230
 1750TIP3   OH229444   3.809   2.688  16.618  0.0905 -0.4029 -0.2115
 1750TIP3    H129445   3.788   2.745  16.544 -0.1019 -2.2691 -1.6545
 1750TIP3    H229446   3.728   2.684  16.669 -0.4402 -0.7764 -1.0653
 1751TIP3   OH229447   4.347   3.405  16.471 -0.0296  0.1333  0.2881
 1751TIP3    H129448   4.253   3.418  16.462  0.1530  0.5451 -1.6707
 1751TIP3    H229449   4.357   3.347  16.546 -1.8472  0.0312  0.4868
 1752TIP3   OH229450   3.955   6.411  17.549 -0.0214 -0.0331  0.1919
 1752TIP3    H129451   3.982   6.503  17.537 -0.4762  0.6230  3.3158
 1752TIP3    H229452   3.888   6.397  17.482  1.5554  1.1593 -1.7891
 1753TIP3   OH229453   5.315   0.317  18.182 -0.3413 -0.3529  0.1250
 1753TIP3    H129454   5.317   0.376  18.107 -1.3302  0.8517  1.0094
 1753TIP3    H229455   5.402   0.326  18.222 -0.6973  1.0652  0.6439
 1754TIP3   OH229456   1.704   5.086  17.537  0.0700 -0.1165 -1.0727
 1754TIP3    H129457   1.783   5.037  17.511  0.1132  0.2651 -1.6606
 1754TIP3    H229458   1.658   5.026  17.596  0.0891 -0.9088 -1.8383
 1755TIP3   OH229459   2.631   1.210  16.082  0.2948 -0.6705  0.1272
 1755TIP3    H129460   2.598   1.169  16.162  2.3382 -0.5757  1.0885
 1755TIP3    H229461   2.715   1.167  16.066  0.0450 -0.5239 -1.8746
 1756TIP3   OH229462   1.969   1.559  16.414  1.1358  1.1310  0.1906
 1756TIP3    H129463   1.893   1.503  16.425  0.5426  2.1877  1.8800
 1756TIP3    H229464   2.042   1.499  16.399  0.2933 -0.0060  0.5312
 1757TIP3   OH229465   1.494   7.522  16.915  0.0388 -0.0007 -0.2620
 1757TIP3    H129466   1.572   7.483  16.954  0.7459  1.6500  0.0247
 1757TIP3    H229467   1.476   7.467  16.839  1.9476  0.0454 -0.7960
 1758TIP3   OH229468   1.022   0.950  16.597  0.5968 -0.4247 -0.2016
 1758TIP3    H129469   0.948   1.000  16.629  0.0074 -0.2548 -1.7256
 1758TIP3    H229470   0.993   0.859  16.601  0.6844 -0.4388  0.1291
 1759TIP3   OH229471   7.056   5.000  17.446  0.1629 -0.4646 -0.0307
 1759TIP3    H129472   7.032   5.088  17.417  0.8102 -0.1382  0.3952
 1759TIP3    H229473   7.118   4.969  17.380 -1.3663 -1.3073 -1.1320
 1760TIP3   OH229474   0.581   7.202  17.068 -0.0041 -0.0077  0.5472
 1760TIP3    H129475   0.520   7.262  17.027  1.1157  0.4639 -0.4848
 1760TIP3    H229476   0.605   7.140  16.999  2.9919  1.6273 -0.0562
 1761TIP3   OH229477   4.213   1.933  17.481  0.0367  0.0443 -0.6347
 1761TIP3    H129478   4.163   1.871  17.533 -1.0374 -1.2329 -3.0202
 1761TIP3    H229479   4.293   1.886  17.458  0.9338  0.9286  0.5066
 1762TIP3   OH229480   2.949   3.435  17.579  0.2723 -0.0744  0.2677
 1762TIP3    H129481   2.915   3.415  17.667  3.3432 -0.1602  1.5514
 1762TIP3    H229482   3.008   3.362  17.560  1.1142  0.9112 -1.0208
 1763TIP3   OH229483   2.980   0.190  17.169 -0.4990 -0.6346  0.3481
 1763TIP3    H129484   3.072   0.177  17.195 -0.5308 -1.6018  0.0197
 1763TIP3    H229485   2.961   0.116  17.112 -0.3689  1.4898 -2.6778
 1764TIP3   OH229486   5.006   2.299  17.354  0.0262  0.8061 -0.0562
 1764TIP3    H129487   4.919   2.339  17.347  0.2520  1.3343  0.1337
 1764TIP3    H229488   4.991   2.217  17.400 -0.6379  0.0246 -1.5737
 1765TIP3   OH229489   3.067   0.847  16.759 -0.2601 -0.0772  0.0440
 1765TIP3    H129490   3.019   0.770  16.729 -1.0955  0.4550 -0.0030
 1765TIP3    H229491   3.012   0.921  16.733  1.5715  0.6985 -1.9817
 1766TIP3   OH229492   0.372   4.172  16.975 -0.3053 -0.5631  0.0349
 1766TIP3    H129493   0.320   4.160  16.896  0.0782  0.4609 -0.3999
 1766TIP3    H229494   0.387   4.267  16.979  0.9576 -0.7632  0.4999
 1767TIP3   OH229495   8.809   1.817  16.963 -0.5859 -0.3001 -0.0326
 1767TIP3    H129496   8.787   1.724  16.972 -1.1523 -0.5267 -2.8364
 1767TIP3    H229497   8.739   1.863  17.009  0.0153 -1.2344  1.8949
 1768TIP3   OH229498   5.984   4.314  16.231  0.3595 -0.1449 -0.2974
 1768TIP3    H129499   5.926   4.383  16.199  1.2999  0.2820 -1.1355
 1768TIP3    H229500   5.930   4.235  16.232 -0.2671  0.2668 -0.9599
 1769TIP3   OH229501   4.771   3.314  17.143 -0.1720  0.2867  0.1421
 1769TIP3    H129502   4.818   3.236  17.172  0.3046  0.6052  0.2375
 1769TIP3    H229503   4.684   3.282  17.118  0.2565 -0.3904 -0.5082
 1770TIP3   OH229504   7.062   1.370  17.704 -0.0471 -0.6754  0.6036
 1770TIP3    H129505   7.015   1.288  17.716  0.5961 -0.9660  1.2288
 1770TIP3    H229506   6.994   1.436  17.695 -0.5664 -1.1721  0.8208
 1771TIP3   OH229507   0.416   1.391  17.703  0.0495  0.2814  0.2606
 1771TIP3    H129508   0.417   1.295  17.703  0.1482  0.2813 -0.5369
 1771TIP3    H229509   0.330   1.413  17.739  0.4081 -0.0852  1.4137
 1772TIP3   OH229510   0.227   0.063  15.827 -0.1890 -0.0566 -0.2658
 1772TIP3    H129511   0.290   0.127  15.795  0.4092 -0.3368  0.3491
 1772TIP3    H229512   0.236   0.064  15.922 -0.9607 -0.2566 -0.1791
 1773TIP3   OH229513   0.434   7.517  17.110  0.1482  0.2054 -0.5258
 1773TIP3    H129514   0.441   7.608  17.081 -1.5837  0.2113 -1.0688
 1773TIP3    H229515   0.384   7.474  17.040  0.0784 -0.9305  0.2012
 1774TIP3   OH229516   5.979   5.218  17.632 -0.8229 -0.1202  0.0006
 1774TIP3    H129517   5.943   5.304  17.654 -1.0612 -0.6819  2.1299
 1774TIP3    H229518   6.064   5.216  17.676 -0.0618 -0.3701 -1.4489
 1775TIP3   OH229519   9.132   3.030  17.598 -0.4921  0.6170 -0.2129
 1775TIP3    H129520   9.074   3.106  17.595 -0.3242  0.8346  1.2386
 1775TIP3    H229521   9.090   2.969  17.660  0.9069  0.8975  1.0918
 1776TIP3   OH229522   7.713   9.143  17.906  0.3620  0.2646 -0.4197
 1776TIP3    H129523   7.742   9.169  17.819 -1.5247 -2.0711 -1.8995
 1776TIP3    H229524   7.741   9.051  17.913 -0.6365  0.0406  0.8776
 1777TIP3   OH229525   5.766   0.347  17.454 -0.6879 -0.3033 -0.0578
 1777TIP3    H129526   5.821   0.277  17.419  0.7769  0.4668  0.6202
 1777TIP3    H229527   5.795   0.425  17.408 -0.3666  0.3132  1.1592
 1778TIP3   OH229528   5.863   7.978  17.576  0.3441 -0.5290  0.3572
 1778TIP3    H129529   5.818   8.046  17.526 -0.2129  0.6614  2.3619
 1778TIP3    H229530   5.875   7.907  17.514 -0.9277  0.5899 -1.2653
 1779TIP3   OH229531   3.821   7.807  16.789 -0.2698 -0.2862 -0.2857
 1779TIP3    H129532   3.797   7.899  16.789  0.3171 -0.1281 -0.0012
 1779TIP3    H229533   3.874   7.796  16.710 -1.3220 -0.6566 -0.9687
 1780TIP3   OH229534   8.587   1.023  16.578 -0.1940  0.0689 -0.4468
 1780TIP3    H129535   8.643   0.995  16.650 -0.9608 -0.4019 -0.0204
 1780TIP3    H229536   8.498   1.004  16.608 -0.5990  0.9666 -1.0385
 1781TIP3   OH229537   0.098   1.956  17.251 -0.1156 -0.2914  0.3452
 1781TIP3    H129538   0.034   2.010  17.299  0.5457  0.4581  0.4122
 1781TIP3    H229539   0.093   1.989  17.161  0.7907  0.3935  0.5258
 1782TIP3   OH229540   1.185   2.897  17.020 -0.3448  0.4825 -0.2759
 1782TIP3    H129541   1.093   2.921  17.013 -0.1207  1.2051 -0.8927
 1782TIP3    H229542   1.230   2.978  17.043 -0.0645 -0.2266  1.9843
 1783TIP3   OH229543   4.920   6.322  16.102 -0.2479  0.2671  0.3274
 1783TIP3    H129544   4.899   6.256  16.169  0.0611 -0.1959 -0.0232
 1783TIP3    H229545   5.015   6.312  16.088 -0.6682 -1.3794 -1.9493
 1784TIP3   OH229546   5.516   7.652  17.884 -0.1015 -0.2375 -0.0830
 1784TIP3    H129547   5.599   7.605  17.886  0.1655  0.1778 -1.0077
 1784TIP3    H229548   5.450   7.583  17.872  0.3200 -0.3809 -1.8711
 1785TIP3   OH229549   4.666   7.206  17.069  0.5921 -0.2307 -0.4002
 1785TIP3    H129550   4.701   7.128  17.025  0.6798  0.6299 -1.9309
 1785TIP3    H229551   4.581   7.220  17.029 -0.3844 -0.7429  1.3928
 1786TIP3   OH229552   7.768   4.466  16.924 -0.3696  0.0895 -0.3454
 1786TIP3    H129553   7.688   4.415  16.908 -1.1327  0.8656  0.8109
 1786TIP3    H229554   7.755   4.547  16.875 -0.8178  0.6825  0.7122
 1787TIP3   OH229555   0.774   8.157  16.847 -0.3654  0.1147  0.1603
 1787TIP3    H129556   0.685   8.189  16.855 -0.7670 -1.2835  1.8015
 1787TIP3    H229557   0.782   8.132  16.755 -1.7236  0.0792  0.0382
 1788TIP3   OH229558   8.281   4.285  16.295  0.1332  0.2780  0.1875
 1788TIP3    H129559   8.222   4.210  16.304 -0.2220  0.7360  2.3572
 1788TIP3    H229560   8.226   4.355  16.260 -0.2286  0.2605  0.7090
 1789TIP3   OH229561   5.021   6.490  17.877  0.4751  0.0546  0.2302
 1789TIP3    H129562   4.967   6.560  17.839  2.1205  1.3090  0.0702
 1789TIP3    H229563   5.110   6.516  17.855  1.1574 -1.8886  0.6007
 1790TIP3   OH229564   2.378   8.562  17.593 -0.1615 -0.2614  0.1227
 1790TIP3    H129565   2.473   8.573  17.583 -0.1473 -0.5579 -0.1135
 1790TIP3    H229566   2.368   8.521  17.679 -0.2298  1.6668  1.0753
 1791TIP3   OH229567   1.886   7.725  16.604  0.8080  0.2875 -0.1676
 1791TIP3    H129568   1.902   7.735  16.510  2.2560  0.7516  0.1035
 1791TIP3    H229569   1.852   7.636  16.613  0.9563  0.1253 -1.0931
 1792TIP3   OH229570   4.288   5.537  16.859  0.1269 -0.0730 -0.0505
 1792TIP3    H129571   4.278   5.632  16.855  1.2362  0.1378  1.4753
 1792TIP3    H229572   4.327   5.520  16.945 -1.6633 -2.0672  0.4352
 1793TIP3   OH229573   8.438   0.817  17.592  0.2148  0.4982  0.1304
 1793TIP3    H129574   8.368   0.848  17.649 -0.8432 -1.0749 -0.2520
 1793TIP3    H229575   8.395   0.758  17.530  1.7335  0.2393 -0.7436
 1794TIP3   OH229576   8.747   9.042  16.555  0.4638  0.0187  0.7694
 1794TIP3    H129577   8.738   9.053  16.650  1.5657 -3.8210  1.4855
 1794TIP3    H229578   8.673   8.986  16.530  0.0137  1.2205 -0.7661
 1795TIP3   OH229579   6.427   6.009  17.532 -0.3068  0.3666  0.5092
 1795TIP3    H129580   6.416   5.934  17.591  0.7873 -0.3356 -0.1445
 1795TIP3    H229581   6.443   5.969  17.446 -1.2010  1.3663 -0.1458
 1796TIP3   OH229582   7.823   2.920  17.555 -0.0982 -0.1376 -0.3343
 1796TIP3    H129583   7.744   2.975  17.557  1.4889  2.2912  1.9089
 1796TIP3    H229584   7.808   2.855  17.624 -0.4104 -0.0990 -0.3631
 1797TIP3   OH229585   3.360   3.785  17.396  0.4142 -0.3697  0.1242
 1797TIP3    H129586   3.316   3.812  17.316 -1.6117 -1.4007  0.8278
 1797TIP3    H229587   3.432   3.848  17.406 -0.4139  0.9210 -1.4874
 1798TIP3   OH229588   2.746   0.171  16.914  0.1509 -0.5099 -0.1330
 1798TIP3    H129589   2.702   0.101  16.866  0.0846 -0.2494 -0.4531
 1798TIP3    H229590   2.799   0.125  16.979  1.3479 -0.9414 -1.3615
 1799TIP3   OH229591   2.809   4.905  16.731  0.0784  0.5901  0.4958
 1799TIP3    H129592   2.820   4.901  16.636  0.8403 -1.7129  0.6289
 1799TIP3    H229593   2.716   4.886  16.745  0.2085 -0.2661  0.2466
 1800TIP3   OH229594   1.366   6.380  17.076  0.2636 -0.0984 -0.1209
 1800TIP3    H129595   1.391   6.354  16.987  1.7703  0.8472 -0.0281
 1800TIP3    H229596   1.286   6.431  17.065 -0.2809 -1.0712 -0.7764
 1801TIP3   OH229597   5.367   5.621  17.419  0.1900 -0.1060  0.8221
 1801TIP3    H129598   5.391   5.565  17.493  1.8133 -0.3070  0.1923
 1801TIP3    H229599   5.317   5.692  17.458  1.0433 -0.1838  2.1273
 1802TIP3   OH229600   7.585   9.081  16.576 -0.3498 -0.2485 -0.4756
 1802TIP3    H129601   7.591   9.042  16.489 -1.1826 -1.2564 -0.0975
 1802TIP3    H229602   7.560   9.172  16.560 -1.5317 -0.6871 -1.2647
 1803TIP3   OH229603   3.661   6.075  18.005 -0.4138  0.4026  0.3960
 1803TIP3    H129604   3.613   6.098  17.926  0.3440 -0.1029 -0.2236
 1803TIP3    H229605   3.712   6.153  18.026  1.1930 -0.1969 -0.9919
 1804TIP3   OH229606   1.929   7.260  17.287  0.1426 -0.2677  0.5381
 1804TIP3    H129607   1.963   7.172  17.299 -0.0615 -0.5713 -0.8781
 1804TIP3    H229608   1.858   7.268  17.350 -0.7844 -1.6501 -0.2985
 1805TIP3   OH229609   2.690   2.853  16.376  0.6122 -0.1280 -0.1151
 1805TIP3    H129610   2.619   2.791  16.397  0.3888  0.4485  0.8972
 1805TIP3    H229611   2.751   2.801  16.324  1.0693 -1.6113  1.7774
 1806TIP3   OH229612   9.192   1.442  17.868  0.2763 -0.2516 -0.1821
 1806TIP3    H129613   9.133   1.374  17.899 -2.4002  1.0188 -2.1118
 1806TIP3    H229614   9.220   1.413  17.781  0.0221  0.5567 -0.5460
 1807TIP3   OH229615   7.367   2.939  17.385  0.3145  0.4969 -0.2853
 1807TIP3    H129616   7.382   3.032  17.402 -0.7367  0.6511 -0.1124
 1807TIP3    H229617   7.297   2.914  17.446  1.7779 -0.8681  0.9212
 1808TIP3   OH229618   5.344   2.345  16.878 -0.4294 -0.7693 -0.4986
 1808TIP3    H129619   5.419   2.325  16.822 -0.5243 -2.4312 -0.0952
 1808TIP3    H229620   5.273   2.291  16.844 -0.5905 -1.5300  0.9638
 1809TIP3   OH229621   1.982   5.922  17.455  0.3703 -0.7876  0.4654
 1809TIP3    H129622   1.962   5.834  17.423 -2.5001 -0.0491 -0.1138
 1809TIP3    H229623   2.000   5.910  17.548 -0.6937 -1.9219  0.5506
 1810TIP3   OH229624   2.727   7.773  17.958  0.2006 -0.4289  0.2231
 1810TIP3    H129625   2.638   7.750  17.984  0.0807 -0.2485 -0.0172
 1810TIP3    H229626   2.783   7.711  18.005 -0.1443 -1.5959 -0.8462
 1811TIP3   OH229627   6.177   5.181  15.783 -0.1027  0.6033  0.2026
 1811TIP3    H129628   6.081   5.182  15.778 -0.0915  1.2986  0.0110
 1811TIP3    H229629   6.205   5.249  15.721  0.6004 -1.1093 -1.4528
 1812TIP3   OH229630   6.992   1.505  16.870  0.3919  0.3004 -0.6204
 1812TIP3    H129631   7.066   1.547  16.825  0.9843  0.5071  0.5143
 1812TIP3    H229632   7.027   1.479  16.955 -0.2847 -1.4974 -0.8528
 1813TIP3   OH229633   8.948   2.894  16.939 -0.2059  0.2471 -0.0514
 1813TIP3    H129634   9.041   2.900  16.919  0.2145 -0.6935  1.4211
 1813TIP3    H229635   8.917   2.984  16.940  0.4836  0.5248 -1.3571
 1814TIP3   OH229636   0.453   4.103  17.405 -0.1697 -0.3605 -0.6154
 1814TIP3    H129637   0.397   4.060  17.470 -0.2060 -1.0751 -1.1120
 1814TIP3    H229638   0.528   4.135  17.456 -0.5629 -0.2439 -0.1015
 1815TIP3   OH229639   7.673   5.893  16.012 -0.4656  0.4037 -0.1790
 1815TIP3    H129640   7.740   5.854  15.956 -1.3720 -0.9945 -0.3187
 1815TIP3    H229641   7.722   5.926  16.088  0.4108 -0.5268 -0.3129
 1816TIP3   OH229642   3.196   3.908  17.207  0.3218 -0.0492 -1.2574
 1816TIP3    H129643   3.125   3.944  17.259  0.8415 -1.7262  0.7480
 1816TIP3    H229644   3.205   3.969  17.133 -1.1783  1.8448  0.0157
 1817TIP3   OH229645   4.646   7.425  15.999  0.7507  0.3888  0.4120
 1817TIP3    H129646   4.627   7.343  15.954  0.4159 -0.2004  1.6151
 1817TIP3    H229647   4.564   7.473  15.998  0.1614 -0.5066  2.1770
 1818TIP3   OH229648   2.969   5.196  17.535 -0.5261  0.0888 -0.2848
 1818TIP3    H129649   2.964   5.102  17.551 -0.1647  0.1459  0.1787
 1818TIP3    H229650   2.946   5.206  17.442  0.1336 -0.5225 -0.5231
 1819TIP3   OH229651   3.778   7.629  16.359 -0.0806  0.1280  0.0588
 1819TIP3    H129652   3.752   7.648  16.269  1.0314  1.3733 -0.0355
 1819TIP3    H229653   3.710   7.670  16.413  0.8525  2.1374 -0.2031
 1820TIP3   OH229654   7.147   2.188  17.815  0.5072  0.2699 -0.2586
 1820TIP3    H129655   7.053   2.202  17.829  0.8814  0.7347  2.1437
 1820TIP3    H229656   7.152   2.140  17.732 -1.9371 -0.9349  0.2089
 1821TIP3   OH229657   4.429   4.083  17.151 -0.0298 -0.2966 -0.1965
 1821TIP3    H129658   4.516   4.110  17.122 -0.1472 -0.2886 -0.5384
 1821TIP3    H229659   4.441   3.994  17.184 -0.1538 -0.8035 -1.4898
 1822TIP3   OH229660   1.403   7.230  17.993 -0.3187  0.4289  0.3327
 1822TIP3    H129661   1.486   7.276  17.998 -0.3641  0.5785 -0.2672
 1822TIP3    H229662   1.361   7.248  18.077  0.3328  0.1941  0.7207
 1823TIP3   OH229663   9.120   0.860  15.866  0.1706 -0.0736  0.4861
 1823TIP3    H129664   9.200   0.911  15.873 -0.2269  0.7535 -0.6523
 1823TIP3    H229665   9.063   0.895  15.934 -0.3511  1.5280 -0.7239
 1824TIP3   OH229666   4.249   3.609  17.286 -0.0378 -0.4432 -0.4603
 1824TIP3    H129667   4.265   3.623  17.192  0.5124 -0.1997 -0.3360
 1824TIP3    H229668   4.186   3.677  17.310  0.1830 -0.2020 -0.5534
 1825TIP3   OH229669   0.284   6.183  16.982 -0.3999  0.1467 -0.0116
 1825TIP3    H129670   0.193   6.212  16.988 -0.7095 -0.9770  1.1788
 1825TIP3    H229671   0.302   6.141  17.066  0.7691 -0.9315 -0.7521
 1826TIP3   OH229672   1.496   7.835  17.277 -0.0793  0.4448 -1.1920
 1826TIP3    H129673   1.443   7.906  17.313 -0.4396 -0.2816 -0.2569
 1826TIP3    H229674   1.557   7.812  17.347 -0.6450 -0.8449 -1.0958
 1827TIP3   OH229675   7.749   0.421  17.464  0.7180 -0.3189 -0.2248
 1827TIP3    H129676   7.818   0.365  17.429  0.3354 -1.2068  0.4106
 1827TIP3    H229677   7.692   0.362  17.513  1.3930  0.8908  2.1865
 1828TIP3   OH229678   1.292   7.268  16.469 -0.0372  0.3297  0.1010
 1828TIP3    H129679   1.294   7.279  16.374  1.0007 -1.6870 -0.1774
 1828TIP3    H229680   1.204   7.236  16.488 -0.4875  1.4468 -0.0692
 1829TIP3   OH229681   2.813   5.607  17.765  0.2076  0.2331 -0.1112
 1829TIP3    H129682   2.850   5.619  17.853  3.1165 -0.9432 -1.0577
 1829TIP3    H229683   2.734   5.555  17.779  0.8560 -0.3204  1.7987
 1830TIP3   OH229684   1.523   8.675  17.034 -0.1566  0.1807 -0.0660
 1830TIP3    H129685   1.546   8.751  16.980  0.0379 -0.7668 -1.3364
 1830TIP3    H229686   1.436   8.697  17.069  0.1648  1.2576  0.1219
 1831TIP3   OH229687   9.109   3.973  16.146 -0.9322  0.1394 -0.4428
 1831TIP3    H129688   9.145   3.986  16.233 -1.1694  1.2946 -0.5010
 1831TIP3    H229689   9.093   3.879  16.140 -0.2513 -0.0439  0.4911
 1832TIP3   OH229690   8.844   1.347  16.379 -0.1114  0.2396  0.1133
 1832TIP3    H129691   8.770   1.386  16.427 -0.5180 -1.0407  0.5779
 1832TIP3    H229692   8.921   1.396  16.410 -0.4611 -0.0478  1.5356
 1833TIP3   OH229693   6.965   3.486  17.698 -0.2026 -0.1058  0.1557
 1833TIP3    H129694   6.874   3.468  17.674 -0.0433  0.2929 -0.8118
 1833TIP3    H229695   7.017   3.438  17.633  0.2853 -0.7155  0.9934
 1834TIP3   OH229696   6.611   0.913  16.411 -0.0752 -0.2191  0.7205
 1834TIP3    H129697   6.592   0.965  16.489  0.4184  1.1193 -0.0135
 1834TIP3    H229698   6.701   0.883  16.425  0.0813  0.1792  0.5912
 1835TIP3   OH229699   3.412   8.956  16.565 -0.1293 -0.3586  0.4006
 1835TIP3    H129700   3.325   8.995  16.575 -1.0476 -2.2380  0.2236
 1835TIP3    H229701   3.454   9.008  16.497 -0.6980  1.2222  1.2011
 1836TIP3   OH229702   2.325   5.692  16.090 -0.3485 -0.6858 -0.2991
 1836TIP3    H129703   2.398   5.676  16.149  0.8374 -1.2132 -1.8359
 1836TIP3    H229704   2.287   5.606  16.073 -0.3967 -0.6017 -0.6395
 1837TIP3   OH229705   8.071   0.062  15.833 -0.3948  0.4353  0.2426
 1837TIP3    H129706   7.989   0.017  15.853 -1.0577  1.2631 -0.5467
 1837TIP3    H229707   8.111   0.009  15.763  0.2467 -0.5170  1.2936
 1838TIP3   OH229708   4.997   0.995  16.868  0.3702  0.7628 -0.5195
 1838TIP3    H129709   5.004   0.900  16.855  1.5846  0.7996 -0.2068
 1838TIP3    H229710   5.025   1.009  16.958 -0.8710  1.3142 -0.2077
 1839TIP3   OH229711   3.324   2.354  16.494 -0.6248  0.1556 -0.1433
 1839TIP3    H129712   3.285   2.314  16.416 -0.7646 -1.5165  0.7349
 1839TIP3    H229713   3.291   2.301  16.567  1.5226  0.0326  0.8288
 1840TIP3   OH229714   7.016   9.052  17.897 -0.2690 -0.1945  0.2554
 1840TIP3    H129715   7.105   9.020  17.912 -0.5142 -1.0937 -0.1275
 1840TIP3    H229716   6.994   9.021  17.810 -0.3621  1.4600 -0.3452
 1841TIP3   OH229717   1.639   1.361  16.128 -0.7435  0.2018  0.8865
 1841TIP3    H129718   1.690   1.394  16.054  1.1800  0.8948  2.4152
 1841TIP3    H229719   1.654   1.266  16.128  0.0638  0.3215  0.9411
 1842TIP3   OH229720   3.133   1.457  17.220 -0.1466  0.1889  0.0332
 1842TIP3    H129721   3.088   1.540  17.201 -0.7833  0.2595  1.6935
 1842TIP3    H229722   3.094   1.427  17.302  0.0918 -1.7572 -0.5203
 1843TIP3   OH229723   1.686   2.813  17.353  0.0887 -0.2857 -0.1328
 1843TIP3    H129724   1.737   2.772  17.282  0.4991  1.1002 -0.6587
 1843TIP3    H229725   1.653   2.895  17.315  0.7980  0.7701  1.4605
 1844TIP3   OH229726   7.547   1.566  16.574  0.5274  0.0328 -0.5800
 1844TIP3    H129727   7.492   1.493  16.601  1.1823 -0.5937 -0.8974
 1844TIP3    H229728   7.633   1.527  16.560  0.6555  0.6770 -1.7222
 1845TIP3   OH229729   6.710   1.396  17.299 -0.1189  0.1829 -0.1359
 1845TIP3    H129730   6.708   1.478  17.348  1.2712 -0.8890  1.8120
 1845TIP3    H229731   6.618   1.369  17.295 -0.3199  0.4895  1.5885
 1846TIP3   OH229732   2.629   6.683  17.391 -0.2918  0.5751 -0.2033
 1846TIP3    H129733   2.644   6.722  17.477 -2.1903  1.4142 -0.1943
 1846TIP3    H229734   2.579   6.603  17.409  1.1649 -0.4203 -0.4125
 1847TIP3   OH229735   3.903   0.861  16.221 -0.0512  0.3279  0.1618
 1847TIP3    H129736   3.945   0.779  16.247 -0.8515 -0.7316 -1.7449
 1847TIP3    H229737   3.975   0.916  16.190  0.4440  0.2533  1.1250
 1848TIP3   OH229738   2.075   8.269  17.843 -0.0761  0.3553 -0.2733
 1848TIP3    H129739   2.144   8.229  17.791 -1.4944 -2.1726 -0.3535
 1848TIP3    H229740   2.047   8.201  17.904  0.4773  2.7009  2.8749
 1849TIP3   OH229741   5.885   8.748  17.515  0.1904  0.0359 -0.2259
 1849TIP3    H129742   5.858   8.759  17.424  0.7744  1.6858 -0.2227
 1849TIP3    H229743   5.832   8.811  17.564  0.0014 -0.7201  0.5769
 1850TIP3   OH229744   0.338   2.857  17.362 -0.0612 -0.3064 -0.0052
 1850TIP3    H129745   0.256   2.822  17.330 -0.3066 -1.1792  1.5132
 1850TIP3    H229746   0.313   2.917  17.432  0.5295  0.6796 -0.5995
 1851TIP3   OH229747   6.033   6.518  16.408 -0.1389  0.4635 -0.4046
 1851TIP3    H129748   6.109   6.487  16.457 -0.2587  0.3362 -0.2988
 1851TIP3    H229749   6.016   6.450  16.342  0.4713  0.9767 -1.1087
 1852TIP3   OH229750   4.715   6.387  17.852 -0.1914 -0.5185 -0.9459
 1852TIP3    H129751   4.707   6.351  17.941 -2.2444  0.4616 -0.6820
 1852TIP3    H229752   4.798   6.352  17.820  0.3003 -1.4107  1.1215
 1853TIP3   OH229753   1.478   0.728  16.926  0.5189  0.2881 -0.1896
 1853TIP3    H129754   1.491   0.720  17.021  1.0356 -0.8910 -0.3478
 1853TIP3    H229755   1.538   0.799  16.901 -0.2247  1.1776  0.4702
 1854TIP3   OH229756   6.569   7.114  17.745  0.1922  0.1729  0.1914
 1854TIP3    H129757   6.632   7.064  17.798 -1.5334 -1.7838  0.4954
 1854TIP3    H229758   6.616   7.133  17.664  1.3942 -0.6461  0.6601
 1855TIP3   OH229759   6.580   4.192  17.443  0.4394 -0.8275 -0.2628
 1855TIP3    H129760   6.662   4.143  17.452  1.1187  0.3896  0.4587
 1855TIP3    H229761   6.597   4.274  17.489 -1.5839 -1.0252  0.9391
 1856TIP3   OH229762   2.891   5.945  16.123 -0.2151 -0.0250 -0.5504
 1856TIP3    H129763   2.986   5.938  16.133  0.1444  0.7785 -2.7336
 1856TIP3    H229764   2.862   5.990  16.202  1.2969  0.2083 -0.0913
 1857TIP3   OH229765   1.686   7.346  16.319 -0.5764 -0.3356  0.4888
 1857TIP3    H129766   1.631   7.372  16.245 -2.1050  0.0871  1.7216
 1857TIP3    H229767   1.703   7.427  16.366 -0.1699 -0.7005  0.9775
 1858TIP3   OH229768   5.806   5.391  16.765 -0.2797  0.6974 -0.2279
 1858TIP3    H129769   5.871   5.346  16.712 -0.1625  0.9326 -0.2832
 1858TIP3    H229770   5.785   5.471  16.717 -0.3466  0.7977 -0.0368
 1859TIP3   OH229771   8.448   7.111  16.351 -0.2134 -0.0432  0.0617
 1859TIP3    H129772   8.358   7.093  16.325 -0.5168  1.2130  0.2035
 1859TIP3    H229773   8.462   7.053  16.427 -0.4198 -1.2475 -0.7798
 1860TIP3   OH229774   0.365   2.485  16.793 -0.1108 -0.3495  0.2395
 1860TIP3    H129775   0.393   2.413  16.737  1.4748 -0.5568  1.2163
 1860TIP3    H229776   0.307   2.445  16.858 -1.4747 -0.2122 -0.8566
 1861TIP3   OH229777   3.389   0.225  17.036  0.1021 -0.0624 -0.0698
 1861TIP3    H129778   3.470   0.187  17.000  0.1132  0.1737 -0.2999
 1861TIP3    H229779   3.319   0.177  16.991  0.1120  0.7851 -1.0232
 1862TIP3   OH229780   0.979   6.239  17.888 -0.0900  0.0755 -0.2554
 1862TIP3    H129781   1.058   6.190  17.863  0.8930  1.3667  0.2280
 1862TIP3    H229782   0.998   6.329  17.863 -1.2482  0.4841  0.2835
 1863TIP3   OH229783   0.337   1.210  16.629  0.2963 -0.0845 -0.1617
 1863TIP3    H129784   0.353   1.304  16.634 -1.8661  0.4154 -1.4418
 1863TIP3    H229785   0.401   1.179  16.564  0.2208  0.7358 -0.6460
 1864TIP3   OH229786   0.918   2.049  17.301  0.6636  0.5608 -0.7773
 1864TIP3    H129787   0.838   2.101  17.307  0.8968  1.0254 -1.5059
 1864TIP3    H229788   0.982   2.108  17.260  1.1220 -0.0844 -1.0141
 1865TIP3   OH229789   7.077   3.909  16.961 -0.2044 -0.0641 -0.1429
 1865TIP3    H129790   7.074   3.986  16.905  1.1899 -1.3446 -2.1112
 1865TIP3    H229791   7.158   3.917  17.010 -0.3266 -0.0259  0.0543
 1866TIP3   OH229792   7.629   9.030  15.824 -0.3070 -0.2548 -0.0655
 1866TIP3    H129793   7.662   8.949  15.785 -1.3065  0.0122 -1.5473
 1866TIP3    H229794   7.668   9.100  15.771 -1.8555  0.1191 -0.7508
 1867TIP3   OH229795   4.056   7.295  16.909  0.9533  0.4248 -0.3461
 1867TIP3    H129796   4.086   7.210  16.877 -0.2446  0.0476 -0.4844
 1867TIP3    H229797   4.023   7.341  16.832  0.4870  0.5404 -0.0827
 1868TIP3   OH229798   7.917   0.558  16.620 -0.2289 -0.3236  0.0831
 1868TIP3    H129799   7.940   0.473  16.655  2.0493 -0.2331 -1.0278
 1868TIP3    H229800   7.988   0.616  16.647 -1.0117  0.9084 -0.3765
 1869TIP3   OH229801   7.834   5.270  17.223 -0.2161  0.0341  0.0239
 1869TIP3    H129802   7.872   5.193  17.265  0.3318 -0.2454 -0.9429
 1869TIP3    H229803   7.740   5.263  17.238 -0.0438 -0.1103  1.0867
 1870TIP3   OH229804   5.560   1.031  17.728 -0.2156 -0.2203 -0.4118
 1870TIP3    H129805   5.553   0.951  17.779  2.0306  0.7169  1.5407
 1870TIP3    H229806   5.479   1.078  17.746 -0.3362 -0.8232  0.6881
 1871TIP3   OH229807   4.073   8.561  15.985 -0.6279  0.3508 -0.0202
 1871TIP3    H129808   4.042   8.584  16.073  0.6426  1.1338  0.2490
 1871TIP3    H229809   4.006   8.596  15.926 -0.6192  1.4247  0.5737
 1872TIP3   OH229810   5.057   8.885  15.868  0.3798 -0.5020  0.5545
 1872TIP3    H129811   5.145   8.892  15.830 -0.5262 -1.3331 -1.9397
 1872TIP3    H229812   5.036   8.973  15.898  0.1603  1.1133 -3.6079
 1873TIP3   OH229813   9.153   7.947  17.049 -0.0065  0.1869 -0.7771
 1873TIP3    H129814   9.199   8.030  17.037  1.0175 -0.3343 -0.5949
 1873TIP3    H229815   9.100   7.960  17.128 -1.2607  1.2513 -1.7511
 1874TIP3   OH229816   3.306   5.146  17.461  0.0443 -0.3687 -0.0280
 1874TIP3    H129817   3.233   5.176  17.516 -0.2131 -0.5147 -0.2832
 1874TIP3    H229818   3.301   5.201  17.382  0.5023 -0.0590  0.1560
 1875TIP3   OH229819   0.152   0.510  15.837 -0.1174  0.0018 -0.7072
 1875TIP3    H129820   0.199   0.504  15.920 -0.0034 -0.1005 -0.7776
 1875TIP3    H229821   0.131   0.603  15.828 -0.3633 -0.0255 -0.4372
 1876TIP3   OH229822   1.496   1.596  17.198  0.6835 -0.3756 -0.5685
 1876TIP3    H129823   1.446   1.519  17.225  0.0875  0.2163  0.0456
 1876TIP3    H229824   1.566   1.603  17.262 -0.2332  0.5358  0.3695
 1877TIP3   OH229825   3.810   4.668  16.286  0.3645  0.2430 -0.1522
 1877TIP3    H129826   3.880   4.605  16.305  1.6476  2.1988  2.0894
 1877TIP3    H229827   3.745   4.652  16.354  0.3269  0.8048 -0.0549
 1878TIP3   OH229828   6.378   1.108  16.445 -0.3695  0.2710  0.3997
 1878TIP3    H129829   6.309   1.050  16.413  0.0934 -0.3788  0.5804
 1878TIP3    H229830   6.417   1.145  16.365  0.7375 -1.2967  0.1749
 1879TIP3   OH229831   3.843   5.357  16.358 -0.5157  0.0950 -0.0198
 1879TIP3    H129832   3.897   5.428  16.325 -0.1012 -0.1650  0.0876
 1879TIP3    H229833   3.906   5.292  16.390 -0.8625 -0.7673 -1.0488
 1880TIP3   OH229834   5.160   0.804  18.029 -0.2140 -0.4956  0.3638
 1880TIP3    H129835   5.155   0.852  17.946  3.4627 -2.7712 -1.4238
 1880TIP3    H229836   5.104   0.727  18.015 -0.0158 -0.6108  0.2070
 1881TIP3   OH229837   2.121   2.551  16.572 -0.4245 -0.6641  0.0108
 1881TIP3    H129838   2.140   2.567  16.480 -0.5191 -0.4212  0.0311
 1881TIP3    H229839   2.120   2.639  16.611 -0.6998 -0.7416  0.1799
 1882TIP3   OH229840   6.987   0.525  17.565  0.1615  0.3292  0.1978
 1882TIP3    H129841   7.054   0.457  17.555 -1.3256 -0.9533 -1.6912
 1882TIP3    H229842   7.019   0.578  17.638  2.0521 -1.6016  0.9089
 1883TIP3   OH229843   4.005   4.868  16.253 -0.3665 -0.1796 -0.2819
 1883TIP3    H129844   4.074   4.811  16.220 -0.0526  0.8837 -1.5491
 1883TIP3    H229845   3.924   4.819  16.239 -0.0508 -0.5657 -0.7727
 1884TIP3   OH229846   5.483   5.504  16.763 -0.2819 -0.6223  0.0699
 1884TIP3    H129847   5.505   5.587  16.721  0.7032 -1.0674 -0.3422
 1884TIP3    H229848   5.457   5.528  16.852  2.8630 -0.0203  0.9851
 1885TIP3   OH229849   2.478   6.788  15.950  0.0327 -0.4479  0.1380
 1885TIP3    H129850   2.400   6.831  15.985  0.0914  0.2444 -0.5504
 1885TIP3    H229851   2.449   6.699  15.930 -0.7748 -0.0220 -0.6970
 1886TIP3   OH229852   0.761   4.546  16.888 -0.5872  0.2576  0.5022
 1886TIP3    H129853   0.837   4.587  16.845 -0.8404  0.5130  0.2948
 1886TIP3    H229854   0.740   4.471  16.833 -0.6210  0.3144  0.4370
 1887TIP3   OH229855   4.288   2.469  15.839  0.0532  0.5596  0.3767
 1887TIP3    H129856   4.380   2.494  15.845  0.1034  0.5622 -0.3104
 1887TIP3    H229857   4.285   2.380  15.875  0.5592  0.0473 -0.7863
 1888TIP3   OH229858   3.218   6.511  17.044 -0.2716 -0.2987  0.5646
 1888TIP3    H129859   3.222   6.503  16.948 -2.2429 -1.0578  0.5053
 1888TIP3    H229860   3.179   6.428  17.073 -0.4785  0.2720  1.9585
 1889TIP3   OH229861   7.908   2.491  16.674  0.4976 -0.0694  0.1390
 1889TIP3    H129862   7.873   2.421  16.620  1.2769  0.1051 -0.6254
 1889TIP3    H229863   7.853   2.492  16.752 -0.8807 -0.1109 -0.7953
 1890TIP3   OH229864   9.144   0.343  15.833  0.3089 -0.3233 -0.3760
 1890TIP3    H129865   9.064   0.370  15.789 -0.3499 -0.9834  0.3781
 1890TIP3    H229866   9.208   0.411  15.811  0.5440 -1.4242 -3.7206
 1891TIP3   OH229867   2.856   1.691  17.689 -0.0918  0.7773 -0.1993
 1891TIP3    H129868   2.842   1.597  17.677 -0.3521  0.2731  3.1162
 1891TIP3    H229869   2.775   1.731  17.658 -1.5006 -0.4694  1.6754
 1892TIP3   OH229870   4.470   6.263  16.822  0.0817 -0.6039 -0.2222
 1892TIP3    H129871   4.409   6.298  16.757 -0.2798 -0.3791  0.2303
 1892TIP3    H229872   4.437   6.175  16.841 -2.6380  0.8561  3.0298
 1893TIP3   OH229873   6.719   4.413  16.737 -0.6345 -0.4434  0.1510
 1893TIP3    H129874   6.801   4.463  16.738  0.8141 -2.5550  3.5788
 1893TIP3    H229875   6.732   4.347  16.670  0.8951 -1.2728  1.2094
 1894TIP3   OH229876   1.769   8.960  16.448  0.0702  0.0364 -0.2877
 1894TIP3    H129877   1.676   8.980  16.436 -0.4446 -1.1547  1.2823
 1894TIP3    H229878   1.792   8.906  16.373 -0.7719 -0.4515 -0.2052
 1895TIP3   OH229879   2.406   6.599  16.405 -0.5803 -0.2830 -0.9095
 1895TIP3    H129880   2.399   6.541  16.329 -0.3968 -0.0920 -1.0728
 1895TIP3    H229881   2.455   6.548  16.470  0.2678 -0.0228 -1.3391
 1896TIP3   OH229882   7.847   1.045  16.882  0.2634 -0.6450  0.3565
 1896TIP3    H129883   7.821   0.976  16.943  0.6391 -1.3367 -0.2619
 1896TIP3    H229884   7.812   1.017  16.798  0.5292 -0.1373  0.0761
 1897TIP3   OH229885   5.458   8.014  16.540 -0.2414 -0.1070 -0.1110
 1897TIP3    H129886   5.369   8.012  16.574 -0.7227 -1.6325 -1.3282
 1897TIP3    H229887   5.474   8.105  16.517 -1.0840  0.3631  1.0950
 1898TIP3   OH229888   7.599   7.673  16.416 -0.4297  0.5065 -0.1543
 1898TIP3    H129889   7.585   7.611  16.345  1.5784  0.2688 -0.3919
 1898TIP3    H229890   7.560   7.755  16.385 -1.3523 -0.1077 -0.6582
 1899TIP3   OH229891   0.199   2.634  17.066  0.4390 -0.1567 -1.0346
 1899TIP3    H129892   0.222   2.546  17.097  0.7713  0.5814  0.9177
 1899TIP3    H229893   0.106   2.643  17.087  0.2695 -0.2325 -1.7331
 1900TIP3   OH229894   2.806   5.378  16.786  0.0175  0.0226  0.0608
 1900TIP3    H129895   2.833   5.294  16.823  0.3143 -0.1619 -0.5672
 1900TIP3    H229896   2.815   5.440  16.859  0.2848 -0.3938  0.3843
 1901TIP3   OH229897   0.121   3.341  17.629 -0.2843 -0.3509 -0.4176
 1901TIP3    H129898   0.066   3.318  17.704 -1.1337 -0.5898 -1.0989
 1901TIP3    H229899   0.097   3.278  17.562 -0.0242  0.2822 -1.1151
 1902TIP3   OH229900   1.260   6.619  17.382  0.0692  0.5215  0.0113
 1902TIP3    H129901   1.177   6.577  17.358  0.9779 -0.5823 -1.3711
 1902TIP3    H229902   1.304   6.553  17.436  1.4070 -0.2969 -1.9753
 1903TIP3   OH229903   6.722   5.260  17.269 -0.3449  0.0864 -0.6484
 1903TIP3    H129904   6.699   5.245  17.361 -0.4000 -1.1783 -0.8536
 1903TIP3    H229905   6.651   5.315  17.236 -0.9958 -0.4823 -0.2410
 1904TIP3   OH229906   1.279   6.125  17.146  0.1788  0.0403 -0.0441
 1904TIP3    H129907   1.192   6.141  17.111  0.2886 -1.0789 -0.8542
 1904TIP3    H229908   1.322   6.211  17.143 -1.4596  1.0512  2.1011
 1905TIP3   OH229909   1.134   8.928  17.796  0.0391 -0.4998  0.0212
 1905TIP3    H129910   1.067   8.993  17.816  0.7184 -0.6069  3.2092
 1905TIP3    H229911   1.090   8.864  17.740 -1.3682  1.3593 -1.0774
 1906TIP3   OH229912   8.273   6.472  16.061 -0.1717  0.0052  0.2449
 1906TIP3    H129913   8.212   6.437  16.125  1.4465 -0.7679  1.4275
 1906TIP3    H229914   8.360   6.443  16.091  0.7598  0.6962 -1.5887
 1907TIP3   OH229915   5.857   1.770  17.417  0.4619  0.0618 -0.0065
 1907TIP3    H129916   5.818   1.698  17.368 -0.9153  1.4301 -1.0415
 1907TIP3    H229917   5.918   1.810  17.356 -0.6384  1.2632 -0.3689
 1908TIP3   OH229918   1.492   0.196  17.566  0.0061 -0.7353 -0.0250
 1908TIP3    H129919   1.480   0.165  17.476  1.6025 -1.4268 -0.0304
 1908TIP3    H229920   1.544   0.127  17.608 -0.9601 -0.5688  1.5290
 1909TIP3   OH229921   3.829   3.591  16.194  0.6659  0.3373  0.3557
 1909TIP3    H129922   3.842   3.522  16.259 -1.6341 -1.0361 -0.5458
 1909TIP3    H229923   3.864   3.555  16.113 -0.6611  0.1072 -0.1475
 1910TIP3   OH229924   8.026   0.726  17.100  0.2003 -0.2014  0.1894
 1910TIP3    H129925   8.055   0.647  17.055  2.2820  1.5830 -1.9225
 1910TIP3    H229926   7.954   0.759  17.046  0.3550  0.1132  0.1707
 1911TIP3   OH229927   8.149   0.493  17.252  0.0635  1.1872 -0.0072
 1911TIP3    H129928   8.098   0.572  17.270 -1.1922  0.8320 -1.7472
 1911TIP3    H229929   8.224   0.524  17.201  0.1877  1.3760  0.2864
 1912TIP3   OH229930   1.902   6.225  16.671 -0.4092 -0.5700 -0.0474
 1912TIP3    H129931   1.919   6.249  16.763  1.8738 -0.8556 -0.3367
 1912TIP3    H229932   1.899   6.309  16.625 -1.9070 -0.4059  0.3136
 1913TIP3   OH229933   8.578   6.715  17.580 -0.1183  0.3544  0.4088
 1913TIP3    H129934   8.644   6.650  17.557  0.4685  0.8755  0.5681
 1913TIP3    H229935   8.627   6.781  17.630 -0.5988  1.1508 -0.1577
 1914TIP3   OH229936   0.454   8.519  16.825  0.1063 -0.2247  0.2713
 1914TIP3    H129937   0.410   8.597  16.793  0.0588 -0.0689  0.7066
 1914TIP3    H229938   0.524   8.551  16.882  0.0416 -0.4925  0.5109
 1915TIP3   OH229939   8.074   9.048  16.253  0.0414  0.0031  0.4259
 1915TIP3    H129940   8.154   9.042  16.306  0.2305  0.8360  0.2420
 1915TIP3    H229941   8.072   9.138  16.223 -1.0707  0.0284  0.5632
 1916TIP3   OH229942   7.447   3.723  17.796 -1.0188  0.1490 -0.2851
 1916TIP3    H129943   7.458   3.713  17.890 -0.0809  0.7757 -0.3144
 1916TIP3    H229944   7.429   3.635  17.764  3.3005 -0.9948 -0.0876
 1917TIP3   OH229945   4.687   3.739  16.472  0.5048  0.0668  0.3691
 1917TIP3    H129946   4.778   3.760  16.450  0.4038  3.3132  2.4161
 1917TIP3    H229947   4.665   3.799  16.544 -3.7762  0.5329 -1.0464
 1918TIP3   OH229948   5.230   7.303  17.598  0.2170  0.2477 -0.4260
 1918TIP3    H129949   5.205   7.212  17.612 -0.3478  0.8026  3.2222
 1918TIP3    H229950   5.147   7.349  17.586  0.3748  0.5284 -0.4544
 1919TIP3   OH229951   2.137   3.180  16.941 -0.4357  0.3730 -0.2961
 1919TIP3    H129952   2.175   3.151  16.858  0.0156  0.9685 -0.3017
 1919TIP3    H229953   2.143   3.103  16.998  0.1662  0.2507 -0.5136
 1920TIP3   OH229954   6.595   4.562  16.087 -0.2927 -0.1935  0.0944
 1920TIP3    H129955   6.616   4.529  16.175  1.8990 -1.3119 -0.7654
 1920TIP3    H229956   6.564   4.484  16.040  0.8214 -0.1419 -0.7585
 1921TIP3   OH229957   4.795   1.329  16.333  0.0034  0.5100 -0.1020
 1921TIP3    H129958   4.799   1.271  16.256 -0.0152  0.7502 -0.2865
 1921TIP3    H229959   4.872   1.386  16.323  2.1324 -1.7588  1.9332
 1922TIP3   OH229960   3.390   5.213  16.102  0.2258 -0.3563  0.3588
 1922TIP3    H129961   3.361   5.123  16.113  0.1143 -0.6051 -1.5902
 1922TIP3    H229962   3.310   5.265  16.107  0.1002 -0.5179  0.0586
 1923TIP3   OH229963   8.183   4.826  17.388  0.2205  0.7261 -0.3885
 1923TIP3    H129964   8.188   4.731  17.375  0.2815  0.4899  1.1692
 1923TIP3    H229965   8.128   4.837  17.465  1.3691  1.8772  0.3144
 1924TIP3   OH229966   6.153   2.287  17.464 -0.0973 -0.6274  0.0440
 1924TIP3    H129967   6.115   2.247  17.386  1.0409 -2.3861  0.3306
 1924TIP3    H229968   6.232   2.236  17.481  2.2725  2.6434 -0.3160
 1925TIP3   OH229969   9.022   4.841  17.866  0.4549  0.1776 -0.1923
 1925TIP3    H129970   8.992   4.783  17.796 -0.0658  1.3902 -1.0078
 1925TIP3    H229971   8.979   4.924  17.848  1.7940  1.0508  0.5012
 1926TIP3   OH229972   1.310   0.626  16.286 -0.0839 -0.1970  0.2659
 1926TIP3    H129973   1.267   0.707  16.256 -1.4733 -1.2272 -0.6335
 1926TIP3    H229974   1.382   0.613  16.224 -0.5986 -0.2697 -0.3328
 1927TIP3   OH229975   4.486   1.891  16.770  0.0128  0.2272 -0.3533
 1927TIP3    H129976   4.557   1.862  16.827 -0.8245 -0.0481  0.5744
 1927TIP3    H229977   4.505   1.850  16.685  1.0349  0.2926 -0.1741
 1928TIP3   OH229978   4.287   4.137  16.917 -0.1214 -0.5728 -0.8221
 1928TIP3    H129979   4.319   4.119  17.005 -0.6012  0.2915 -0.4644
 1928TIP3    H229980   4.200   4.174  16.930 -0.8385 -1.8702 -1.7352
 1929TIP3   OH229981   3.926   1.708  17.248  0.1180 -0.4363 -0.6755
 1929TIP3    H129982   3.838   1.740  17.231  0.4084 -0.4482 -2.3693
 1929TIP3    H229983   3.937   1.718  17.343 -0.8989  1.5819 -0.7147
 1930TIP3   OH229984   8.096   4.665  17.781  0.2678 -0.3096  0.9408
 1930TIP3    H129985   8.144   4.586  17.753  0.2405 -0.1485  0.4285
 1930TIP3    H229986   8.132   4.686  17.867  1.0328 -0.2676  0.6159
 1931TIP3   OH229987   2.814   4.082  17.548 -0.3974  0.5389  0.4522
 1931TIP3    H129988   2.753   4.011  17.566 -1.1939  0.1280 -2.9932
 1931TIP3    H229989   2.759   4.151  17.511  0.8964  1.1923 -0.3225
 1932TIP3   OH229990   7.606   8.720  17.308  0.6358  0.0211  0.2845
 1932TIP3    H129991   7.555   8.773  17.247  1.1489  0.5016  0.2614
 1932TIP3    H229992   7.565   8.737  17.393  0.4804  0.0567  0.2020
 1933TIP3   OH229993   8.769   9.123  18.220 -0.1128  0.0802  0.1416
 1933TIP3    H129994   8.855   9.086  18.202 -0.3657 -0.6420  0.3919
 1933TIP3    H229995   8.734   9.070  18.292 -0.2770  1.1118  0.8511
 1934TIP3   OH229996   9.205   6.943  16.811  0.3972 -0.0568 -0.2167
 1934TIP3    H129997   9.166   7.021  16.771  0.3202 -0.2521 -0.5167
 1934TIP3    H229998   9.228   6.887  16.738 -2.5016 -1.7865  0.0659
 1935TIP3   OH229999   4.538   0.097  15.731  0.1647 -0.3953 -0.5545
 1935TIP3    H130000   4.512   0.006  15.718  1.9386 -0.5897 -3.7023
 1935TIP3    H230001   4.609   0.092  15.795  0.2618 -1.2448 -0.7155
 1936TIP3   OH230002   8.141   6.394  17.231  0.4785 -0.0126  0.2929
 1936TIP3    H130003   8.089   6.453  17.285 -1.6742  0.6131 -2.2949
 1936TIP3    H230004   8.222   6.442  17.214 -0.5553  1.5649 -0.3926
 1937TIP3   OH230005   1.252   4.403  17.189  0.5615 -0.6282 -0.0877
 1937TIP3    H130006   1.331   4.363  17.154  0.1785 -0.4751 -1.1615
 1937TIP3    H230007   1.216   4.454  17.116  0.1784  0.3756  0.7729
 1938TIP3   OH230008   3.953   3.817  16.325  0.4283 -0.3351 -0.2162
 1938TIP3    H130009   3.878   3.870  16.354  0.7900  1.1354 -1.7872
 1938TIP3    H230010   3.914   3.742  16.281 -0.1144 -2.1502  3.1049
 1939TIP3   OH230011   2.582   7.921  17.557 -0.2330 -0.3635 -0.3212
 1939TIP3    H130012   2.569   7.944  17.649 -0.6000  0.0651 -0.4772
 1939TIP3    H230013   2.646   7.986  17.526 -0.9523  0.2017 -0.6533
 1940TIP3   OH230014   3.490   1.683  16.410 -0.1866 -0.0997 -0.2505
 1940TIP3    H130015   3.481   1.594  16.376  0.5154 -0.0809 -0.4874
 1940TIP3    H230016   3.424   1.688  16.480  1.1097 -1.4790  1.1568
 1941TIP3   OH230017   8.633   8.566  16.282  0.4140 -0.3723  0.2111
 1941TIP3    H130018   8.645   8.591  16.190 -2.4841  2.3321  0.3861
 1941TIP3    H230019   8.722   8.559  16.317  1.6158 -1.6849 -2.7595
 1942TIP3   OH230020   5.534   7.932  17.936  0.2196  0.2802  0.1744
 1942TIP3    H130021   5.617   7.949  17.892 -0.9864  0.6691 -2.0575
 1942TIP3    H230022   5.511   7.843  17.911  0.1829 -0.0133  1.2020
 1943TIP3   OH230023   1.881   0.133  17.780  0.1153  0.5233  0.3863
 1943TIP3    H130024   1.883   0.038  17.790  1.1185  0.5042  0.0363
 1943TIP3    H230025   1.971   0.161  17.790 -0.2073  1.4810  0.7565
 1944TIP3   OH230026   7.659   9.064  16.305 -0.1514 -0.0666  0.1820
 1944TIP3    H130027   7.729   9.012  16.268  0.7746  1.0559  0.2895
 1944TIP3    H230028   7.594   9.071  16.235 -0.7091 -2.0439  0.4516
 1945TIP3   OH230029   4.322   3.081  15.918 -0.2192  0.5049 -0.3270
 1945TIP3    H130030   4.381   3.155  15.907  0.0509  0.2493 -0.5899
 1945TIP3    H230031   4.282   3.068  15.832 -1.3531  1.2605  0.0679
 1946TIP3   OH230032   9.073   8.964  18.125 -0.0009  0.0716 -0.4323
 1946TIP3    H130033   9.049   9.056  18.117 -1.1533 -0.2494 -0.8942
 1946TIP3    H230034   9.168   8.962  18.115 -0.0290  1.1413 -0.9525
 1947TIP3   OH230035   2.709   5.954  16.941  0.2394  0.0122 -0.9923
 1947TIP3    H130036   2.768   5.879  16.945  0.1577 -0.0157 -0.0805
 1947TIP3    H230037   2.636   5.925  16.886 -0.9498 -1.4410  1.2004
 1948TIP3   OH230038   2.213   6.042  16.363 -0.1836  0.5115  0.8462
 1948TIP3    H130039   2.234   6.135  16.357  1.4578  0.1045 -3.8631
 1948TIP3    H230040   2.289   6.003  16.406  0.0463  1.0908  0.9830
 1949TIP3   OH230041   0.158   3.833  16.526 -0.0248 -0.2892 -0.1056
 1949TIP3    H130042   0.230   3.887  16.495  0.0894 -0.6253 -0.4352
 1949TIP3    H230043   0.196   3.746  16.537 -0.3581 -0.4516 -0.2168
 1950TIP3   OH230044   4.578   1.432  17.666 -0.2771  0.2487  0.4217
 1950TIP3    H130045   4.584   1.445  17.572 -0.6964  0.8978  0.4749
 1950TIP3    H230046   4.539   1.345  17.676  0.0895  0.0360 -0.0001
 1951TIP3   OH230047   2.938   8.991  17.508 -0.1791 -0.4204 -0.1247
 1951TIP3    H130048   2.844   8.996  17.495  0.1042  2.1960 -1.9886
 1951TIP3    H230049   2.958   9.066  17.565  0.9928  0.6747 -1.8755
 1952TIP3   OH230050   7.531   7.763  17.722  0.8313 -0.2699  0.4955
 1952TIP3    H130051   7.555   7.703  17.792  2.0250  1.1793  1.3897
 1952TIP3    H230052   7.611   7.775  17.672  0.6220  0.5458  0.3286
 1953TIP3   OH230053   3.812   5.176  17.031 -0.1495  0.5867  0.6066
 1953TIP3    H130054   3.861   5.117  16.974 -0.4004 -0.2249  1.2143
 1953TIP3    H230055   3.879   5.219  17.084 -0.0306  0.2018  0.7663
 1954TIP3   OH230056   5.342   7.283  16.972 -0.8617  0.0328  0.8131
 1954TIP3    H130057   5.314   7.282  17.064 -2.9072 -0.5565  0.2379
 1954TIP3    H230058   5.369   7.374  16.956 -2.4410  0.6584  1.4823
 1955TIP3   OH230059   3.473   4.379  16.853  0.4179  0.0746  0.2156
 1955TIP3    H130060   3.441   4.350  16.767  0.0640 -2.8730  1.2343
 1955TIP3    H230061   3.415   4.452  16.876 -2.3933 -1.8556 -0.2382
 1956TIP3   OH230062   4.621   3.439  17.421 -0.0376  0.1734 -0.1154
 1956TIP3    H130063   4.566   3.390  17.360 -1.1043  0.9654  0.1817
 1956TIP3    H230064   4.657   3.372  17.480 -1.8041 -0.2297  0.5525
 1957TIP3   OH230065   4.484   8.434  17.085  0.2208  0.4437  0.0716
 1957TIP3    H130066   4.501   8.412  17.176 -0.7123 -1.2276 -0.1258
 1957TIP3    H230067   4.565   8.413  17.039 -0.1249 -1.1615  0.1482
 1958TIP3   OH230068   0.517   6.054  17.389  0.3819  0.3580 -0.5785
 1958TIP3    H130069   0.596   6.026  17.437 -0.7891 -1.2569  0.5105
 1958TIP3    H230070   0.548   6.069  17.300  1.7579 -1.2481 -0.4317
 1959TIP3   OH230071   8.535   2.625  17.765 -0.1081 -0.2937  0.1405
 1959TIP3    H130072   8.526   2.682  17.842 -1.7677 -1.7048  1.0584
 1959TIP3    H230073   8.475   2.553  17.782  0.7103 -1.4848 -1.7572
 1960TIP3   OH230074   3.565   0.191  17.755 -0.4417 -0.0815  0.0925
 1960TIP3    H130075   3.498   0.259  17.760 -1.1960 -0.5528 -2.3312
 1960TIP3    H230076   3.638   0.225  17.806 -1.7475  1.3577  1.0996
 1961TIP3   OH230077   8.160   8.576  15.872  0.6134 -0.0758 -0.4453
 1961TIP3    H130078   8.220   8.502  15.882  3.3501  2.1210  1.1859
 1961TIP3    H230079   8.135   8.599  15.961  0.7382  1.5552 -0.7931
 1962TIP3   OH230080   3.480   3.026  16.053 -0.2164 -0.0548  0.5674
 1962TIP3    H130081   3.516   2.973  15.983 -1.4651 -0.5753  0.2952
 1962TIP3    H230082   3.452   3.107  16.011 -1.5940 -0.6341  0.2863
 1963TIP3   OH230083   4.946   0.723  16.790 -0.1577 -0.3759  0.6947
 1963TIP3    H130084   4.989   0.715  16.705 -0.4703 -0.9510  0.5809
 1963TIP3    H230085   4.852   0.724  16.769 -0.2514 -0.9466  1.0537
 1964TIP3   OH230086   1.067   5.817  18.003 -0.0809  0.1502  0.2049
 1964TIP3    H130087   0.994   5.871  18.033  0.8926  1.2039  0.7588
 1964TIP3    H230088   1.026   5.742  17.961 -1.4768  0.8589  0.2541
 1965TIP3   OH230089   0.351   0.012  16.964  0.3192  0.5487  1.1146
 1965TIP3    H130090   0.285   0.055  16.910 -1.0722 -0.9020  1.5813
 1965TIP3    H230091   0.402  -0.041  16.903  0.6015  1.1110  0.8534
 1966TIP3   OH230092   6.679   8.741  16.467  0.8371  0.2512 -0.1840
 1966TIP3    H130093   6.749   8.774  16.411  0.7586  1.2107  0.2676
 1966TIP3    H230094   6.710   8.757  16.556 -0.8018  2.6265  0.0356
 1967TIP3   OH230095   2.938   4.507  16.762  0.3508  0.2662 -0.0156
 1967TIP3    H130096   2.923   4.529  16.670 -0.2499  2.7881  0.6049
 1967TIP3    H230097   2.955   4.591  16.804 -1.4454 -0.5251  2.5306
 1968TIP3   OH230098   7.040   5.524  17.028 -0.0432 -0.0492 -0.0012
 1968TIP3    H130099   7.101   5.497  16.959 -2.3633 -0.0672 -2.1932
 1968TIP3    H230100   6.970   5.459  17.025 -1.4342  1.3477  0.6487
 1969TIP3   OH230101   8.179   3.428  17.360 -0.7092 -0.3670  0.1472
 1969TIP3    H130102   8.140   3.490  17.421 -1.0449  1.0362 -1.4074
 1969TIP3    H230103   8.273   3.444  17.364 -0.7747  0.0697 -0.0545
 1970TIP3   OH230104   7.303   8.963  16.778  1.0068  0.6381  0.5822
 1970TIP3    H130105   7.370   8.901  16.808  1.9398  2.0820  1.5839
 1970TIP3    H230106   7.352   9.035  16.739 -0.1018 -0.2902 -2.9369
 1971TIP3   OH230107   4.148   2.840  15.647 -0.4086 -0.1163 -0.3329
 1971TIP3    H130108   4.129   2.746  15.654 -0.7692 -0.1134 -1.1716
 1971TIP3    H230109   4.136   2.860  15.554 -2.0056  1.0971  0.0948
 1972TIP3   OH230110   5.957   7.503  17.679  0.0877  0.0003 -0.0369
 1972TIP3    H130111   5.976   7.582  17.731  2.8027 -0.4409 -0.2074
 1972TIP3    H230112   6.028   7.499  17.615 -0.6688 -1.9400 -0.8327
 1973TIP3   OH230113   2.424   0.756  16.866  0.2716  0.0521  0.5021
 1973TIP3    H130114   2.505   0.781  16.820  1.1667 -0.5400  1.7027
 1973TIP3    H230115   2.378   0.839  16.878  0.7834  0.4254 -0.0268
 1974TIP3   OH230116   3.198   8.790  17.169  0.0877 -0.4849  0.1737
 1974TIP3    H130117   3.283   8.836  17.171  1.0618 -2.1882 -0.0091
 1974TIP3    H230118   3.185   8.759  17.258  0.8527 -2.2442 -0.2935
 1975TIP3   OH230119   9.063   3.266  16.392  0.2267  1.0601  0.0818
 1975TIP3    H130120   9.152   3.248  16.420  0.2776  0.6039 -0.3557
 1975TIP3    H230121   9.033   3.184  16.351  0.4696  1.9349 -1.9862
 1976TIP3   OH230122   5.476   0.722  17.395 -0.2902 -0.1382 -0.3112
 1976TIP3    H130123   5.421   0.763  17.461  0.4290 -0.4051  0.4747
 1976TIP3    H230124   5.546   0.785  17.379  0.6793 -0.8908  0.7156
 1977TIP3   OH230125   3.482   0.223  17.354  0.1125 -0.0452 -0.1873
 1977TIP3    H130126   3.392   0.240  17.382  0.0340  0.6376 -0.8074
 1977TIP3    H230127   3.529   0.304  17.376  0.5431 -0.3461  0.0050
 1978TIP3   OH230128   0.713   0.151  17.452  0.4366 -0.3514  0.1994
 1978TIP3    H130129   0.628   0.152  17.495  0.6753 -0.0995  0.6782
 1978TIP3    H230130   0.698   0.191  17.367 -0.1350 -1.2677 -0.1330
 1979TIP3   OH230131   0.265   2.601  17.928 -0.2430  0.0592  1.1022
 1979TIP3    H130132   0.318   2.556  17.863  0.8309 -0.6627  2.4226
 1979TIP3    H230133   0.189   2.545  17.940  0.5836 -0.9113  1.9799
 1980TIP3   OH230134   1.123   2.147  17.644  0.0573  0.0369 -0.6000
 1980TIP3    H130135   1.043   2.196  17.660  0.4425  0.6514 -0.4864
 1980TIP3    H230136   1.095   2.066  17.602 -0.4694  1.0622 -2.2869
 1981TIP3   OH230137   4.579   3.869  17.243  0.1651  0.6421  0.4635
 1981TIP3    H130138   4.569   3.843  17.334  1.4141  0.9743  0.7094
 1981TIP3    H230139   4.572   3.787  17.194 -2.4958  0.6753  0.6367
 1982TIP3   OH230140   8.571   7.356  16.590 -0.4958 -0.0113  0.1982
 1982TIP3    H130141   8.593   7.342  16.498  0.2649  1.0359  0.2009
 1982TIP3    H230142   8.594   7.274  16.633 -0.3226 -0.3149 -0.4552
 1983TIP3   OH230143   6.559   7.871  17.793 -0.1892 -0.2395  0.4291
 1983TIP3    H130144   6.653   7.885  17.775 -0.1256 -0.8368  0.2893
 1983TIP3    H230145   6.542   7.782  17.763 -1.5831  0.9615 -2.7932
 1984TIP3   OH230146   8.280   1.941  17.017  0.4756  0.8221 -0.0048
 1984TIP3    H130147   8.236   1.865  17.056  1.0309  0.2400 -0.4902
 1984TIP3    H230148   8.289   1.919  16.924  0.8935  1.3540 -0.0979
 1985TIP3   OH230149   7.015   6.304  17.646  0.0031  0.0829 -0.0527
 1985TIP3    H130150   7.043   6.345  17.564 -0.9816  0.0544 -0.4185
 1985TIP3    H230151   6.970   6.374  17.693 -0.8911 -0.3260 -0.2789
 1986TIP3   OH230152   7.268   2.456  16.812  0.2700 -0.1707  0.0086
 1986TIP3    H130153   7.331   2.384  16.808 -0.5147 -0.8657 -0.1486
 1986TIP3    H230154   7.252   2.478  16.720 -0.3247 -0.5504  0.0164
 1987TIP3   OH230155   7.721   3.915  17.091 -0.7161  0.2220 -0.1970
 1987TIP3    H130156   7.663   3.961  17.030  0.1648  0.5148 -0.8337
 1987TIP3    H230157   7.710   3.822  17.070 -1.1941  0.2562 -0.0960
 1988TIP3   OH230158   7.960   7.025  15.947  0.0381 -0.4953 -0.2352
 1988TIP3    H130159   7.931   7.081  15.875 -0.2851 -0.5701 -0.1669
 1988TIP3    H230160   7.879   7.003  15.993  0.1002 -1.4158 -0.5494
 1989TIP3   OH230161   5.777   3.265  16.746 -0.5887  0.3576  0.6736
 1989TIP3    H130162   5.851   3.227  16.793  0.0587  0.5670 -0.1483
 1989TIP3    H230163   5.700   3.233  16.792 -0.0471 -1.3507  0.4625
 1990TIP3   OH230164   4.052   2.606  16.543  0.2464  0.0469  0.2145
 1990TIP3    H130165   3.963   2.638  16.561 -0.6295 -2.9022  1.7847
 1990TIP3    H230166   4.040   2.543  16.472  0.8410 -1.2965  1.2706
 1991TIP3   OH230167   8.957   0.638  15.856 -0.1623  0.5844  0.4140
 1991TIP3    H130168   8.905   0.680  15.924  0.9143  3.3497 -0.2813
 1991TIP3    H230169   9.032   0.698  15.844  1.4077 -1.4985 -0.9014
 1992TIP3   OH230170   8.049   0.589  17.542  0.3298 -0.2555 -0.1960
 1992TIP3    H130171   8.032   0.610  17.634  1.7085  0.0793 -0.0040
 1992TIP3    H230172   8.056   0.494  17.540  0.3779 -0.2570  0.0505
 1993TIP3   OH230173   7.871   0.395  17.143 -0.1090 -0.2046  0.2851
 1993TIP3    H130174   7.938   0.462  17.154  1.4489 -1.8224  1.1467
 1993TIP3    H230175   7.829   0.416  17.059 -0.9892  2.8848  1.3640
 1994TIP3   OH230176   2.266   5.989  16.883 -0.0011  0.6874  0.3680
 1994TIP3    H130177   2.323   5.924  16.841  0.1899  1.4159 -0.5365
 1994TIP3    H230178   2.185   5.987  16.832  0.0368  1.2230  0.2885
 1995TIP3   OH230179   8.180   8.892  15.865  0.2619 -0.2110  0.0385
 1995TIP3    H130180   8.184   8.812  15.814 -0.2169  0.1387 -0.5725
 1995TIP3    H230181   8.215   8.869  15.950 -0.5028 -1.2457  0.0851
 1996TIP3   OH230182   8.035   8.679  16.111 -0.3746 -0.1477 -0.0760
 1996TIP3    H130183   7.975   8.753  16.122 -0.9526 -0.6619  0.3201
 1996TIP3    H230184   7.988   8.604  16.148  0.1080 -0.7627 -0.6797
 1997TIP3   OH230185   2.219   5.544  17.593  0.2298 -0.4064  0.2094
 1997TIP3    H130186   2.170   5.536  17.511  0.8412 -0.9968 -0.1056
 1997TIP3    H230187   2.280   5.470  17.592 -0.1822 -0.7788  1.4974
 1998TIP3   OH230188   0.488   2.026  15.962  0.1973  0.6974  0.0021
 1998TIP3    H130189   0.483   2.073  16.045 -0.2142  0.2054  0.2672
 1998TIP3    H230190   0.561   1.965  15.973 -0.1496  0.3056  0.1859
 1999TIP3   OH230191   4.053   6.287  17.317  0.0531 -0.0599 -0.3022
 1999TIP3    H130192   3.978   6.277  17.258 -0.2767  0.9792 -0.0745
 1999TIP3    H230193   4.017   6.331  17.394 -0.0419 -3.3015  1.6948
 2000TIP3   OH230194   4.326   6.973  15.518  0.3015  0.3867 -0.7298
 2000TIP3    H130195   4.382   7.048  15.537 -0.0366  0.5086 -0.2006
 2000TIP3    H230196   4.387   6.904  15.494  0.7727  0.1931  0.8858
 2001TIP3   OH230197   3.148   6.075  16.509 -0.4298  0.3218 -0.3618
 2001TIP3    H130198   3.225   6.017  16.510 -2.2505 -2.3217 -1.5521
 2001TIP3    H230199   3.104   6.057  16.592 -0.4827  0.7810 -0.2896
 2002TIP3   OH230200   5.420   4.691  17.327 -0.1988  0.1992 -0.0219
 2002TIP3    H130201   5.489   4.738  17.373  0.1568 -0.4120  0.0867
 2002TIP3    H230202   5.347   4.752  17.323 -0.9568 -0.3676  3.0474
 2003TIP3   OH230203   8.084   8.487  16.892  0.1498  0.6857  0.2194
 2003TIP3    H130204   8.085   8.516  16.983  0.4222 -0.8417  0.7411
 2003TIP3    H230205   8.174   8.457  16.876 -0.6453 -2.2291  0.5861
 2004TIP3   OH230206   2.794   3.398  17.817 -0.5908 -0.2246  0.1976
 2004TIP3    H130207   2.737   3.392  17.893 -0.6917 -0.7855  0.0831
 2004TIP3    H230208   2.767   3.325  17.760 -0.1341 -0.1655 -0.1095
 2005TIP3   OH230209   5.876   3.315  17.545 -0.4524 -0.9429 -0.1518
 2005TIP3    H130210   5.858   3.387  17.484  1.2282  0.5413  1.0176
 2005TIP3    H230211   5.833   3.239  17.505 -1.5325  0.4969 -1.8860
 2006TIP3   OH230212   8.626   6.121  17.043  0.3498 -0.3738 -0.2660
 2006TIP3    H130213   8.596   6.131  16.952  0.2242 -0.8567 -0.2787
 2006TIP3    H230214   8.548   6.095  17.091  0.6072 -1.0318 -0.1895
 2007TIP3   OH230215   2.604   0.390  16.826  0.2095 -1.0276  0.0811
 2007TIP3    H130216   2.640   0.411  16.740  0.8126  1.1851  0.8186
 2007TIP3    H230217   2.665   0.326  16.862  0.1082 -1.7620 -0.9678
 2008TIP3   OH230218   5.338   6.202  16.948  0.6284  0.4715 -0.3195
 2008TIP3    H130219   5.407   6.216  16.883  1.7414 -0.1277  0.6912
 2008TIP3    H230220   5.309   6.112  16.933  1.1243  0.2160  0.2102
 2009TIP3   OH230221   0.681   2.903  16.517 -0.1126 -0.0627 -0.4010
 2009TIP3    H130222   0.638   2.853  16.586  0.4282  0.7544  0.5618
 2009TIP3    H230223   0.626   2.890  16.439 -1.2644 -0.2413  0.4179
 2010TIP3   OH230224   7.918   2.282  16.911 -0.4092  0.2354  0.0846
 2010TIP3    H130225   7.859   2.212  16.940  1.5768 -0.5939  2.4748
 2010TIP3    H230226   7.921   2.343  16.984  0.6139  1.0108 -0.5735
 2011TIP3   OH230227   4.845   5.476  16.682  0.9813  0.0085  0.2192
 2011TIP3    H130228   4.769   5.506  16.732  0.3649 -0.2366 -0.5581
 2011TIP3    H230229   4.882   5.556  16.644 -0.0711 -0.0746 -1.0262
 2012TIP3   OH230230   2.730   6.931  17.270  0.0482  0.4617 -0.4928
 2012TIP3    H130231   2.787   7.002  17.300 -0.6257  1.2626 -1.0679
 2012TIP3    H230232   2.747   6.859  17.331  1.8401  0.5977 -0.7739
 2013TIP3   OH230233   0.033   6.396  17.565 -0.2163  0.2362  0.0563
 2013TIP3    H130234   0.037   6.372  17.472 -0.6058 -0.8054  0.2977
 2013TIP3    H230235  -0.057   6.427  17.577 -0.9375 -1.8766  0.5782
 2014TIP3   OH230236   2.939   3.719  15.738  0.1114 -0.6213 -0.6231
 2014TIP3    H130237   3.024   3.687  15.766  0.3091 -1.3531 -1.9872
 2014TIP3    H230238   2.959   3.797  15.685 -0.2905  1.1020  1.6284
 2015TIP3   OH230239   1.510   6.172  17.931  0.4233  0.3291  0.0590
 2015TIP3    H130240   1.532   6.127  18.013 -0.2360  1.0298  0.6389
 2015TIP3    H230241   1.415   6.161  17.922  0.2255  1.6236  0.2528
 2016TIP3   OH230242   7.200   6.163  16.464 -0.3188 -0.2159 -0.1751
 2016TIP3    H130243   7.262   6.235  16.457  0.8351 -1.1236  0.2834
 2016TIP3    H230244   7.150   6.166  16.382  0.3666  0.5034 -0.5761
 2017TIP3   OH230245   5.253   2.040  17.096  0.0538 -0.0530  0.1813
 2017TIP3    H130246   5.315   2.025  17.024  0.5858 -1.0354  0.8255
 2017TIP3    H230247   5.306   2.078  17.166 -0.6349  1.7639 -0.2289
 2018TIP3   OH230248   3.062   8.511  17.539  0.5001 -0.6803 -0.1734
 2018TIP3    H130249   3.128   8.447  17.567  0.9571  0.3699  1.2478
 2018TIP3    H230250   2.978   8.472  17.564  0.6947 -1.1805 -0.2773
 2019TIP3   OH230251   3.025   2.013  16.638 -0.6961  0.5296 -0.0581
 2019TIP3    H130252   3.083   1.975  16.572 -0.6379  0.3123  0.1161
 2019TIP3    H230253   3.006   1.940  16.697 -0.6817  0.7422  0.2111
 2020TIP3   OH230254   0.455   1.273  17.154 -0.0873 -0.3532 -0.5880
 2020TIP3    H130255   0.484   1.352  17.201  0.6014 -1.2228  0.4965
 2020TIP3    H230256   0.363   1.265  17.176 -0.4438  0.7216 -1.5698
 2021TIP3   OH230257   8.854   3.534  16.819  0.1980  0.4557  0.2108
 2021TIP3    H130258   8.917   3.499  16.882  0.2757 -0.7015 -0.4847
 2021TIP3    H230259   8.878   3.493  16.736 -1.6590 -0.2450 -0.0170
 2022TIP3   OH230260   0.640   6.921  18.126  0.0881  0.2100  0.4049
 2022TIP3    H130261   0.611   6.850  18.069  0.9237 -0.3185  0.6136
 2022TIP3    H230262   0.570   6.931  18.190 -0.7415  0.6378 -0.5426
 2023TIP3   OH230263   4.462   5.142  17.086  0.6545  0.2490  0.4061
 2023TIP3    H130264   4.541   5.182  17.049  1.6546 -1.2300  0.8448
 2023TIP3    H230265   4.440   5.071  17.024 -0.1405  0.4261  0.4701
 2024TIP3   OH230266   4.425   4.996  16.514  0.0125 -0.4070 -0.6338
 2024TIP3    H130267   4.419   4.980  16.420  0.1360 -0.4633 -0.6312
 2024TIP3    H230268   4.515   4.974  16.537  0.8986  2.4834 -1.0272
 2025TIP3   OH230269   7.304   4.198  16.304 -0.5152  0.3907 -0.2448
 2025TIP3    H130270   7.243   4.255  16.350 -0.8018 -0.3465  0.3079
 2025TIP3    H230271   7.270   4.193  16.215 -2.4758 -1.6129  0.5217
 2026TIP3   OH230272   3.497   1.855  17.352  0.4956 -0.2167  0.0878
 2026TIP3    H130273   3.511   1.939  17.396 -0.7779  0.7876 -1.3242
 2026TIP3    H230274   3.548   1.861  17.271  1.5452 -1.4023  0.6354
 2027TIP3   OH230275   5.976   6.498  16.682  0.3223  0.2408 -0.6154
 2027TIP3    H130276   5.881   6.496  16.690  0.2231  3.7069  1.2700
 2027TIP3    H230277   5.993   6.531  16.594 -0.1272 -1.1157 -1.2375
 2028TIP3   OH230278   6.335   6.765  16.700 -0.4335  0.2804  0.1823
 2028TIP3    H130279   6.310   6.847  16.657 -3.0368  0.3919  1.7507
 2028TIP3    H230280   6.323   6.698  16.633 -2.6049  0.6820  0.1046
 2029TIP3   OH230281   3.597   5.388  16.141  0.0500 -0.1898 -0.3811
 2029TIP3    H130282   3.528   5.323  16.133  0.2326 -0.5147  0.5457
 2029TIP3    H230283   3.673   5.339  16.174  0.4493  0.3263 -0.5204
 2030TIP3   OH230284   1.556   1.151  16.458  0.4301  0.0485 -0.5280
 2030TIP3    H130285   1.483   1.094  16.434  0.1194 -0.3442  1.1916
 2030TIP3    H230286   1.632   1.093  16.460  0.1385 -0.3372  1.0835
 2031TIP3   OH230287   0.094   8.183  15.948  0.0218 -0.1818  0.2023
 2031TIP3    H130288   0.057   8.198  15.862  0.4713  0.0978  0.0553
 2031TIP3    H230289   0.187   8.200  15.938  0.5169 -2.5445  0.1370
 2032TIP3   OH230290   4.340   0.636  17.435 -0.7499  0.1641 -0.9156
 2032TIP3    H130291   4.366   0.713  17.384  1.0641  0.4484  0.3578
 2032TIP3    H230292   4.345   0.563  17.373  0.8480  0.5910 -1.3285
 2033TIP3   OH230293   0.955   4.464  16.336  0.3076  0.1879 -0.5006
 2033TIP3    H130294   1.047   4.442  16.352  0.7294  0.6439 -2.0839
 2033TIP3    H230295   0.925   4.397  16.275  0.0750  0.9718 -1.2602
 2034TIP3   OH230296   2.969   5.150  17.231  0.6327  0.1452 -0.1384
 2034TIP3    H130297   2.923   5.073  17.198 -0.3034  0.5942  0.0920
 2034TIP3    H230298   3.062   5.127  17.224  0.3711 -0.9923 -0.0937
 2035TIP3   OH230299   0.453   8.374  17.682  0.0228 -0.4041 -0.4947
 2035TIP3    H130300   0.478   8.463  17.706 -1.9351 -0.2221  1.0116
 2035TIP3    H230301   0.524   8.345  17.623  1.1882  1.7654 -0.2594
 2036TIP3   OH230302   1.990   5.868  15.992 -0.0951  0.1582  0.2134
 2036TIP3    H130303   2.039   5.868  15.910  0.1164  1.0879  0.3352
 2036TIP3    H230304   1.916   5.808  15.976  0.5130 -0.4747 -0.2996
 2037TIP3   OH230305   3.638   7.387  17.751 -0.2060 -0.3216  0.0779
 2037TIP3    H130306   3.602   7.298  17.756 -3.8263  1.0380  1.5091
 2037TIP3    H230307   3.659   7.398  17.658  1.1904 -2.8683 -0.0136
 2038TIP3   OH230308   4.722   2.266  16.954  0.5317  0.1641 -0.1831
 2038TIP3    H130309   4.689   2.355  16.948 -0.5310 -0.2379 -0.5139
 2038TIP3    H230310   4.664   2.215  16.898 -0.0736 -1.0720  1.4847
 2039TIP3   OH230311   9.039   2.516  16.549 -0.3221  0.7332  0.0230
 2039TIP3    H130312   8.989   2.593  16.521 -2.2105 -0.6458 -0.6297
 2039TIP3    H230313   9.029   2.454  16.476  1.4557 -0.0186  0.3760
 2040TIP3   OH230314   1.070   7.001  16.730  0.0261 -0.5033 -0.1354
 2040TIP3    H130315   0.986   6.958  16.744  0.5757 -1.4236  0.4642
 2040TIP3    H230316   1.134   6.942  16.770  0.6968  1.5623  2.0757
 2041TIP3   OH230317   7.316   5.990  16.102  0.3019  0.0056 -0.1931
 2041TIP3    H130318   7.330   6.061  16.041 -0.9250 -0.9747 -1.6914
 2041TIP3    H230319   7.252   6.024  16.165  0.3772  0.4932 -0.3788
 2042TIP3   OH230320   3.671   4.041  17.453 -0.1572 -0.1883  0.3430
 2042TIP3    H130321   3.660   3.982  17.379  1.4820 -0.1794  0.0364
 2042TIP3    H230322   3.697   4.125  17.414 -2.1159  0.6885  0.7872
 2043TIP3   OH230323   0.962   0.659  16.620  0.2535 -0.2955 -0.8083
 2043TIP3    H130324   0.955   0.567  16.595  1.2289 -0.2125 -1.4913
 2043TIP3    H230325   0.927   0.663  16.709 -0.7622 -1.1266 -1.1516
 2044TIP3   OH230326   3.289   5.675  16.449 -0.0858 -0.4561 -0.3301
 2044TIP3    H130327   3.311   5.768  16.442  0.7269 -0.2843  2.8775
 2044TIP3    H230328   3.364   5.630  16.410  0.4836  0.2196 -0.0262
 2045TIP3   OH230329   0.678   1.012  17.934 -0.4388  0.6574 -0.6766
 2045TIP3    H130330   0.706   1.097  17.968  2.1058  0.4959 -2.1083
 2045TIP3    H230331   0.730   0.948  17.984 -0.7171  0.0928 -1.0999
 2046TIP3   OH230332   5.132   8.533  16.777  0.0154 -0.2702 -0.4719
 2046TIP3    H130333   5.218   8.491  16.776  0.8136  1.2780 -0.6346
 2046TIP3    H230334   5.129   8.580  16.860  0.4536  1.7736 -1.5280
 2047TIP3   OH230335   0.534   6.926  17.191  0.3340  0.0116 -0.1899
 2047TIP3    H130336   0.502   6.891  17.108  1.1751  0.1401 -0.5719
 2047TIP3    H230337   0.543   7.020  17.176  1.6807 -0.1335 -0.3512
 2048TIP3   OH230338   0.609   2.305  17.773 -0.2498 -0.1915  0.1596
 2048TIP3    H130339   0.550   2.380  17.766 -1.0466 -0.8939 -0.9123
 2048TIP3    H230340   0.553   2.229  17.765  0.5070 -0.9402  1.5710
 2049TIP3   OH230341   6.422   1.566  17.335  0.0550 -0.7822  0.0397
 2049TIP3    H130342   6.493   1.610  17.288  1.2223 -0.8872  1.6409
 2049TIP3    H230343   6.355   1.552  17.268  1.0274  0.4031 -1.2535
 2050TIP3   OH230344   1.816   2.467  17.298  0.2402 -0.3358 -0.4229
 2050TIP3    H130345   1.801   2.490  17.389  0.7253  0.3945 -0.5162
 2050TIP3    H230346   1.836   2.550  17.255  0.4828 -0.7310 -1.0977
 2051TIP3   OH230347   6.802   5.427  17.523 -0.1123 -0.3770  0.2098
 2051TIP3    H130348   6.838   5.425  17.435 -1.4464 -0.4100 -0.3512
 2051TIP3    H230349   6.862   5.483  17.572  2.7903 -3.3198  0.3008
 2052TIP3   OH230350   0.630   4.295  16.840  0.4634 -0.1840  0.5551
 2052TIP3    H130351   0.596   4.231  16.778 -0.5412  1.3130 -0.5380
 2052TIP3    H230352   0.553   4.349  16.863  1.0818  0.0813  2.1301
 2053TIP3   OH230353   4.097   1.166  16.566  0.3321  0.4389 -0.1093
 2053TIP3    H130354   4.104   1.073  16.548  1.1351  0.1330  1.6435
 2053TIP3    H230355   4.182   1.202  16.539  0.2427  0.5706 -0.2218
 2054TIP3   OH230356   4.873   1.653  16.973  0.2083 -0.3831 -0.7319
 2054TIP3    H130357   4.816   1.605  16.913  0.2081 -1.0897 -0.1761
 2054TIP3    H230358   4.958   1.652  16.930 -0.2245  0.8902 -1.6866
 2055TIP3   OH230359   3.076   4.325  17.126 -0.1953  0.0617  0.6137
 2055TIP3    H130360   3.107   4.317  17.035 -1.8177  0.5873 -0.0313
 2055TIP3    H230361   3.152   4.305  17.179  0.7576 -0.4480 -0.8734
 2056TIP3   OH230362   4.485   6.064  17.204 -0.6700 -0.1410 -0.2701
 2056TIP3    H130363   4.421   6.095  17.140 -0.6714 -0.8730 -0.6294
 2056TIP3    H230364   4.475   6.123  17.279 -0.0967  1.2700 -1.2420
 2057TIP3   OH230365   4.044   5.819  16.169  0.0777 -0.2445  0.0953
 2057TIP3    H130366   3.966   5.817  16.114  0.1317 -1.0456  0.0389
 2057TIP3    H230367   4.117   5.823  16.108  0.0715  1.6732  0.1585
 2058TIP3   OH230368   5.028   2.504  17.094  0.1515 -0.1148 -0.7256
 2058TIP3    H130369   5.057   2.507  17.185  0.1905 -1.8337 -0.6442
 2058TIP3    H230370   5.051   2.416  17.065  0.1527  0.4050 -2.4130
 2059TIP3   OH230371   0.948   9.024  17.141 -0.1221 -0.5188  0.6188
 2059TIP3    H130372   0.934   8.988  17.053 -0.1338  0.6401  0.1265
 2059TIP3    H230373   0.958   8.947  17.197 -2.4757 -1.3567  0.0210
 2060TIP3   OH230374   3.939   0.181  16.080  0.0031  0.7599 -0.7187
 2060TIP3    H130375   3.857   0.153  16.040 -0.7511  0.5847  0.8465
 2060TIP3    H230376   3.923   0.273  16.104 -0.3100  0.3407  0.8548
 2061TIP3   OH230377   1.120   3.796  16.841  0.3361  0.4842  0.3155
 2061TIP3    H130378   1.108   3.830  16.752 -0.1239  0.5629  0.4075
 2061TIP3    H230379   1.050   3.732  16.852  0.7371  0.0582  0.4178
 2062TIP3   OH230380   5.559   7.181  17.261  0.1435 -0.4107  0.2591
 2062TIP3    H130381   5.495   7.204  17.328  0.1351 -2.1269  0.8960
 2062TIP3    H230382   5.516   7.116  17.207  1.3209 -1.6527  0.7429
 2063TIP3   OH230383   5.025   6.894  15.963 -0.4431  0.5893  0.1633
 2063TIP3    H130384   5.031   6.918  15.871  0.2059  0.1150  0.0770
 2063TIP3    H230385   4.931   6.898  15.983 -0.5400  1.1501 -0.3868
 2064TIP3   OH230386   8.850   6.381  16.235  0.0435  0.3055  0.1484
 2064TIP3    H130387   8.850   6.475  16.217  0.1154  0.2450 -0.1880
 2064TIP3    H230388   8.940   6.354  16.219 -0.3809 -0.1674 -1.7389
 2065TIP3   OH230389   3.863   5.194  16.669 -0.3054 -0.1625 -0.2749
 2065TIP3    H130390   3.929   5.131  16.638 -0.0299  0.2811 -0.5875
 2065TIP3    H230391   3.785   5.140  16.685  0.5969 -0.9870  1.6848
 2066TIP3   OH230392   3.680   7.632  16.957 -0.0893  0.3452  0.5738
 2066TIP3    H130393   3.727   7.684  16.892  0.3859 -0.8484 -0.0602
 2066TIP3    H230394   3.687   7.542  16.925 -0.1750 -0.2176  2.0899
 2067TIP3   OH230395   1.228   7.696  16.620 -0.3339  0.2169  0.4324
 2067TIP3    H130396   1.181   7.690  16.536  0.6495 -0.2875 -0.1071
 2067TIP3    H230397   1.282   7.617  16.622 -0.0030  0.4629  1.3377
 2068TIP3   OH230398   1.614   5.402  17.433 -0.3177 -0.2106  0.0965
 2068TIP3    H130399   1.638   5.328  17.377  2.4408  0.2853  0.5172
 2068TIP3    H230400   1.577   5.361  17.511 -0.1309 -1.0773 -0.2541
 2069TIP3   OH230401   6.699   3.169  17.162 -0.4470 -0.2136  0.0771
 2069TIP3    H130402   6.747   3.121  17.229 -0.4791 -1.5075 -0.7667
 2069TIP3    H230403   6.766   3.198  17.100 -0.5229 -0.0028  0.0936
 2070TIP3   OH230404   3.957   5.906  17.682  0.0519 -0.1508  0.1706
 2070TIP3    H130405   3.975   5.874  17.771 -1.6271  1.1314  1.0460
 2070TIP3    H230406   4.006   5.988  17.676  1.5195 -1.0633 -0.7509
 2071TIP3   OH230407   5.466   6.397  17.544 -0.1507 -0.2792  0.0357
 2071TIP3    H130408   5.510   6.475  17.508 -0.2552  0.8677  2.2594
 2071TIP3    H230409   5.536   6.346  17.584  0.2499 -2.4589 -3.0652
 2072TIP3   OH230410   3.578   9.208  17.273  0.2605 -0.4237  0.5502
 2072TIP3    H130411   3.565   9.295  17.312  1.4205 -0.3300  0.7611
 2072TIP3    H230412   3.573   9.224  17.178  0.3647 -0.1406  0.5909
 2073TIP3   OH230413   9.066   1.916  17.795 -0.1011 -0.0701  0.1125
 2073TIP3    H130414   9.157   1.928  17.769 -0.2868 -2.8253 -2.3983
 2073TIP3    H230415   9.065   1.835  17.846 -1.1154  0.0076  0.2525
 2074TIP3   OH230416   6.081   2.868  16.810  0.5991 -0.2431 -0.1664
 2074TIP3    H130417   6.044   2.908  16.888 -0.6605 -0.6665 -0.5236
 2074TIP3    H230418   6.144   2.803  16.843  0.5564  0.0358  0.4687
 2075TIP3   OH230419   4.470   5.660  17.115  0.2344 -0.4095  0.1610
 2075TIP3    H130420   4.546   5.715  17.093  1.0074 -1.8038 -0.7527
 2075TIP3    H230421   4.395   5.716  17.098  1.0131  0.5490 -0.2309
 2076TIP3   OH230422   3.101   2.821  16.482  0.5675 -0.4214 -0.5697
 2076TIP3    H130423   3.169   2.863  16.535 -0.7770 -0.4065  1.2102
 2076TIP3    H230424   3.144   2.743  16.447  1.4418 -0.5707  0.7562
 2077TIP3   OH230425   0.377   3.992  17.172  0.1924 -0.0253 -0.0218
 2077TIP3    H130426   0.374   4.048  17.094  2.3495  1.1084  0.6382
 2077TIP3    H230427   0.407   4.050  17.242 -0.7251 -1.2676  1.4385
 2078TIP3   OH230428   6.205   5.187  17.797  0.0429  0.4634 -0.2801
 2078TIP3    H130429   6.203   5.115  17.859 -1.0482 -2.2291 -3.1312
 2078TIP3    H230430   6.297   5.209  17.788  0.2694  0.5223  1.7460
 2079TIP3   OH230431   7.921   7.112  17.413 -0.0480  0.0787 -0.1298
 2079TIP3    H130432   7.952   7.181  17.355  1.1632 -1.3658 -1.3012
 2079TIP3    H230433   7.920   7.152  17.500  1.4019  1.3240 -0.6510
 2080TIP3   OH230434   2.566   2.882  17.549  0.5939  0.1267 -0.1275
 2080TIP3    H130435   2.577   2.971  17.515  2.1860 -0.4690 -1.2624
 2080TIP3    H230436   2.472   2.865  17.541 -0.2525  2.6069  2.5682
 2081TIP3   OH230437   7.350   1.284  17.575 -0.3900 -0.2425 -0.0293
 2081TIP3    H130438   7.285   1.344  17.612  0.7021  0.6160  0.5399
 2081TIP3    H230439   7.358   1.214  17.641  1.7966  1.4505  1.6332
 2082TIP3   OH230440   0.972   0.585  16.240 -0.4062 -0.1613  0.5581
 2082TIP3    H130441   0.956   0.512  16.180  1.2675  0.2201 -0.4093
 2082TIP3    H230442   0.977   0.544  16.326  2.6686 -1.6038 -0.1809
 2083TIP3   OH230443   6.143   0.111  17.691 -0.6727  0.1615 -0.3496
 2083TIP3    H130444   6.191   0.042  17.736  0.2195  0.4002 -0.9255
 2083TIP3    H230445   6.053   0.077  17.685 -0.1141 -1.2282 -1.1814
 2084TIP3   OH230446   1.832   7.848  16.357  0.1586 -0.1826 -0.8453
 2084TIP3    H130447   1.800   7.903  16.285  0.9880 -0.0972 -1.1633
 2084TIP3    H230448   1.775   7.870  16.431  0.2868  0.8952 -1.0497
 2085TIP3   OH230449   1.970   0.048  17.376  0.3355 -0.0558 -0.0794
 2085TIP3    H130450   1.954   0.136  17.410 -1.2751  0.2186 -1.3980
 2085TIP3    H230451   1.909   0.039  17.303  0.3990 -2.3166  0.0742
 2086TIP3   OH230452   8.461   1.066  16.892  0.1070 -0.0914  0.2733
 2086TIP3    H130453   8.554   1.049  16.875  0.2090 -0.7787  1.3832
 2086TIP3    H230454   8.418   1.051  16.808  1.0171  0.3742 -0.2904
 2087TIP3   OH230455   8.900   3.775  16.434  0.1889  0.4203 -0.1107
 2087TIP3    H130456   8.971   3.758  16.372  0.3359 -0.1360  0.2074
 2087TIP3    H230457   8.843   3.699  16.427 -2.1551  2.2193 -2.7181
 2088TIP3   OH230458   8.703   0.630  17.715  0.0090 -0.2299 -0.2179
 2088TIP3    H130459   8.678   0.720  17.734  0.4847 -0.4188  1.4787
 2088TIP3    H230460   8.713   0.627  17.620  1.5721  1.9058 -0.1744
 2089TIP3   OH230461   3.253   8.427  16.875 -0.3688  0.6725 -0.3033
 2089TIP3    H130462   3.259   8.342  16.918  0.5888  0.3082 -1.1303
 2089TIP3    H230463   3.339   8.467  16.888 -1.2662  2.1969  1.4093
 2090TIP3   OH230464   1.611   7.946  16.535  0.2841 -0.3163  0.3486
 2090TIP3    H130465   1.532   8.001  16.540  0.7091  0.3268  0.1308
 2090TIP3    H230466   1.600   7.882  16.605  0.1700  0.5780  1.1707
 2091TIP3   OH230467   4.414   7.161  16.961  0.5186 -0.1400  0.0238
 2091TIP3    H130468   4.373   7.175  16.875 -0.1825  1.8632  0.6101
 2091TIP3    H230469   4.438   7.069  16.962  0.4197 -0.2454 -2.2715
 2092TIP3   OH230470   3.068   7.881  16.505  0.1857  0.2925  0.3660
 2092TIP3    H130471   3.036   7.819  16.440 -2.2448  1.1223  0.6585
 2092TIP3    H230472   3.140   7.835  16.550  1.0882 -0.7566 -1.9999
 2093TIP3   OH230473   0.951   6.933  17.306  0.0029  0.1123 -0.3535
 2093TIP3    H130474   1.032   6.889  17.282  0.7377  0.5015  1.2557
 2093TIP3    H230475   0.960   7.021  17.269  0.8693  0.5305  0.7914
 2094TIP3   OH230476   0.689   0.586  17.199  0.0533 -0.1483 -0.0510
 2094TIP3    H130477   0.687   0.680  17.215  0.5082  0.2580 -2.0727
 2094TIP3    H230478   0.755   0.575  17.130 -1.6968 -1.6260 -1.5916
 2095TIP3   OH230479   7.682   8.331  17.490  0.2560  0.5434 -0.0895
 2095TIP3    H130480   7.705   8.373  17.407 -0.8478 -0.1007 -0.7471
 2095TIP3    H230481   7.590   8.353  17.504  0.4826  0.8350  1.1015
 2096TIP3   OH230482   6.642   6.224  16.959  0.2227  0.4505 -0.6307
 2096TIP3    H130483   6.704   6.182  17.019 -2.2253 -1.6227  0.6977
 2096TIP3    H230484   6.586   6.276  17.016  0.0258  1.3593 -1.6329
 2097TIP3   OH230485   6.333   6.710  16.963 -0.0955  0.0047  0.3571
 2097TIP3    H130486   6.425   6.682  16.959 -0.5758 -1.6660  0.2519
 2097TIP3    H230487   6.313   6.739  16.874 -0.2571 -1.7437 -0.2187
 2098TIP3   OH230488   4.223   6.518  16.433  0.3032  0.0099  1.2002
 2098TIP3    H130489   4.175   6.438  16.411  0.3250  0.7271 -1.8735
 2098TIP3    H230490   4.155   6.582  16.454 -0.1198  0.5843 -1.5978
 2099TIP3   OH230491   5.708   3.149  17.395 -0.6295 -0.3765 -0.0728
 2099TIP3    H130492   5.676   3.059  17.392 -1.0188 -0.2015 -1.9841
 2099TIP3    H230493   5.630   3.203  17.389 -0.3169  0.0930 -0.0241
 2100TIP3   OH230494   5.697   4.123  16.727  0.1737  0.1671 -0.9109
 2100TIP3    H130495   5.678   4.184  16.656  1.2521 -0.1843 -1.5268
 2100TIP3    H230496   5.761   4.062  16.690 -0.1477 -0.7521 -0.0056
 2101TIP3   OH230497   7.690   1.802  16.476 -0.5974 -0.3710  0.5385
 2101TIP3    H130498   7.663   1.880  16.523  1.3774 -0.3122  1.6692
 2101TIP3    H230499   7.632   1.733  16.508 -2.3255  0.5475 -0.4304
 2102TIP3   OH230500   1.104   6.769  17.588 -0.2833 -0.4335 -0.2420
 2102TIP3    H130501   1.186   6.719  17.581  0.8913  1.3852 -0.3244
 2102TIP3    H230502   1.128   6.858  17.560 -2.0766  0.3718  0.6126
 2103TIP3   OH230503   4.545   5.501  16.356 -0.4341 -0.3282  0.4165
 2103TIP3    H130504   4.573   5.506  16.265  0.4131  2.3002  0.7472
 2103TIP3    H230505   4.622   5.466  16.402  0.3907  1.4651  0.5125
 2104TIP3   OH230506   7.764   2.488  17.987 -0.1315  0.1982  0.1921
 2104TIP3    H130507   7.686   2.543  17.983 -0.0093  0.2995 -1.2506
 2104TIP3    H230508   7.730   2.400  18.003 -0.2900  0.6875  3.2730
 2105TIP3   OH230509   2.463   0.498  17.590  0.0761 -0.7810  0.3995
 2105TIP3    H130510   2.502   0.537  17.512  2.0311 -2.0019  0.6787
 2105TIP3    H230511   2.411   0.568  17.629 -0.2835  0.0901 -1.5354
 2106TIP3   OH230512   3.025   2.328  17.422 -0.0750 -0.3187 -0.2938
 2106TIP3    H130513   2.962   2.392  17.455 -0.5793  0.2499 -2.2238
 2106TIP3    H230514   3.064   2.370  17.346  0.9271 -1.6117 -0.5326
 2107TIP3   OH230515   7.994   7.435  16.493  0.7650  0.4630  0.2900
 2107TIP3    H130516   8.050   7.513  16.498  0.8480  0.3775  0.6752
 2107TIP3    H230517   8.031   7.385  16.420  0.4337  0.9997 -0.2567
 2108TIP3   OH230518   4.865   7.224  15.884 -0.3570  0.1612  0.0627
 2108TIP3    H130519   4.844   7.177  15.803 -0.7288  1.2245 -0.4729
 2108TIP3    H230520   4.946   7.271  15.863 -0.0907 -0.0829  0.5350
 2109TIP3   OH230521   5.554   6.991  16.004  0.7375 -0.2945 -0.4035
 2109TIP3    H130522   5.466   6.963  16.027  0.4597  1.0818  0.3784
 2109TIP3    H230523   5.545   7.033  15.919 -0.0293  2.4713  0.8976
 2110TIP3   OH230524   1.538   4.961  16.738 -0.0332 -0.5694 -0.0988
 2110TIP3    H130525   1.484   4.995  16.810  2.0460  1.3940  0.6324
 2110TIP3    H230526   1.522   5.021  16.665 -1.1243 -1.7884 -0.9082
 2111TIP3   OH230527   6.882   0.369  16.265  0.3019  0.5275 -1.3212
 2111TIP3    H130528   6.925   0.412  16.191  0.5425  0.0493 -1.4586
 2111TIP3    H230529   6.936   0.293  16.284  0.0995  0.5076 -0.8122
 2112TIP3   OH230530   7.146   0.138  17.158  0.1049 -0.8385 -0.3112
 2112TIP3    H130531   7.189   0.143  17.073  0.0611 -2.8293 -0.4874
 2112TIP3    H230532   7.207   0.090  17.214  0.2358  0.6411  0.8778
 2113TIP3   OH230533   3.864   2.476  17.388  0.4883  0.0892  0.6310
 2113TIP3    H130534   3.911   2.483  17.471 -0.7363  1.2539  1.2614
 2113TIP3    H230535   3.771   2.470  17.413  0.1632 -0.5681 -0.6259
 2114TIP3   OH230536   4.602   0.080  17.353  0.2943 -0.1693 -0.0889
 2114TIP3    H130537   4.602   0.131  17.272  0.2488  0.7728  0.4970
 2114TIP3    H230538   4.559  -0.003  17.329 -2.5557  1.2488 -0.3404
 2115TIP3   OH230539   8.115   0.147  17.659  0.6323 -0.6752  0.1493
 2115TIP3    H130540   8.109   0.056  17.630  0.8893  0.0884 -2.5858
 2115TIP3    H230541   8.157   0.193  17.587 -1.5441  2.0607  0.4358
 2116TIP3   OH230542   8.472   2.907  17.846  0.0152  0.6015  0.0095
 2116TIP3    H130543   8.476   3.000  17.822 -1.3257  0.6636 -0.0666
 2116TIP3    H230544   8.419   2.867  17.776  0.1068 -0.1125  0.3453
 2117TIP3   OH230545   6.211   2.022  17.000  0.2007  0.0815  0.1434
 2117TIP3    H130546   6.216   2.072  16.918  0.8931  0.2758  0.3007
 2117TIP3    H230547   6.131   1.970  16.991  1.2001 -1.2964 -1.4511
 2118TIP3   OH230548   8.620   5.829  16.800  0.2303 -0.2027  0.0237
 2118TIP3    H130549   8.564   5.906  16.790 -0.5158 -0.8377 -0.8080
 2118TIP3    H230550   8.567   5.766  16.848  1.2045  0.1484  1.6202
 2119TIP3   OH230551   2.790   6.269  16.178  0.3561  0.0416  0.3812
 2119TIP3    H130552   2.835   6.354  16.179  1.0306 -0.3124  1.0474
 2119TIP3    H230553   2.816   6.230  16.094  1.6634 -0.3305  0.9241
 2120TIP3   OH230554   8.128   3.581  16.993  0.7001 -0.2271  0.1653
 2120TIP3    H130555   8.183   3.643  16.945 -0.2687 -0.3691 -1.1579
 2120TIP3    H230556   8.098   3.519  16.927  1.8397 -2.3107  1.4932
 2121TIP3   OH230557   0.067   8.459  16.473 -0.2758 -0.2773 -0.1413
 2121TIP3    H130558   0.015   8.492  16.400  0.2207 -0.4289 -0.5697
 2121TIP3    H230559   0.157   8.482  16.451 -0.3024  1.5776  1.4516
 2122TIP3   OH230560   5.482   0.051  17.501  0.1221 -0.0809 -0.4814
 2122TIP3    H130561   5.477   0.067  17.596 -0.3793 -1.7176 -0.1969
 2122TIP3    H230562   5.573   0.023  17.486  1.0799  2.9566 -1.0235
 2123TIP3   OH230563   4.191   5.815  15.907 -0.1905 -0.5407 -0.4198
 2123TIP3    H130564   4.138   5.806  15.828  0.9253 -1.1357 -1.1378
 2123TIP3    H230565   4.230   5.902  15.901  0.2517 -0.7575 -0.7722
 2124TIP3   OH230566   6.315   2.369  17.120  0.4812 -0.0590  0.1761
 2124TIP3    H130567   6.248   2.313  17.160 -0.0590  0.9497  0.7438
 2124TIP3    H230568   6.302   2.357  17.026 -0.5134  0.1073  0.2738
 2125TIP3   OH230569   2.394   7.981  17.976  0.1620  0.2347  0.5311
 2125TIP3    H130570   2.413   7.888  17.990  1.5705  0.5589  0.9361
 2125TIP3    H230571   2.299   7.987  17.981  0.1492 -0.8856  2.4235
 2126TIP3   OH230572   0.226   1.710  17.243 -0.3598  0.9589  0.1102
 2126TIP3    H130573   0.206   1.804  17.249 -1.0514  0.9826 -1.8492
 2126TIP3    H230574   0.264   1.699  17.156 -0.0260 -0.5513  0.4162
 2127TIP3   OH230575   8.652   4.420  17.444 -0.5311 -0.1716 -0.2789
 2127TIP3    H130576   8.587   4.472  17.490 -0.2049  0.0509 -0.0674
 2127TIP3    H230577   8.657   4.338  17.492  0.8897  0.6177  1.0055
 2128TIP3   OH230578   3.268   8.114  17.291 -0.4781  0.4743 -0.0740
 2128TIP3    H130579   3.245   8.207  17.295 -0.1527  0.5601 -0.1069
 2128TIP3    H230580   3.355   8.109  17.331 -0.3602  0.2329 -0.3510
 2129TIP3   OH230581   1.546   2.599  17.539 -0.9396 -0.3962  0.1579
 2129TIP3    H130582   1.637   2.572  17.549 -0.3885  1.6354  1.1707
 2129TIP3    H230583   1.520   2.626  17.627 -1.9631  0.6593 -0.4458
 2130TIP3   OH230584   5.054   4.976  17.152 -0.5338 -0.1641  0.5061
 2130TIP3    H130585   4.960   4.977  17.134 -0.2677 -1.8057 -1.3804
 2130TIP3    H230586   5.077   4.883  17.150  1.4806  0.3098 -1.2518
 2131TIP3   OH230587   8.487   7.630  17.430  0.2522 -0.7150  0.6209
 2131TIP3    H130588   8.574   7.626  17.469 -0.3277  0.4418  2.1131
 2131TIP3    H230589   8.477   7.547  17.384  3.1211  0.1153 -1.8227
 2132TIP3   OH230590   6.365   1.310  16.901  0.1645 -0.2446 -0.3181
 2132TIP3    H130591   6.366   1.386  16.843  0.6489 -0.2865 -0.3631
 2132TIP3    H230592   6.354   1.235  16.843  1.7075 -0.3785 -0.4626
 2133TIP3   OH230593   6.445   3.133  17.105  0.1139  0.0025 -0.3318
 2133TIP3    H130594   6.529   3.123  17.150  0.7697  0.0765 -1.5032
 2133TIP3    H230595   6.459   3.206  17.046 -0.6719 -0.2094 -0.7826
 2134TIP3   OH230596   2.286   2.868  17.451 -0.0029  0.2418 -0.1226
 2134TIP3    H130597   2.203   2.912  17.470  0.1550  0.1785  0.7882
 2134TIP3    H230598   2.292   2.867  17.356 -0.8535  0.6096 -0.1886
 2135TIP3   OH230599   0.086   3.175  16.489 -0.0654 -0.2971  0.0955
 2135TIP3    H130600   0.061   3.100  16.543  0.7173  0.2468  1.2455
 2135TIP3    H230601   0.167   3.146  16.445 -0.0546 -0.3135  0.1264
 2136TIP3   OH230602   3.624   2.505  15.969 -0.3472  0.4380  0.4903
 2136TIP3    H130603   3.686   2.489  16.040 -0.2886 -0.3833  0.2714
 2136TIP3    H230604   3.586   2.419  15.951  1.0786  0.2089 -1.7871
 2137TIP3   OH230605   4.351   3.509  17.544  1.1531 -0.3939  0.5967
 2137TIP3    H130606   4.340   3.525  17.450 -1.0365  0.0504  0.8670
 2137TIP3    H230607   4.362   3.414  17.551  0.7106 -0.5028 -0.0907
 2138TIP3   OH230608   4.533   5.781  17.579  1.0685 -0.0350  0.1244
 2138TIP3    H130609   4.558   5.690  17.592  1.1128 -0.0285  0.0850
 2138TIP3    H230610   4.584   5.810  17.503  0.5009 -0.1897 -0.3204
 2139TIP3   OH230611   8.272   6.183  16.771 -0.0205 -0.0158  0.1576
 2139TIP3    H130612   8.287   6.091  16.751 -1.1167  0.3796 -3.2042
 2139TIP3    H230613   8.236   6.183  16.860 -0.5054 -2.8664  0.0495
 2140TIP3   OH230614   0.520   1.950  15.698 -0.4096  0.3419 -0.1944
 2140TIP3    H130615   0.589   1.885  15.714 -3.5421 -3.2659  0.3031
 2140TIP3    H230616   0.513   1.998  15.780 -0.8793 -1.8969  1.1789
 2141TIP3   OH230617   0.517   3.368  16.243 -0.2519  0.2384 -0.3485
 2141TIP3    H130618   0.545   3.363  16.334 -1.1414 -1.5769 -0.1238
 2141TIP3    H230619   0.522   3.277  16.212  1.3235  0.9742 -2.5364
 2142TIP3   OH230620   0.583   6.524  16.328 -0.3097 -0.0837 -0.4560
 2142TIP3    H130621   0.512   6.574  16.368 -1.5507 -0.5971 -1.8988
 2142TIP3    H230622   0.655   6.529  16.390 -1.8424 -0.1324  1.4094
 2143TIP3   OH230623   1.544   3.809  16.738  0.0174  0.5591  0.3029
 2143TIP3    H130624   1.593   3.784  16.660  0.4075  0.7475  0.4874
 2143TIP3    H230625   1.477   3.869  16.706 -0.6327 -0.3387 -0.0811
 2144TIP3   OH230626   3.668   7.089  17.167  0.1413 -0.5458 -0.2235
 2144TIP3    H130627   3.666   7.144  17.088 -0.7202  0.9641  0.8047
 2144TIP3    H230628   3.687   7.002  17.134 -2.1761 -0.3680 -2.3847
 2145TIP3   OH230629   8.984   6.835  16.138  0.2054  0.0705 -0.8004
 2145TIP3    H130630   9.011   6.925  16.119 -0.2684  0.1009 -1.3377
 2145TIP3    H230631   9.011   6.785  16.061  1.4822 -0.4732 -0.0367
 2146TIP3   OH230632   5.676   7.536  17.643 -0.0492 -0.1993  0.0382
 2146TIP3    H130633   5.680   7.620  17.690 -0.1098 -0.4021  0.4111
 2146TIP3    H230634   5.765   7.501  17.649 -0.1840 -0.4843  0.4932
 2147TIP3   OH230635   1.511   0.671  16.568 -0.2310 -0.0983 -0.0831
 2147TIP3    H130636   1.561   0.601  16.526 -0.9948 -0.9249  0.3737
 2147TIP3    H230637   1.421   0.640  16.569 -0.0332 -1.1793  4.0997
 2148TIP3   OH230638   8.167   0.902  16.918 -0.1081 -0.1344  0.4928
 2148TIP3    H130639   8.190   0.981  16.967 -1.5970 -0.0666  1.1501
 2148TIP3    H230640   8.131   0.843  16.984  0.9391 -1.3650 -0.0020
 2149TIP3   OH230641   2.994   1.313  16.204  0.0407  0.4920  0.3257
 2149TIP3    H130642   2.989   1.224  16.239  0.5390  0.9165  1.4976
 2149TIP3    H230643   3.031   1.302  16.116  2.3595 -0.2764  1.3250
 2150TIP3   OH230644   2.282   1.393  17.726  0.1399  0.2963 -0.3201
 2150TIP3    H130645   2.319   1.478  17.751 -1.4095  0.5200  1.3949
 2150TIP3    H230646   2.352   1.330  17.747  0.6780  0.9749 -0.0319
 2151TIP3   OH230647   0.921   3.810  17.076  0.0869  0.1408 -0.2221
 2151TIP3    H130648   1.000   3.794  17.026 -0.2853  1.0868 -1.1669
 2151TIP3    H230649   0.950   3.860  17.152  0.8594 -2.5009  1.3385
 2152TIP3   OH230650   4.725   5.253  17.156 -0.0124  0.0649  0.1192
 2152TIP3    H130651   4.698   5.260  17.248  0.6285 -0.3631  0.3421
 2152TIP3    H230652   4.746   5.160  17.144 -0.5185  0.0348 -0.5826
 2153TIP3   OH230653   8.111   5.446  17.512  0.6467  0.1588  0.2429
 2153TIP3    H130654   8.077   5.497  17.585 -1.1485 -0.5885 -0.0212
 2153TIP3    H230655   8.168   5.507  17.465  2.4930  0.4438  2.6290
 2154TIP3   OH230656   7.103   1.306  16.364 -0.4931 -0.0899  0.3554
 2154TIP3    H130657   7.163   1.380  16.351 -0.3235 -0.1832  0.5997
 2154TIP3    H230658   7.094   1.299  16.459 -0.2039 -0.6190  0.3498
 2155TIP3   OH230659   2.966   0.666  17.324 -0.1007 -0.5203  0.3862
 2155TIP3    H130660   2.948   0.618  17.405 -3.0539 -1.6571 -0.8111
 2155TIP3    H230661   3.001   0.600  17.264 -0.9879 -0.4628 -0.2201
 2156TIP3   OH230662   6.314   0.730  17.642  0.1012 -0.2228  0.0936
 2156TIP3    H130663   6.290   0.801  17.583 -0.0008 -0.9405 -0.7608
 2156TIP3    H230664   6.407   0.744  17.660 -0.2696  0.9781  1.1661
 2157TIP3   OH230665   0.880   7.501  16.897  0.0718  0.3930  0.6781
 2157TIP3    H130666   0.868   7.454  16.980 -1.7596 -0.6168 -0.1226
 2157TIP3    H230667   0.882   7.433  16.830 -2.6453  1.3464 -0.5174
 2158TIP3   OH230668   3.190   6.536  16.773  0.1013 -0.3799  0.2446
 2158TIP3    H130669   3.214   6.522  16.681  0.8179 -0.5047  0.4445
 2158TIP3    H230670   3.119   6.600  16.769  1.6370  1.4028 -0.2869
 2159TIP3   OH230671   1.356   3.710  16.931 -0.1251  0.8852  0.3691
 2159TIP3    H130672   1.282   3.729  16.873  0.2458 -1.0517 -0.8406
 2159TIP3    H230673   1.434   3.730  16.880  0.2117  1.2605  1.0126
 2160TIP3   OH230674   3.476   1.111  16.220 -0.3254  0.1270 -0.2400
 2160TIP3    H130675   3.416   1.073  16.284 -0.8300  1.1957 -0.0522
 2160TIP3    H230676   3.422   1.127  16.143  0.3917 -1.6535 -1.1738
 2161TIP3   OH230677   7.425   8.622  16.430  0.0527  0.3904 -0.2715
 2161TIP3    H130678   7.488   8.580  16.370 -0.2329 -1.1335  0.4361
 2161TIP3    H230679   7.480   8.668  16.493  0.4412 -0.1585 -0.1991
 2162TIP3   OH230680   1.393   6.221  16.852 -0.3663 -0.1197  0.0181
 2162TIP3    H130681   1.302   6.235  16.824 -1.0351 -1.1697  1.5866
 2162TIP3    H230682   1.395   6.132  16.887  1.6914 -0.7536 -1.5174
 2163TIP3   OH230683   7.931   4.372  17.644  0.1090 -0.1253 -0.3419
 2163TIP3    H130684   7.886   4.455  17.629  2.1832  0.9400 -1.0086
 2163TIP3    H230685   7.865   4.306  17.626 -1.5121  1.3674 -0.1246
 2164TIP3   OH230686   3.442   8.982  17.225 -0.1864 -0.2079  0.0013
 2164TIP3    H130687   3.516   8.922  17.224  0.7737  0.9364  0.7092
 2164TIP3    H230688   3.478   9.065  17.255 -1.5363  0.6696 -0.6990
 2165TIP3   OH230689   6.930   0.271  17.741 -0.3978  0.1720 -0.1367
 2165TIP3    H130690   6.936   0.366  17.745 -1.5850  0.2463  0.4262
 2165TIP3    H230691   6.983   0.240  17.815  2.0970  0.2392 -1.7797
 2166TIP3   OH230692   8.476   0.346  17.278  0.5856 -0.2031  0.1609
 2166TIP3    H130693   8.447   0.386  17.196  1.9147  0.2327 -0.1109
 2166TIP3    H230694   8.399   0.350  17.334 -0.8745 -1.9976 -1.5634
 2167TIP3   OH230695   1.354   4.761  17.006  0.5635  0.7644 -0.3147
 2167TIP3    H130696   1.382   4.802  17.088 -0.2292  2.3209 -0.7849
 2167TIP3    H230697   1.276   4.810  16.980  0.0428 -0.5497 -1.3396
 2168TIP3   OH230698   0.016   0.869  16.350  0.3046  0.0614 -0.4446
 2168TIP3    H130699   0.099   0.838  16.314 -0.5942 -0.2933 -2.3337
 2168TIP3    H230700  -0.041   0.792  16.351 -0.0501  0.3171  0.7393
 2169TIP3   OH230701   0.133   7.051  16.549 -0.5615  0.1294  0.1750
 2169TIP3    H130702   0.204   6.990  16.530 -0.4871 -0.3848  1.9295
 2169TIP3    H230703   0.054   6.997  16.550 -0.4962  0.0120  1.7188
 2170TIP3   OH230704   5.291   3.961  17.627 -0.5150  0.0250  0.0762
 2170TIP3    H130705   5.229   3.960  17.700 -1.5247  0.0100 -0.7606
 2170TIP3    H230706   5.274   3.880  17.580 -0.0675  0.1721 -0.3497
 2171TIP3   OH230707   6.567   8.866  16.053 -0.0368  0.3277 -0.1099
 2171TIP3    H130708   6.551   8.957  16.076 -0.1984  0.0368  1.0023
 2171TIP3    H230709   6.657   8.865  16.019  0.8578  0.5579  2.0742
 2172TIP3   OH230710   8.878   1.612  16.735 -0.0632  0.2516  0.1933
 2172TIP3    H130711   8.955   1.582  16.688 -0.5463  0.0686 -0.4939
 2172TIP3    H230712   8.912   1.643  16.819  0.6476 -0.6202  0.2433
 2173TIP3   OH230713   4.485   7.021  16.644  0.1800  0.7185 -0.2458
 2173TIP3    H130714   4.511   6.938  16.684  1.8079  0.7808 -1.1054
 2173TIP3    H230715   4.401   7.042  16.686  0.6796 -0.3655  1.4049
 2174TIP3   OH230716   3.495   5.188  16.667  0.0188 -0.0142 -0.6024
 2174TIP3    H130717   3.544   5.129  16.725 -0.6466 -0.9895 -0.9986
 2174TIP3    H230718   3.555   5.206  16.595 -0.2144 -1.3279 -1.1649
 2175TIP3   OH230719   8.263   7.197  16.541 -0.6788  0.4221  0.1841
 2175TIP3    H130720   8.277   7.166  16.631 -2.9403  1.5982  1.0195
 2175TIP3    H230721   8.343   7.245  16.520  0.5090 -1.1207  0.9802
 2176TIP3   OH230722   8.711   6.506  16.664  0.1262 -0.1474  0.1978
 2176TIP3    H130723   8.698   6.448  16.590 -2.4066 -0.3824  0.7275
 2176TIP3    H230724   8.787   6.470  16.710  2.6431  0.8142 -2.9216
 2177TIP3   OH230725   6.449   2.779  16.159  0.6478  1.0092  0.1783
 2177TIP3    H130726   6.375   2.790  16.219 -0.1833 -0.7829 -0.4313
 2177TIP3    H230727   6.436   2.847  16.093  0.1573  1.4162  0.6832
 2178TIP3   OH230728   1.154   3.802  17.759  0.3575  0.0137  0.5905
 2178TIP3    H130729   1.074   3.775  17.804  0.4058  0.1309  0.7447
 2178TIP3    H230730   1.203   3.720  17.749  0.1427 -0.0869  0.3433
 2179TIP3   OH230731   1.483   5.833  16.168  0.0205 -0.1063  0.0740
 2179TIP3    H130732   1.400   5.820  16.214  0.7556 -0.1419  1.4601
 2179TIP3    H230733   1.545   5.857  16.238  1.3991 -1.0773 -0.7760
 2180TIP3   OH230734   8.034   3.125  16.828 -0.1526 -0.0988 -0.4411
 2180TIP3    H130735   7.960   3.151  16.774 -0.1215  0.3845 -0.2600
 2180TIP3    H230736   7.996   3.074  16.900 -0.2565 -0.2300 -0.5895
 2181TIP3   OH230737   0.046   3.500  16.957 -0.2615  0.5339  0.3158
 2181TIP3    H130738   0.108   3.444  17.004 -0.5762 -1.1962 -1.2068
 2181TIP3    H230739   0.100   3.569  16.919  0.6871 -0.6627 -0.5672
 2182TIP3   OH230740   1.629   6.611  16.372  0.3079 -0.1648 -0.0419
 2182TIP3    H130741   1.600   6.622  16.282  0.1432  1.3459  0.1691
 2182TIP3    H230742   1.616   6.697  16.412  0.5734 -0.7547  1.3681
 2183TIP3   OH230743   2.596   9.027  17.480  0.2355 -0.0253  0.6303
 2183TIP3    H130744   2.515   8.998  17.522 -0.5547 -0.0253 -0.8227
 2183TIP3    H230745   2.590   8.991  17.391  1.7731  0.0987  0.4632
 2184TIP3   OH230746   8.990   1.969  17.097  0.4302  0.0097  0.2544
 2184TIP3    H130747   8.938   1.958  17.177 -0.9902 -1.2916 -0.7912
 2184TIP3    H230748   8.980   1.886  17.050  2.0954  0.3588 -0.8020
 2185TIP3   OH230749   6.697   2.189  17.526 -0.1861 -0.0205  0.2827
 2185TIP3    H130750   6.761   2.198  17.596  1.0333 -0.7090 -0.7135
 2185TIP3    H230751   6.622   2.242  17.555  0.9269  1.0305  1.3367
 2186TIP3   OH230752   7.552   7.560  17.900 -0.6042  0.4327 -0.2672
 2186TIP3    H130753   7.577   7.468  17.900  1.7937  0.9831  1.1664
 2186TIP3    H230754   7.537   7.581  17.992  0.8484  1.8766 -0.3031
 2187TIP3   OH230755   0.197   6.888  17.190  0.2436 -0.4192 -0.4916
 2187TIP3    H130756   0.137   6.816  17.171  0.8938 -0.7128 -1.4941
 2187TIP3    H230757   0.227   6.871  17.280 -1.0165 -0.3587 -0.0331
 2188TIP3   OH230758   0.138   2.513  16.069  0.0531 -0.2106 -0.2489
 2188TIP3    H130759   0.172   2.507  16.159 -1.4029  0.9341  0.4374
 2188TIP3    H230760   0.213   2.539  16.016  0.8514 -0.5109  0.7107
 2189TIP3   OH230761   8.552   9.110  17.478 -0.4407 -0.3362 -0.4362
 2189TIP3    H130762   8.604   9.189  17.463  0.0148 -0.6483 -0.5056
 2189TIP3    H230763   8.563   9.059  17.398  1.8927 -1.9587  0.8139
 2190TIP3   OH230764   6.128   6.702  17.669 -0.2616 -0.8391  0.4070
 2190TIP3    H130765   6.081   6.623  17.697 -0.8638 -0.9082 -0.7297
 2190TIP3    H230766   6.059   6.759  17.634  0.4476 -0.7754 -0.9305
 2191TIP3   OH230767   6.493   7.827  16.596  0.2635  0.1955 -0.4933
 2191TIP3    H130768   6.568   7.873  16.558  0.5615 -0.0178 -0.1729
 2191TIP3    H230769   6.421   7.844  16.536  0.9443 -0.9162 -1.6848
 2192TIP3   OH230770   4.871   8.832  17.139  0.5166  0.1031 -0.3648
 2192TIP3    H130771   4.808   8.828  17.211 -1.1751  1.2580 -1.6823
 2192TIP3    H230772   4.951   8.865  17.179 -0.8254  2.2155  0.8062
 2193TIP3   OH230773   8.670   0.917  17.721 -0.2424  0.0881 -0.2918
 2193TIP3    H130774   8.609   0.893  17.651  1.9256  0.7414 -2.5404
 2193TIP3    H230775   8.755   0.925  17.678  1.2215  0.6447  2.4282
 2194TIP3   OH230776   5.645   5.224  16.993  0.3482  0.9768  0.3045
 2194TIP3    H130777   5.553   5.208  16.974  0.4761  0.4233  0.1589
 2194TIP3    H230778   5.669   5.296  16.934  0.3963  0.1571 -0.6948
 2195TIP3   OH230779   3.385   2.194  16.162  0.0771  0.0023  0.4192
 2195TIP3    H130780   3.387   2.231  16.074 -0.5065  0.7029  0.6858
 2195TIP3    H230781   3.476   2.195  16.192  0.3304 -0.6037 -0.3172
 2196TIP3   OH230782   7.322   7.174  16.734  0.0505  0.1684 -0.1857
 2196TIP3    H130783   7.342   7.266  16.752 -1.8072  0.6825 -0.5908
 2196TIP3    H230784   7.267   7.146  16.807 -0.0938 -0.3798 -0.4962
 2197TIP3   OH230785   0.413   6.313  16.216  0.3776  0.1006 -0.2380
 2197TIP3    H130786   0.460   6.395  16.228  0.1119  0.3830 -1.0719
 2197TIP3    H230787   0.478   6.245  16.236  1.1659  0.4872 -1.4212
 2198TIP3   OH230788   8.512   4.847  16.631 -0.3143 -0.6914  0.5457
 2198TIP3    H130789   8.433   4.800  16.601 -0.8275  0.8375 -0.6064
 2198TIP3    H230790   8.578   4.826  16.566 -0.7948  0.8407 -0.4702
 2199TIP3   OH230791   9.041   5.255  16.925  0.4939 -0.3207  0.1739
 2199TIP3    H130792   8.980   5.199  16.876  0.8231  0.4156 -1.1240
 2199TIP3    H230793   9.004   5.260  17.013 -1.1531 -0.1639 -0.4920
 2200TIP3   OH230794   5.005   5.895  15.472 -0.2896 -0.1536 -0.1502
 2200TIP3    H130795   5.076   5.958  15.468  0.9836 -1.4896  0.4917
 2200TIP3    H230796   4.927   5.948  15.490  0.9393  1.1312  1.7612
 2201TIP3   OH230797   8.458   9.044  15.834  0.1817  0.1620  0.1961
 2201TIP3    H130798   8.516   8.969  15.820  0.6421  0.3024  1.2260
 2201TIP3    H230799   8.433   9.073  15.746  1.8689  0.2513 -0.2818
 2202TIP3   OH230800   3.213   8.289  17.529  0.6581  0.1957 -0.0330
 2202TIP3    H130801   3.134   8.268  17.480 -1.0039  0.8875  2.2000
 2202TIP3    H230802   3.245   8.204  17.560  0.0436  0.0209  0.1345
 2203TIP3   OH230803   6.400   5.396  16.437 -0.6517  0.0324 -0.0785
 2203TIP3    H130804   6.356   5.358  16.512 -0.4070  0.9928  0.5642
 2203TIP3    H230805   6.410   5.323  16.375 -0.2924 -0.9114  1.0690
 2204TIP3   OH230806   4.576   4.127  15.927 -0.3825 -0.2894  0.6671
 2204TIP3    H130807   4.488   4.161  15.945 -0.2320  0.4957 -0.0217
 2204TIP3    H230808   4.604   4.174  15.849  1.5254  1.0771  2.0803
 2205TIP3   OH230809   0.210   3.359  17.113  0.0530 -0.0761  0.1695
 2205TIP3    H130810   0.256   3.358  17.197  1.6969 -0.0094 -0.6948
 2205TIP3    H230811   0.262   3.303  17.056 -1.4169 -0.6774 -0.6393
 2206TIP3   OH230812   8.084   0.517  16.945 -0.1726 -0.3217  0.2990
 2206TIP3    H130813   8.102   0.426  16.970 -1.4207 -0.2712  1.4902
 2206TIP3    H230814   8.119   0.524  16.856 -0.3956 -2.0787  0.0323
 2207TIP3   OH230815   5.885   0.631  16.509 -0.6257 -0.7754  0.0462
 2207TIP3    H130816   5.814   0.689  16.537  0.0198  0.0949 -0.0782
 2207TIP3    H230817   5.949   0.635  16.580  0.6152  0.7583 -1.0593
 2208TIP3   OH230818   5.450   4.786  16.685 -0.6801 -0.2626 -0.3940
 2208TIP3    H130819   5.531   4.836  16.692 -0.1871 -1.2362  1.8205
 2208TIP3    H230820   5.477   4.704  16.642 -0.2928 -0.8799  0.9706
 2209TIP3   OH230821   2.678   7.619  17.360 -0.2953 -0.1137 -0.6902
 2209TIP3    H130822   2.622   7.610  17.284 -1.5119  2.3522 -0.1932
 2209TIP3    H230823   2.738   7.690  17.338  0.9717 -0.9917 -0.2304
 2210TIP3   OH230824   5.051   3.124  21.759 -0.2173  0.3529 -0.0428
 2210TIP3    H130825   5.145   3.113  21.770 -0.1162 -0.9075 -1.7776
 2210TIP3    H230826   5.016   3.123  21.848  1.4160  1.3117  0.6726
 2211TIP3   OH230827   4.887   1.337  16.726  0.2010  0.0452  0.4063
 2211TIP3    H130828   4.811   1.328  16.669 -0.0560 -0.6018  0.8345
 2211TIP3    H230829   4.924   1.422  16.704 -1.1481  0.7556  0.8189
 2212TIP3   OH230830   1.584   2.947  16.459 -0.4420  0.5173  0.4896
 2212TIP3    H130831   1.551   3.037  16.453 -0.4820  0.4229 -1.0484
 2212TIP3    H230832   1.585   2.915  16.369  1.4521 -0.3538  0.7631
 2213TIP3   OH230833   6.069   0.042  16.169  0.2543 -0.1134  0.8042
 2213TIP3    H130834   5.977   0.067  16.174  0.3792  1.3066 -1.8883
 2213TIP3    H230835   6.112   0.093  16.238 -0.9577 -0.9031  2.1832
 2214TIP3   OH230836   6.218   8.016  16.680  0.3914  0.3859  0.4771
 2214TIP3    H130837   6.186   7.927  16.669 -0.4089  0.7545 -0.2631
 2214TIP3    H230838   6.303   8.017  16.636 -0.0362  0.2370 -0.3699
 2215TIP3   OH230839   1.353   7.180  17.734  0.2134 -0.3227 -0.1129
 2215TIP3    H130840   1.380   7.183  17.826 -0.3264  0.9822  0.0252
 2215TIP3    H230841   1.272   7.232  17.731 -1.1154 -2.3284 -0.9015
 2216TIP3   OH230842   7.419   0.383  16.161 -0.3036 -0.3059 -0.4537
 2216TIP3    H130843   7.360   0.458  16.155 -0.3643 -0.2030  1.0241
 2216TIP3    H230844   7.372   0.312  16.117 -1.9024 -0.4236  1.3001
 2217TIP3   OH230845   1.396   1.925  15.874 -0.1394  0.2331  0.4500
 2217TIP3    H130846   1.469   1.888  15.825 -1.0438  0.5126 -1.1527
 2217TIP3    H230847   1.355   1.849  15.916 -0.7555 -0.3628 -1.1600
 2218TIP3   OH230848   3.246   6.234  15.536  0.0486  0.3728 -0.0196
 2218TIP3    H130849   3.178   6.232  15.603 -0.9915  0.0239 -1.0548
 2218TIP3    H230850   3.224   6.163  15.476  2.0457 -0.5620  0.2748
 2219TIP3   OH230851   3.910   8.315  16.055  0.4439  0.0830  0.5007
 2219TIP3    H130852   3.907   8.224  16.026 -0.5067 -0.7888  3.0063
 2219TIP3    H230853   3.971   8.357  15.996  1.3815 -2.3301 -0.3832
 2220TIP3   OH230854   5.583   8.075  16.786  0.3768 -0.1537  0.4803
 2220TIP3    H130855   5.570   8.058  16.692  2.4481  0.6711 -0.0169
 2220TIP3    H230856   5.674   8.050  16.802  0.3112  0.5353  2.0737
 2221TIP3   OH230857   0.464   0.061  16.616 -0.8812 -0.5304 -0.4681
 2221TIP3    H130858   0.385   0.114  16.626 -0.7660 -0.3876 -0.3081
 2221TIP3    H230859   0.515   0.104  16.548 -0.4599 -0.0295  0.1507
 2222TIP3   OH230860   0.302   4.851  17.100 -0.9968  0.2006  0.7105
 2222TIP3    H130861   0.338   4.863  17.188  0.0996 -0.5011  0.3805
 2222TIP3    H230862   0.228   4.913  17.095 -1.3096 -0.0197  2.2378
 2223TIP3   OH230863   0.438   4.831  17.342  0.2492 -0.4461 -0.1251
 2223TIP3    H130864   0.368   4.798  17.397 -2.1456  1.8964 -1.5559
 2223TIP3    H230865   0.500   4.870  17.403 -2.7860  2.9642  1.0808
 2224TIP3   OH230866   2.113   5.672  16.810 -0.3873 -0.2575  0.4816
 2224TIP3    H130867   2.024   5.637  16.800  0.4103 -1.8333 -1.9259
 2224TIP3    H230868   2.165   5.596  16.836  0.4775  0.3595  0.5786
 2225TIP3   OH230869   8.708   1.494  16.552 -0.2953  0.3514  0.0971
 2225TIP3    H130870   8.635   1.452  16.597  0.4394 -1.0432  0.0408
 2225TIP3    H230871   8.763   1.529  16.623 -0.3410  0.2222  0.1963
 2226TIP3   OH230872   4.412   8.714  17.377  0.8978  0.1768 -0.2813
 2226TIP3    H130873   4.500   8.684  17.403  0.1186 -2.4068 -0.3582
 2226TIP3    H230874   4.429   8.791  17.324  3.2027 -0.5684 -0.7825
 2227TIP3   OH230875   3.718   8.238  17.032  0.6487 -0.4174  0.0715
 2227TIP3    H130876   3.748   8.199  16.949 -0.0252  1.8886 -1.3515
 2227TIP3    H230877   3.798   8.247  17.084  1.5888  0.6005 -1.4646
 2228TIP3   OH230878   4.516   7.680  17.526 -0.1625  0.6102  0.1267
 2228TIP3    H130879   4.603   7.671  17.567 -0.6690  1.1676  1.3808
 2228TIP3    H230880   4.479   7.759  17.565 -1.2776  0.3297 -0.3183
 2229TIP3   OH230881   2.301   1.590  16.506 -0.2938  0.3755 -0.3038
 2229TIP3    H130882   2.377   1.598  16.448  0.2793 -1.8591  0.0371
 2229TIP3    H230883   2.236   1.543  16.453 -1.1950  1.6410 -0.3522
 2230TIP3   OH230884   6.585   0.823  17.771 -0.7275  0.1879  0.8941
 2230TIP3    H130885   6.634   0.884  17.825 -1.1843 -1.7566  3.7113
 2230TIP3    H230886   6.650   0.758  17.744 -0.9058  0.0252  0.8569
 2231TIP3   OH230887   2.978   0.403  16.410  0.0170 -0.0655 -0.3099
 2231TIP3    H130888   3.065   0.362  16.406  0.5643  0.8332  1.2880
 2231TIP3    H230889   2.927   0.360  16.342  1.3138 -1.6029 -0.3501
 2232TIP3   OH230890   8.935   7.643  17.102  0.0596 -0.0281  0.1202
 2232TIP3    H130891   9.018   7.625  17.057 -0.9249 -0.0469 -1.7881
 2232TIP3    H230892   8.952   7.619  17.193  1.4470 -2.4053 -0.6611
 2233TIP3   OH230893   1.455   4.016  16.954  0.4187 -0.1341  0.1431
 2233TIP3    H130894   1.430   4.001  16.863  1.4861  0.7334 -0.3192
 2233TIP3    H230895   1.373   4.013  17.002 -0.1314 -0.8641 -0.8130
 2234TIP3   OH230896   3.023   6.046  17.051  0.1581  0.3261 -0.2917
 2234TIP3    H130897   3.019   5.981  17.122  0.5159 -0.1084 -0.6698
 2234TIP3    H230898   3.116   6.067  17.042  0.1397  0.2016 -0.7946
 2235TIP3   OH230899   5.034   8.706  17.661 -0.1463 -0.0908  0.4456
 2235TIP3    H130900   5.037   8.782  17.719  1.0169 -0.9740  1.6103
 2235TIP3    H230901   5.101   8.723  17.595  1.0579 -0.6419  1.4744
 2236TIP3   OH230902   2.039   3.001  16.074 -0.2738  0.2399 -0.2205
 2236TIP3    H130903   2.107   2.949  16.032  0.6550  1.2609 -0.0480
 2236TIP3    H230904   1.963   2.943  16.080  0.6294 -0.9758 -0.2906
 2237TIP3   OH230905   3.079   7.339  16.047  0.3874 -0.4290 -0.7289
 2237TIP3    H130906   3.174   7.354  16.039  0.3696  0.0999 -0.0836
 2237TIP3    H230907   3.043   7.370  15.965  0.9024 -1.9164 -1.5510
 2238TIP3   OH230908   1.805   9.077  17.754  0.0794 -0.5128  0.3304
 2238TIP3    H130909   1.729   9.023  17.732  0.1326  0.3027 -2.0957
 2238TIP3    H230910   1.880   9.017  17.747 -0.0229 -0.5339 -0.5956
 2239TIP3   OH230911   6.727   2.053  16.684 -0.0702  0.5888 -0.0870
 2239TIP3    H130912   6.707   2.038  16.592 -2.4912  1.5080  0.1976
 2239TIP3    H230913   6.753   2.145  16.689  1.6721  0.1354 -0.0213
 2240TIP3   OH230914   0.000   6.740  17.069  0.0311 -0.3343 -0.3133
 2240TIP3    H130915  -0.030   6.677  17.004  0.3767  0.6409 -1.4483
 2240TIP3    H230916  -0.061   6.813  17.062  0.5569  0.1294 -0.1086
 2241TIP3   OH230917   4.830   0.373  15.817  0.3598 -0.4655  0.8054
 2241TIP3    H130918   4.866   0.285  15.809  1.0367 -0.1364  0.1090
 2241TIP3    H230919   4.822   0.404  15.727  0.5236  0.3408  1.0600
 2242TIP3   OH230920   2.647   7.183  15.944  0.3169 -0.2602  0.0541
 2242TIP3    H130921   2.580   7.250  15.954 -1.0415 -1.3960 -1.1037
 2242TIP3    H230922   2.615   7.125  15.875  1.8253 -1.6554  0.4322
 2243TIP3   OH230923   1.977   3.537  16.956 -0.1626  0.9691  0.4542
 2243TIP3    H130924   2.007   3.622  16.924 -0.1669  0.7153 -0.2613
 2243TIP3    H230925   1.912   3.509  16.892 -0.8297  0.8373  1.1821
 2244TIP3   OH230926   0.173   5.071  16.339 -0.2173 -0.0912 -0.3736
 2244TIP3    H130927   0.186   5.153  16.291  1.7517  0.0861  0.3474
 2244TIP3    H230928   0.254   5.022  16.324  0.0244 -0.4835  1.8208
 2245TIP3   OH230929   2.649   8.068  17.218  0.0181 -0.0202 -0.0730
 2245TIP3    H130930   2.571   8.124  17.222 -0.3844 -0.5901  0.1135
 2245TIP3    H230931   2.701   8.094  17.295 -0.7359 -0.7187  0.7004
 2246TIP3   OH230932   6.782   8.360  17.155 -0.6577 -0.0750 -0.3472
 2246TIP3    H130933   6.724   8.337  17.082  0.5390 -0.5365 -1.1877
 2246TIP3    H230934   6.753   8.304  17.227 -1.0831 -0.4788 -0.8237
 2247TIP3   OH230935   8.394   6.490  17.197  0.1027  0.8774 -0.0979
 2247TIP3    H130936   8.431   6.575  17.219  1.6958  0.2976 -0.3748
 2247TIP3    H230937   8.365   6.499  17.106  0.0002  1.2074 -0.0318
 2248TIP3   OH230938   7.136   3.505  16.739 -0.2597 -0.0097  0.2076
 2248TIP3    H130939   7.173   3.435  16.792 -1.0218  0.5913  1.5653
 2248TIP3    H230940   7.061   3.537  16.789 -0.9673  0.6283 -1.1975
 2249TIP3   OH230941   0.250   2.131  15.649  0.3329  0.0232 -0.6604
 2249TIP3    H130942   0.294   2.216  15.654 -1.4641  0.9251  2.6084
 2249TIP3    H230943   0.320   2.067  15.665  1.5452  0.8650 -2.2531
 2250TIP3   OH230944   5.104   5.249  17.097 -0.2756  0.8199 -0.1092
 2250TIP3    H130945   5.169   5.282  17.158 -0.5402 -0.2568  0.7917
 2250TIP3    H230946   5.079   5.163  17.132 -2.1548  1.1841 -0.4347
 2251TIP3   OH230947   4.075   8.267  16.252  0.3376 -0.4963  0.2522
 2251TIP3    H130948   4.033   8.332  16.308  1.0647 -0.5030  0.8121
 2251TIP3    H230949   4.021   8.265  16.173 -0.1499  0.2007  0.5616
 2252TIP3   OH230950   7.620   3.121  17.595 -0.0363 -0.1300 -0.1826
 2252TIP3    H130951   7.621   3.193  17.658  1.4784  0.2137 -0.5489
 2252TIP3    H230952   7.540   3.133  17.545  0.0274  1.1202 -0.0085
 2253TIP3   OH230953   3.298   2.196  17.263 -0.3904  0.2293 -0.5249
 2253TIP3    H130954   3.224   2.256  17.251  0.6711  1.7805  0.3609
 2253TIP3    H230955   3.370   2.236  17.214  0.8100  0.6254  1.4712
 2254TIP3   OH230956   7.890   3.599  17.155  0.2942 -0.0388  0.1604
 2254TIP3    H130957   7.819   3.592  17.091  0.5133  1.9769 -0.3691
 2254TIP3    H230958   7.969   3.577  17.106  0.4833  1.6706 -0.3768
 2255TIP3   OH230959   2.870   0.286  16.194 -0.3034  0.1774  0.0949
 2255TIP3    H130960   2.776   0.307  16.195 -0.7911 -1.7900  0.3097
 2255TIP3    H230961   2.874   0.196  16.160  1.5049  0.2073  0.1416
 2256TIP3   OH230962   8.295   2.517  17.023 -0.1511 -0.0347  0.3546
 2256TIP3    H130963   8.218   2.531  16.968 -0.2798 -0.2626  0.4738
 2256TIP3    H230964   8.354   2.464  16.969  0.5327  1.3033 -0.2717
 2257TIP3   OH230965   0.692   2.619  16.369  0.1358 -0.2450 -0.5520
 2257TIP3    H130966   0.752   2.573  16.311  0.4122 -0.8430  0.1978
 2257TIP3    H230967   0.663   2.695  16.318  0.7067 -0.5227 -1.3038
 2258TIP3   OH230968   4.473   8.691  16.982 -0.9411  0.3942 -0.2879
 2258TIP3    H130969   4.453   8.620  17.043  0.0854  0.9624  0.7630
 2258TIP3    H230970   4.545   8.656  16.929 -0.2889  0.6992  0.3733
 2259TIP3   OH230971   1.602   6.336  16.709  0.1769  0.0881  0.8349
 2259TIP3    H130972   1.527   6.291  16.747 -0.4351  0.3053 -0.0810
 2259TIP3    H230973   1.631   6.396  16.777 -0.2120 -0.3068  1.3576
 2260TIP3   OH230974   3.760   0.215  17.385 -0.1195 -0.6605  0.0085
 2260TIP3    H130975   3.760   0.277  17.312  0.2458 -1.6979 -0.8985
 2260TIP3    H230976   3.668   0.199  17.404 -0.2159  0.2848  0.3716
 2261TIP3   OH230977   0.736   3.952  16.273  0.0887  0.4426 -1.0673
 2261TIP3    H130978   0.789   3.900  16.333 -1.5616 -0.6270 -0.4685
 2261TIP3    H230979   0.746   3.907  16.188  0.5369  0.5722 -1.0908
 2262TIP3   OH230980   0.099   5.374  17.324  0.0665  0.6082 -0.0106
 2262TIP3    H130981   0.173   5.348  17.379 -0.3497 -1.3276 -0.3086
 2262TIP3    H230982   0.135   5.442  17.267  1.0366  1.2175  1.2556
 2263TIP3   OH230983   2.066   5.987  16.713 -0.1659 -0.1962 -0.1026
 2263TIP3    H130984   2.000   6.048  16.679 -0.4916  1.0700  2.5765
 2263TIP3    H230985   2.015   5.914  16.747 -0.1156  0.1732  0.7849
 2264TIP3   OH230986   2.351   1.004  16.911 -0.4534 -0.1576 -0.0559
 2264TIP3    H130987   2.260   1.029  16.893 -0.4267 -0.0709 -0.0715
 2264TIP3    H230988   2.381   1.068  16.976 -1.2325 -1.7517  2.0012
 2265TIP3   OH230989   5.004   2.180  17.694  0.0104  0.0736 -0.3414
 2265TIP3    H130990   5.061   2.255  17.674 -0.2036  0.2015 -0.4776
 2265TIP3    H230991   4.928   2.219  17.738 -0.4251  0.0205 -1.0309
 2266TIP3   OH230992   1.889   4.745  17.075  0.6468 -0.5217 -0.3194
 2266TIP3    H130993   1.921   4.821  17.025  0.0142 -0.1998 -0.2440
 2266TIP3    H230994   1.797   4.765  17.093  0.1201 -1.8640 -1.3493
 2267TIP3   OH230995   4.109   0.470  16.954  0.2323 -0.0663  0.2809
 2267TIP3    H130996   4.076   0.398  16.901  2.4961 -0.3991 -0.7733
 2267TIP3    H230997   4.044   0.480  17.025 -1.2208 -1.6777 -0.7587
 2268TIP3   OH230998   4.178   1.169  17.585 -0.2694 -0.5750 -0.4695
 2268TIP3    H130999   4.262   1.160  17.540  1.0044 -1.5898  1.9170
 2268TIP3    H231000   4.140   1.081  17.581 -1.8654  0.1284 -2.5536
 2269TIP3   OH231001   7.324   7.842  16.476 -0.3888  0.1358 -0.0057
 2269TIP3    H131002   7.393   7.903  16.503 -0.6148 -0.0561  1.0713
 2269TIP3    H231003   7.306   7.865  16.385 -0.4185  1.6331  0.3511
 2270TIP3   OH231004   3.875   2.992  17.675 -0.2560  0.4124  0.1003
 2270TIP3    H131005   3.928   3.033  17.606 -1.0615 -0.4222 -1.0365
 2270TIP3    H231006   3.841   3.066  17.725  1.6854  0.9881  0.6744
 2271TIP3   OH231007   9.031   4.618  17.454  0.6115 -0.0116 -0.3809
 2271TIP3    H131008   8.962   4.681  17.473 -1.3351 -1.3286 -2.6404
 2271TIP3    H231009   9.036   4.563  17.532 -2.6961 -1.4032 -1.0173
 2272TIP3   OH231010   3.246   1.255  17.053 -0.4753 -0.0983  0.3558
 2272TIP3    H131011   3.291   1.211  17.126 -1.3107  0.0889  1.0128
 2272TIP3    H231012   3.177   1.306  17.096 -0.8134  0.2239 -0.5580
 2273TIP3   OH231013   1.899   6.212  17.251 -0.0768 -0.6191  0.0399
 2273TIP3    H131014   1.990   6.222  17.222 -0.2232  1.4794  0.1048
 2273TIP3    H231015   1.855   6.165  17.181  0.9839 -1.3871 -0.1264
 2274TIP3   OH231016   7.883   8.305  16.813 -0.5425  0.6691  0.0087
 2274TIP3    H131017   7.950   8.373  16.809 -0.8013  0.8817 -1.1222
 2274TIP3    H231018   7.917   8.235  16.758 -0.8392  0.4105  0.1540
 2275TIP3   OH231019   9.031   8.197  16.338  0.1662  0.0579 -0.0601
 2275TIP3    H131020   9.010   8.189  16.245  0.4406 -0.2541 -0.0995
 2275TIP3    H231021   9.117   8.240  16.340  0.8878 -1.3181 -0.0186
 2276TIP3   OH231022   4.648   2.184  17.635  0.6622  0.4540  0.7343
 2276TIP3    H131023   4.598   2.265  17.628 -1.1098 -0.5690  0.9789
 2276TIP3    H231024   4.659   2.154  17.545 -4.0448 -2.0726  0.7082
 2277TIP3   OH231025   4.670   4.597  17.692  0.2283 -0.1495 -0.0255
 2277TIP3    H131026   4.716   4.565  17.614  0.2998  0.5233 -0.2686
 2277TIP3    H231027   4.592   4.542  17.698 -0.0966  0.1859 -0.9378
 2278TIP3   OH231028   3.479   3.327  17.234 -0.3029  0.4208  0.1276
 2278TIP3    H131029   3.522   3.395  17.287  0.2375  0.8224 -0.8159
 2278TIP3    H231030   3.521   3.332  17.149 -0.5511 -0.8384 -0.0819
 2279TIP3   OH231031   1.458   6.841  17.467 -0.3882  0.4661  0.0027
 2279TIP3    H131032   1.482   6.916  17.521 -0.8774  0.5063  0.1628
 2279TIP3    H231033   1.466   6.765  17.526 -0.7973  0.4958  0.0941
 2280TIP3   OH231034   3.689   5.620  17.743 -0.1381 -0.0300 -0.4778
 2280TIP3    H131035   3.669   5.537  17.700  1.4153  0.0678 -1.4630
 2280TIP3    H231036   3.778   5.609  17.776  0.4797  1.5573 -1.4907
 2281TIP3   OH231037   5.090   0.501  16.464  0.7483 -0.3208 -0.3355
 2281TIP3    H131038   5.179   0.500  16.429  0.5279 -2.1756 -0.9986
 2281TIP3    H231039   5.044   0.434  16.412 -0.5268 -0.7198  1.2334
 2282TIP3   OH231040   7.347   5.440  16.585 -0.5331 -0.3719 -0.0763
 2282TIP3    H131041   7.295   5.506  16.539 -0.1386 -0.4370 -0.6254
 2282TIP3    H231042   7.401   5.492  16.645 -0.5564 -0.2276 -0.1776
 2283TIP3   OH231043   0.090   1.422  17.586 -0.4425  0.1633 -0.1151
 2283TIP3    H131044   0.159   1.467  17.538 -1.2662  1.7323  0.0984
 2283TIP3    H231045   0.012   1.433  17.531 -1.1286  0.9276  0.9843
 2284TIP3   OH231046   6.546   2.842  16.851  0.7063 -0.5334  0.1806
 2284TIP3    H131047   6.596   2.799  16.781 -0.0822 -1.4417  0.1513
 2284TIP3    H231048   6.574   2.933  16.848  0.5259 -0.5047 -1.4572
 2285TIP3   OH231049   3.178   3.652  16.303 -0.3149 -0.5946  0.5413
 2285TIP3    H131050   3.178   3.586  16.373 -0.9110 -2.5402 -1.1858
 2285TIP3    H231051   3.128   3.611  16.232 -0.4772  1.6566 -0.7196
 2286TIP3   OH231052   6.848   2.757  17.860 -0.7469 -0.0649 -0.3321
 2286TIP3    H131053   6.763   2.728  17.826 -2.1756  2.5508  0.6678
 2286TIP3    H231054   6.868   2.837  17.810  0.3576  0.2029  0.5001
 2287TIP3   OH231055   8.662   8.879  17.786 -0.1858 -0.2941 -0.1840
 2287TIP3    H131056   8.729   8.812  17.800 -0.2544 -0.1399  0.9329
 2287TIP3    H231057   8.587   8.831  17.750  0.3579 -0.5380 -1.0116
 2288TIP3   OH231058   8.690   0.564  16.041 -0.2132  0.2922  0.2233
 2288TIP3    H131059   8.749   0.640  16.044  0.5172 -0.0983 -2.3266
 2288TIP3    H231060   8.744   0.491  16.073  0.5918  0.0273 -1.6507
 2289TIP3   OH231061   1.946   3.782  16.648 -0.5338  0.6688  0.1147
 2289TIP3    H131062   1.942   3.809  16.740 -0.7755  1.7944 -0.2106
 2289TIP3    H231063   2.040   3.776  16.629 -0.4681  1.6609  0.0973
 2290TIP3   OH231064   5.598   4.266  16.947 -0.0884  0.1934  0.1328
 2290TIP3    H131065   5.549   4.328  16.894  0.8155  1.0231  0.2467
 2290TIP3    H231066   5.648   4.214  16.884  0.2033  0.4982  0.1122
 2291TIP3   OH231067   1.822   4.413  17.279 -0.5325 -0.1266 -0.0945
 2291TIP3    H131068   1.876   4.369  17.343  0.2591 -0.8609 -1.2307
 2291TIP3    H231069   1.860   4.389  17.194 -0.7438  1.8525 -0.8058
 2292TIP3   OH231070   7.937   2.992  17.035 -0.1820  0.5863  0.2284
 2292TIP3    H131071   7.924   2.898  17.049  2.0277  0.4226  1.6852
 2292TIP3    H231072   7.932   3.030  17.122  1.1421  1.4684 -0.0474
 2293TIP3   OH231073   2.968   3.851  16.350  0.5442 -0.4819  0.4330
 2293TIP3    H131074   2.991   3.895  16.268  0.3817 -2.0773 -0.5093
 2293TIP3    H231075   3.038   3.788  16.364 -0.9773 -2.4169 -0.1955
 2294TIP3   OH231076   7.227   3.399  17.324  0.8421  0.0217  0.0572
 2294TIP3    H131077   7.133   3.383  17.333  0.8357  0.8389  1.6893
 2294TIP3    H231078   7.237   3.428  17.233 -0.6189  0.8305  0.1249
 2295TIP3   OH231079   8.526   9.199  17.015  0.5254 -0.6165  0.1348
 2295TIP3    H131080   8.522   9.287  16.977  2.5267 -1.0876 -1.3686
 2295TIP3    H231081   8.578   9.210  17.095 -0.3266 -0.2533  0.6541
 2296TIP3   OH231082   3.389   7.062  17.298  0.1774 -0.1791 -0.6033
 2296TIP3    H131083   3.345   7.142  17.327 -0.6394 -0.1498 -1.8413
 2296TIP3    H231084   3.454   7.092  17.234  0.6005 -0.4157 -0.2915
 2297TIP3   OH231085   2.667   6.691  17.671 -0.0146 -0.3411 -1.0199
 2297TIP3    H131086   2.705   6.604  17.681  0.5055  0.1218  1.5840
 2297TIP3    H231087   2.578   6.683  17.705  1.4502  1.0273  3.9149
 2298TIP3   OH231088   2.595   8.398  17.114 -0.6800 -0.1385  0.3372
 2298TIP3    H131089   2.540   8.320  17.129 -0.4384 -0.6484 -1.2761
 2298TIP3    H231090   2.533   8.470  17.104 -1.1551 -0.7652 -1.8047
 2299TIP3   OH231091   4.016   1.337  17.431  0.2351 -0.6696 -0.0216
 2299TIP3    H131092   3.974   1.413  17.472  0.2624 -1.1961  1.0333
 2299TIP3    H231093   4.060   1.292  17.504 -0.2266 -1.9839 -0.5183
 2300TIP3   OH231094   3.429   7.183  15.898  0.4287  0.1109  0.2705
 2300TIP3    H131095   3.465   7.217  15.816 -0.6119  0.9445  0.1373
 2300TIP3    H231096   3.343   7.147  15.873 -1.5917  3.5754  1.4756
 2301TIP3   OH231097   3.095   8.584  17.007  0.1840  0.0845 -0.0320
 2301TIP3    H131098   3.146   8.636  17.068 -0.7170 -0.4995  1.2737
 2301TIP3    H231099   3.160   8.532  16.959  0.8802  0.2376  0.7324
 2302TIP3   OH231100   3.428   2.717  17.116  0.1890  0.2892 -0.5954
 2302TIP3    H131101   3.424   2.627  17.082  0.9702  0.2767 -0.6798
 2302TIP3    H231102   3.451   2.706  17.208  1.8027  0.4299 -0.9491
 2303TIP3   OH231103   2.301   8.135  17.721 -0.1563  0.8899  0.0099
 2303TIP3    H131104   2.352   8.145  17.641 -1.0013  1.3520 -0.4865
 2303TIP3    H231105   2.362   8.097  17.784  0.2071 -0.5645 -1.1790
 2304TIP3   OH231106   8.413   4.486  17.033  0.0549  0.0474 -0.1180
 2304TIP3    H131107   8.461   4.420  16.984 -0.9132 -1.1320  0.4551
 2304TIP3    H231108   8.324   4.483  16.996  0.4903  2.6033 -1.5803
 2305TIP3   OH231109   6.978   5.580  17.685 -0.5135 -0.1935  0.0363
 2305TIP3    H131110   6.938   5.668  17.691 -1.2823 -0.6169  1.7538
 2305TIP3    H231111   7.069   5.597  17.663 -0.1722  1.1890  2.2014
 2306TIP3   OH231112   4.431   4.363  16.878 -0.1249 -0.5814 -1.0683
 2306TIP3    H131113   4.515   4.370  16.832  0.2684 -1.5232 -0.5385
 2306TIP3    H231114   4.403   4.273  16.864 -1.0378 -0.2901 -1.1995
 2307TIP3   OH231115   3.207   1.644  17.587 -0.1725 -0.2936 -0.6306
 2307TIP3    H131116   3.209   1.719  17.527  2.1575 -0.8513 -1.3130
 2307TIP3    H231117   3.154   1.578  17.541  1.2059 -0.5473 -1.9108
 2308TIP3   OH231118   7.306   0.066  15.616  0.4735  0.3117  0.4229
 2308TIP3    H131119   7.324   0.021  15.699 -0.6938 -0.0501  0.4912
 2308TIP3    H231120   7.238   0.014  15.575  1.9147 -0.2587 -1.3866
 2309TIP3   OH231121   2.091   4.322  17.361 -0.1905  0.1398  0.7188
 2309TIP3    H131122   2.099   4.386  17.291  0.2560 -0.7518 -0.0690
 2309TIP3    H231123   2.178   4.316  17.399 -0.4094  0.5512  1.3024
 2310TIP3   OH231124   8.779   6.601  17.272  0.0048  0.0064  0.2313
 2310TIP3    H131125   8.799   6.518  17.229  1.9676  0.4531  0.1746
 2310TIP3    H231126   8.809   6.668  17.210 -2.3782  0.8358 -0.1383
 2311TIP3   OH231127   5.249   8.374  15.820 -0.0017  0.0391  0.0032
 2311TIP3    H131128   5.247   8.394  15.727  0.4344 -1.6960 -0.4036
 2311TIP3    H231129   5.320   8.427  15.855 -1.1870  1.9232 -0.3079
 2312TIP3   OH231130   5.430   8.489  17.731 -0.5833 -0.1505 -0.4475
 2312TIP3    H131131   5.347   8.483  17.683 -1.1443  0.2528  0.4480
 2312TIP3    H231132   5.422   8.424  17.801 -0.6057  0.6458  0.3049
 2313TIP3   OH231133   1.597   3.136  16.773  0.5053 -0.4634 -0.2478
 2313TIP3    H131134   1.511   3.180  16.780  1.1777  0.9616 -0.5295
 2313TIP3    H231135   1.576   3.046  16.749 -0.9344 -0.2243  0.0043
 2314TIP3   OH231136   4.733   5.602  17.889 -0.3186 -0.3383 -0.1056
 2314TIP3    H131137   4.675   5.655  17.944  1.1940  0.1661  1.0617
 2314TIP3    H231138   4.790   5.666  17.845 -0.4748 -0.8373 -1.0600
 2315TIP3   OH231139   8.695   0.212  17.398 -0.3512  0.7005 -0.7002
 2315TIP3    H131140   8.736   0.275  17.458 -0.7379  1.8967 -1.6546
 2315TIP3    H231141   8.625   0.261  17.356 -2.2759 -1.0581  0.2686
 2316TIP3   OH231142   3.588   2.309  16.615 -0.1618 -0.0092 -0.7286
 2316TIP3    H131143   3.533   2.362  16.558 -1.6878 -0.0974  0.6051
 2316TIP3    H231144   3.608   2.231  16.563 -0.4668  0.4619 -1.5743
 2317TIP3   OH231145   4.618   3.665  16.156  0.4999  0.1892  0.0048
 2317TIP3    H131146   4.605   3.758  16.173  0.7780  0.2335 -0.0245
 2317TIP3    H231147   4.711   3.656  16.138  0.4257 -0.0487 -0.2822
 2318TIP3   OH231148   8.639   4.277  16.489 -0.4132 -0.8627 -0.3593
 2318TIP3    H131149   8.628   4.187  16.460  0.1893 -0.7860 -0.8532
 2318TIP3    H231150   8.591   4.329  16.424 -1.7433 -0.8816  0.5590
 2319TIP3   OH231151   4.187   5.774  16.970 -0.7279 -0.1554 -0.1765
 2319TIP3    H131152   4.165   5.866  16.959 -1.2056 -0.4651 -2.2003
 2319TIP3    H231153   4.145   5.749  17.052 -2.2086  0.9622 -0.5636
 2320TIP3   OH231154   7.851   6.654  16.824 -0.1984 -0.3960  0.0456
 2320TIP3    H131155   7.757   6.651  16.808 -0.3392 -1.0560  0.9189
 2320TIP3    H231156   7.881   6.565  16.805 -0.2490 -1.0092  2.5603
 2321TIP3   OH231157   5.519   7.836  15.804 -0.2577  0.1380  0.1351
 2321TIP3    H131158   5.557   7.766  15.857 -1.1471 -1.0298 -0.6994
 2321TIP3    H231159   5.444   7.795  15.760  0.8903  0.7576 -2.6607
 2322TIP3   OH231160   0.179   2.226  16.900  0.2812  0.2493 -0.2527
 2322TIP3    H131161   0.132   2.150  16.935  0.9003  0.6101  1.4685
 2322TIP3    H231162   0.259   2.190  16.863  1.3767  0.1255  2.0279
 2323TIP3   OH231163   8.719   3.597  16.372 -0.3430  0.3279  0.0690
 2323TIP3    H131164   8.709   3.573  16.280 -0.4385 -0.2260  0.2176
 2323TIP3    H231165   8.633   3.579  16.410  0.0135 -0.5482  0.5020
 2324TIP3   OH231166   7.607   6.812  16.875 -0.0976  0.5010  0.3601
 2324TIP3    H131167   7.568   6.771  16.798 -1.6274  1.0846  0.7770
 2324TIP3    H231168   7.558   6.776  16.949  0.0194  1.4168  0.8969
 2325TIP3   OH231169   1.349   0.955  17.291 -0.4009  0.1787 -0.8184
 2325TIP3    H131170   1.257   0.935  17.303 -0.5495 -0.5135 -2.6781
 2325TIP3    H231171   1.357   0.974  17.197  1.3340  0.2563 -0.6945
 2326TIP3   OH231172   0.571   2.071  16.589  0.0340 -0.1453 -0.3827
 2326TIP3    H131173   0.620   2.043  16.512 -0.0943  0.1218 -0.5628
 2326TIP3    H231174   0.628   2.051  16.663 -0.7398 -2.5393 -0.3413
 2327TIP3   OH231175   2.348   0.575  16.560  0.3434 -0.2415 -0.2309
 2327TIP3    H131176   2.319   0.514  16.627 -2.1272 -0.2515 -1.2017
 2327TIP3    H231177   2.314   0.540  16.478  1.1935  1.0347 -1.1848
 2328TIP3   OH231178   3.666   5.847  17.617 -0.0443 -0.4303  0.0039
 2328TIP3    H131179   3.761   5.844  17.609  0.2076 -1.6564  2.5156
 2328TIP3    H231180   3.642   5.761  17.650 -2.1302 -0.3583 -1.1349
 2329TIP3   OH231181   1.331   6.558  17.711  0.0091  0.0062 -0.3540
 2329TIP3    H131182   1.371   6.636  17.749  0.7273 -0.7315  0.4374
 2329TIP3    H231183   1.392   6.530  17.644  0.9475 -1.2053  0.9514
 2330TIP3   OH231184   9.090   4.850  17.274  0.1536  0.2234 -0.4120
 2330TIP3    H131185   9.084   4.781  17.340 -0.0732 -0.8691 -1.5610
 2330TIP3    H231186   9.184   4.867  17.265  0.1433  1.6588  1.4478
 2331TIP3   OH231187   3.402   1.243  15.990 -0.6356  0.0951  0.6219
 2331TIP3    H131188   3.447   1.295  16.057 -1.0661 -0.4011  1.3056
 2331TIP3    H231189   3.449   1.263  15.909  0.5508 -0.0892  1.2430
 2332TIP3   OH231190   3.341   5.520  17.062  0.0295  0.1078 -0.2271
 2332TIP3    H131191   3.380   5.466  16.994  0.9229  0.4214  0.0222
 2332TIP3    H231192   3.414   5.571  17.097 -0.7128  1.1665 -0.1688
 2333TIP3   OH231193   3.471   6.825  16.994  0.0407  0.4047 -0.1667
 2333TIP3    H131194   3.388   6.859  16.960 -0.8555 -1.3737  0.1425
 2333TIP3    H231195   3.446   6.775  17.072  1.4548  0.1650  0.1599
 2334TIP3   OH231196   7.441   1.544  16.894  0.2078  0.0394 -0.0998
 2334TIP3    H131197   7.523   1.498  16.878  0.0810  0.2109 -1.3161
 2334TIP3    H231198   7.465   1.636  16.897  0.1822  0.0305  0.3933
 2335TIP3   OH231199   8.639   3.405  17.915  0.4192 -0.3373  1.1893
 2335TIP3    H131200   8.715   3.376  17.964  1.3209 -0.5643 -0.2812
 2335TIP3    H231201   8.675   3.446  17.836 -0.9576  0.2113  0.8100
 2336TIP3   OH231202   5.551   8.855  16.450  0.1470  0.6026 -0.2850
 2336TIP3    H131203   5.554   8.808  16.366 -0.8121 -1.4032  0.7238
 2336TIP3    H231204   5.477   8.816  16.496  1.2284  0.9646  1.8733
 2337TIP3   OH231205   1.381   6.713  16.612  0.5872 -0.3858  0.2147
 2337TIP3    H131206   1.362   6.712  16.706 -0.2841 -1.5372  0.0468
 2337TIP3    H231207   1.295   6.702  16.570  1.1016 -1.1978 -0.6689
 2338TIP3   OH231208   9.032   7.108  16.416  0.1906  0.1412  0.1641
 2338TIP3    H131209   9.047   7.107  16.322 -2.8302  1.3965 -0.4457
 2338TIP3    H231210   9.048   7.198  16.443 -1.7356  0.5006  0.2409
 2339TIP3   OH231211   1.169   7.199  15.935  0.3527 -0.3009  0.2681
 2339TIP3    H131212   1.144   7.151  16.014  2.2604 -1.0330  0.4642
 2339TIP3    H231213   1.146   7.290  15.955 -0.6742 -0.6969  1.0129
 2340TIP3   OH231214   4.209   3.913  17.496 -0.1076 -0.1959  0.0946
 2340TIP3    H131215   4.195   4.006  17.513 -2.0541 -0.2456 -1.0358
 2340TIP3    H231216   4.194   3.903  17.402 -0.4430 -1.7482  0.2957
 2341TIP3   OH231217   9.152   7.327  16.572 -0.1360 -0.3399 -0.3063
 2341TIP3    H131218   9.137   7.413  16.533  2.6012  2.6587  4.3870
 2341TIP3    H231219   9.240   7.303  16.545  0.6716  0.3945  1.5375
 2342TIP3   OH231220   7.562   6.172  17.347 -0.0555 -0.0473 -0.2281
 2342TIP3    H131221   7.524   6.120  17.417 -1.7229  0.9817 -0.3157
 2342TIP3    H231222   7.537   6.262  17.367  1.8379  0.6294 -0.6641
 2343TIP3   OH231223   1.870   5.554  16.918  0.4052 -0.3269  0.0492
 2343TIP3    H131224   1.880   5.464  16.889 -0.4051 -0.5992  0.5749
 2343TIP3    H231225   1.936   5.565  16.987  0.9300 -0.3160 -0.4507
 2344TIP3   OH231226   0.937   0.389  16.501  0.0756  0.4085  0.0166
 2344TIP3    H131227   1.016   0.354  16.460  0.7847  1.2401  0.6501
 2344TIP3    H231228   0.881   0.312  16.513  2.3183 -0.9728  3.0324
 2345TIP3   OH231229   0.618   1.719  16.992 -0.0982 -0.1078  0.5318
 2345TIP3    H131230   0.693   1.682  17.038 -1.5584  1.7471  4.9027
 2345TIP3    H231231   0.653   1.795  16.946  1.1551 -0.9735  0.0126
 2346TIP3   OH231232   2.955   6.025  17.796  0.8923  0.2470  0.3082
 2346TIP3    H131233   2.862   6.010  17.782  0.9169 -1.1121  1.3959
 2346TIP3    H231234   2.998   5.970  17.731  0.9457  0.1750  0.4046
 2347TIP3   OH231235   5.328   0.854  16.784 -0.4252  0.3925 -0.2171
 2347TIP3    H131236   5.357   0.765  16.764  1.6946  0.2018  2.8865
 2347TIP3    H231237   5.242   0.843  16.825  0.2723 -0.4386  1.1147
 2348TIP3   OH231238   5.582   8.659  16.809  0.0294 -0.4472  0.4404
 2348TIP3    H131239   5.534   8.578  16.824 -0.1573 -0.2044  1.2112
 2348TIP3    H231240   5.654   8.634  16.750  0.4694 -1.3516  1.3227
 2349TIP3   OH231241   1.445   4.946  17.676  0.2693  0.1519 -0.0341
 2349TIP3    H131242   1.500   4.876  17.641  0.1572 -0.4488  0.9555
 2349TIP3    H231243   1.356   4.913  17.668  0.0684  0.9232 -1.1854
 2350TIP3   OH231244   7.939   0.584  17.797  0.3949 -0.5924 -0.0437
 2350TIP3    H131245   8.025   0.550  17.822  0.7041  0.5899  0.5359
 2350TIP3    H231246   7.883   0.506  17.795  0.8439 -1.0493  2.2694
 2351TIP3   OH231247   2.342   7.843  17.081  0.0231 -0.0165  0.2851
 2351TIP3    H131248   2.392   7.887  17.012 -0.0246 -1.9560 -1.0742
 2351TIP3    H231249   2.408   7.807  17.139  0.2000 -1.2165 -0.6292
 2352TIP3   OH231250   1.033   5.783  17.644  0.3424 -0.1590  0.1882
 2352TIP3    H131251   1.015   5.731  17.722 -0.2443  0.4108  0.4398
 2352TIP3    H231252   0.990   5.735  17.573  0.2671 -0.3001  0.3294
 2353TIP3   OH231253   7.088   5.169  16.897 -0.4804 -0.3374  0.1252
 2353TIP3    H131254   7.048   5.188  16.812 -1.4505  1.4710  0.9289
 2353TIP3    H231255   7.028   5.207  16.961  0.7861 -0.6759  1.5768
 2354TIP3   OH231256   2.881   5.224  15.997 -0.1731  0.3970  0.0201
 2354TIP3    H131257   2.957   5.166  16.000 -0.0545  0.4349 -1.4766
 2354TIP3    H231258   2.894   5.278  15.918 -1.0521  1.3767  0.5100
 2355TIP3   OH231259   8.963   4.161  17.023  0.2116 -0.1246 -0.5178
 2355TIP3    H131260   8.922   4.207  17.096 -1.0910 -0.0473 -1.2750
 2355TIP3    H231261   9.051   4.140  17.055 -0.5385 -0.7034  1.3229
 2356TIP3   OH231262   4.585   1.448  17.380 -0.7114 -0.4520  0.8704
 2356TIP3    H131263   4.608   1.508  17.310  2.4104 -3.9251 -1.4802
 2356TIP3    H231264   4.494   1.424  17.363 -0.3543 -0.3874 -1.3755
 2357TIP3   OH231265   7.359   0.929  16.644 -0.1154 -0.5974 -0.7277
 2357TIP3    H131266   7.322   0.842  16.658 -0.2036 -0.6213 -1.0997
 2357TIP3    H231267   7.411   0.921  16.565 -0.0134 -0.3453 -0.6883
 2358TIP3   OH231268   6.793   5.697  16.301 -0.1413  0.1743 -0.4602
 2358TIP3    H131269   6.758   5.621  16.254 -0.6386 -0.4014  0.7845
 2358TIP3    H231270   6.716   5.749  16.323 -0.3090 -0.9523  2.0448
 2359TIP3   OH231271   4.271   1.067  17.232  0.8102 -0.1513 -0.1551
 2359TIP3    H131272   4.337   0.999  17.246  1.0808 -0.3126 -1.9955
 2359TIP3    H231273   4.189   1.019  17.222  1.3011 -0.4998 -3.6117
 2360TIP3   OH231274   5.101   6.556  16.596  0.0220  0.8566 -1.1487
 2360TIP3    H131275   5.027   6.518  16.549 -0.4359  1.2650 -0.7690
 2360TIP3    H231276   5.061   6.608  16.666  0.6947  0.3666 -0.3895
 2361TIP3   OH231277   8.202   6.922  16.427 -0.7428  0.0939  0.1166
 2361TIP3    H131278   8.285   6.929  16.475 -0.1656 -1.6954 -0.5714
 2361TIP3    H231279   8.163   7.010  16.435  0.8496  0.7592  1.0784
 2362TIP3   OH231280   5.748   1.124  17.102 -0.6921 -0.7379 -0.7224
 2362TIP3    H131281   5.722   1.083  17.184 -0.4461  0.4907 -0.0124
 2362TIP3    H231282   5.679   1.187  17.083 -0.0708 -0.0461 -0.7310
 2363TIP3   OH231283   7.688   8.337  16.990  0.2190  0.2018  0.2962
 2363TIP3    H131284   7.762   8.317  16.933 -2.2103 -2.4311 -2.3397
 2363TIP3    H231285   7.699   8.280  17.066  0.0742 -1.5593 -0.9453
 2364TIP3   OH231286   0.019   9.014  17.223  0.6814 -0.5503  0.0351
 2364TIP3    H131287   0.063   8.997  17.140  0.5603 -0.7219  0.0044
 2364TIP3    H231288   0.008   8.928  17.262  0.4689 -0.4965  0.0919
 2365TIP3   OH231289   3.794   3.178  17.330  0.0105  0.1213  0.3613
 2365TIP3    H131290   3.861   3.142  17.389  0.2453  0.8257  0.5372
 2365TIP3    H231291   3.844   3.226  17.264 -0.2985  0.2157  0.1951
 2366TIP3   OH231292   9.207   9.216  17.426  0.1043  0.4577 -0.3272
 2366TIP3    H131293   9.246   9.172  17.501 -1.9265  0.4188  0.7974
 2366TIP3    H231294   9.196   9.147  17.361 -0.1726 -0.0381  0.2259
 2367TIP3   OH231295   6.019   0.196  18.099 -0.1719 -0.1304  0.4834
 2367TIP3    H131296   5.949   0.154  18.049  0.7853 -0.3004 -0.7650
 2367TIP3    H231297   6.071   0.124  18.135  0.9797 -0.0860 -0.9638
 2368TIP3   OH231298   4.693   0.162  16.214  0.4791  0.2240 -0.7806
 2368TIP3    H131299   4.649   0.129  16.292 -0.1626  1.8853 -0.4099
 2368TIP3    H231300   4.784   0.134  16.225  0.9541  2.3352  1.7690
 2369TIP3   OH231301   4.886   3.164  16.306  0.2065 -0.5272  0.6629
 2369TIP3    H131302   4.793   3.165  16.331  0.5904  0.2711  2.1906
 2369TIP3    H231303   4.912   3.256  16.309  0.9983 -0.7307  0.0375
 2370TIP3   OH231304   3.006   1.061  16.309  0.3867  0.1721  0.1157
 2370TIP3    H131305   3.008   0.966  16.315  1.2608  0.1520 -0.2739
 2370TIP3    H231306   2.927   1.087  16.356 -0.3714 -0.8015 -0.5804
 2371TIP3   OH231307   2.877   5.348  15.728  0.1980  0.2685  0.2542
 2371TIP3    H131308   2.796   5.305  15.701  1.2773 -1.7045  0.0507
 2371TIP3    H231309   2.947   5.288  15.702  1.6529  1.1863  1.8517
 2372TIP3   OH231310   5.340   1.191  17.741 -0.2429  0.3731  0.4595
 2372TIP3    H131311   5.274   1.131  17.776  0.0977  0.2093  0.8400
 2372TIP3    H231312   5.328   1.272  17.791 -0.6578  0.6029 -0.0069
 2373TIP3   OH231313   2.612   3.387  17.443 -0.2231 -0.0741 -0.6725
 2373TIP3    H131314   2.539   3.326  17.433 -1.2878  1.0810 -0.3091
 2373TIP3    H231315   2.681   3.335  17.483 -0.7896 -1.2435 -1.1658
 2374TIP3   OH231316   0.260   4.761  17.702  0.4767 -0.2268  0.4779
 2374TIP3    H131317   0.202   4.733  17.773 -0.5890  1.3579  0.2915
 2374TIP3    H231318   0.202   4.782  17.630  1.2576  1.2815  0.2381
 2375TIP3   OH231319   7.685   3.365  16.961  0.2925 -0.1260 -0.0582
 2375TIP3    H131320   7.719   3.300  16.900  1.0559 -0.3177  0.5549
 2375TIP3    H231321   7.630   3.316  17.021 -0.7775  0.1215 -0.7988
 2376TIP3   OH231322   8.322   8.429  17.291 -0.3112  0.2045 -0.2435
 2376TIP3    H131323   8.276   8.369  17.351  0.2358  0.0352  0.0125
 2376TIP3    H231324   8.323   8.512  17.337 -0.0596  0.1216 -0.0962
 2377TIP3   OH231325   2.096   6.412  18.013 -0.2719  0.1501 -0.3372
 2377TIP3    H131326   2.188   6.439  18.009  0.4463 -2.1947 -2.8950
 2377TIP3    H231327   2.049   6.478  17.962  0.3122  0.3114 -0.6727
 2378TIP3   OH231328   1.152   0.012  17.308 -0.4219 -0.0101 -0.0889
 2378TIP3    H131329   1.083  -0.051  17.323  1.0945 -1.6822  0.2045
 2378TIP3    H231330   1.114   0.096  17.334 -2.1660 -0.9193  0.4636
 2379TIP3   OH231331   6.200   7.032  16.834 -0.2361 -0.4829  0.1994
 2379TIP3    H131332   6.235   7.059  16.750 -0.6585  0.0326  0.1857
 2379TIP3    H231333   6.141   6.959  16.813 -1.6760  0.7388 -0.1810
 2380TIP3   OH231334   3.290   8.172  16.984  0.4971 -0.4426 -0.2821
 2380TIP3    H131335   3.311   8.151  17.075  0.3862  1.6171  0.2718
 2380TIP3    H231336   3.205   8.130  16.969 -0.6292  1.0783  1.3707
 2381TIP3   OH231337   5.069   3.755  17.264  0.1850  0.2585 -0.4876
 2381TIP3    H131338   5.029   3.669  17.248 -0.9116  0.8890 -1.2004
 2381TIP3    H231339   5.102   3.749  17.354  0.0133 -0.8680 -0.4843
 2382TIP3   OH231340   4.962   8.451  17.210 -0.0410 -0.2236  0.2349
 2382TIP3    H131341   4.944   8.525  17.267  0.2147  0.6126 -0.7445
 2382TIP3    H231342   4.909   8.466  17.132  0.6430 -0.6312 -0.3298
 2383TIP3   OH231343   3.380   5.049  16.439 -0.4798  0.1733 -0.1848
 2383TIP3    H131344   3.459   5.103  16.431  0.0726 -0.4809  0.5754
 2383TIP3    H231345   3.328   5.093  16.506  1.3271 -1.6849  2.7059
 2384TIP3   OH231346   1.112   5.421  16.497 -0.7300  0.1301  0.1316
 2384TIP3    H131347   1.129   5.507  16.460 -2.1985  0.6760  0.6766
 2384TIP3    H231348   1.162   5.361  16.442 -1.5178  1.0835 -1.7072
 2385TIP3   OH231349   4.619   6.532  16.409  0.3246 -0.0456  0.8520
 2385TIP3    H131350   4.575   6.473  16.470  1.5478 -0.0500  1.7551
 2385TIP3    H231351   4.637   6.478  16.333 -0.9966 -0.1033  0.5458
 2386TIP3   OH231352   3.505   8.338  17.166  0.2301 -0.1152 -0.4329
 2386TIP3    H131353   3.570   8.280  17.127  0.4863  0.4724 -0.8886
 2386TIP3    H231354   3.550   8.380  17.239  0.5047  0.6089 -1.0074
 2387TIP3   OH231355   1.022   0.162  15.897 -0.4302  0.4869 -0.2441
 2387TIP3    H131356   0.993   0.085  15.848 -1.1264 -0.3004  1.3486
 2387TIP3    H231357   1.079   0.127  15.965 -1.2372  1.3035  0.8782
 2388TIP3   OH231358   0.145   1.747  16.896  0.2145  0.2842 -0.5440
 2388TIP3    H131359   0.227   1.718  16.938  0.5136 -0.0207 -1.3145
 2388TIP3    H231360   0.139   1.692  16.817 -1.4571 -0.6869  0.2121
 2389TIP3   OH231361   0.413   0.556  17.097 -0.2304  0.4225 -0.4036
 2389TIP3    H131362   0.398   0.649  17.113  0.2497  0.8462 -2.1741
 2389TIP3    H231363   0.505   0.542  17.121 -0.4568  0.2705  0.3864
 2390TIP3   OH231364   6.402   8.377  16.966 -0.5652 -0.2990  0.4577
 2390TIP3    H131365   6.470   8.310  16.956  0.2100  0.4933  0.3163
 2390TIP3    H231366   6.435   8.434  17.035 -0.4628  0.8316 -0.4898
 2391TIP3   OH231367   1.545   2.424  17.128 -0.0949 -0.6545  0.3521
 2391TIP3    H131368   1.563   2.488  17.196 -2.4560 -1.1972  1.5934
 2391TIP3    H231369   1.625   2.372  17.122  0.1159 -0.7367  2.9071
 2392TIP3   OH231370   0.099   9.069  17.650  0.4120 -0.0555 -0.4601
 2392TIP3    H131371   0.194   9.062  17.638  0.7463  1.5364  0.8387
 2392TIP3    H231372   0.065   8.983  17.625  2.1515 -0.5696 -1.2435
 2393TIP3   OH231373   7.996   6.897  16.979 -0.3383 -0.2478 -0.1862
 2393TIP3    H131374   8.032   6.899  16.891 -1.3247 -0.7624 -0.6086
 2393TIP3    H231375   8.008   6.807  17.009 -1.7012 -0.5712 -0.5323
 2394TIP3   OH231376   2.865   7.036  16.057 -0.1843  0.8292  0.1192
 2394TIP3    H131377   2.807   7.098  16.011 -0.6684 -1.0784 -2.0650
 2394TIP3    H231378   2.822   6.951  16.046  3.1089 -0.7877 -1.9887
 2395TIP3   OH231379   5.328   6.396  17.814  0.0516 -0.2916  0.3422
 2395TIP3    H131380   5.397   6.378  17.878  0.2650 -2.0299 -0.3249
 2395TIP3    H231381   5.369   6.378  17.729 -0.7965  0.1093 -0.1659
 2396TIP3   OH231382   1.253   2.092  16.841  0.0842 -0.2368  0.1676
 2396TIP3    H131383   1.264   2.173  16.792  0.1474  0.3161  1.0857
 2396TIP3    H231384   1.300   2.107  16.923  1.7119 -1.8817 -0.3881
 2397TIP3   OH231385   8.391   7.741  17.120 -0.0855 -0.0623 -0.2981
 2397TIP3    H131386   8.459   7.674  17.127  0.7309  0.6150 -1.3621
 2397TIP3    H231387   8.320   7.709  17.176 -0.3816 -2.6180 -1.9354
 2398TIP3   OH231388   3.026   3.529  16.115  0.4253 -0.0471  0.4445
 2398TIP3    H131389   2.935   3.519  16.085  0.6960  1.0489 -0.8298
 2398TIP3    H231390   3.068   3.446  16.094 -0.1481 -0.3839  0.5943
 2399TIP3   OH231391   1.591   0.756  17.177 -0.0406 -1.1421  0.3243
 2399TIP3    H131392   1.683   0.768  17.202 -0.3030 -0.0882  0.8687
 2399TIP3    H231393   1.552   0.843  17.190 -0.6189 -0.9718 -2.0401
 2400TIP3   OH231394   3.871   3.924  17.160 -0.2020  0.4787  0.1400
 2400TIP3    H131395   3.839   3.949  17.073 -1.4077 -0.2960  0.3463
 2400TIP3    H231396   3.947   3.981  17.174  0.2590  0.3653 -1.5787
 2401TIP3   OH231397   6.163   0.485  17.109  0.0122 -0.6214  0.3499
 2401TIP3    H131398   6.226   0.554  17.129  0.6992 -0.8544 -0.9102
 2401TIP3    H231399   6.126   0.461  17.194  2.0788 -0.9240  1.2184
 2402TIP3   OH231400   5.387   3.973  16.831 -0.6141 -0.0398  0.2733
 2402TIP3    H131401   5.375   4.029  16.754 -0.5801 -1.2251 -0.6238
 2402TIP3    H231402   5.333   4.014  16.899  0.1758  1.6159 -0.0465
 2403TIP3   OH231403   5.295   7.365  17.330  0.2173 -0.0599  0.4711
 2403TIP3    H131404   5.230   7.343  17.396  0.1149  0.8397  0.6927
 2403TIP3    H231405   5.369   7.399  17.381  0.9394 -1.2473  0.2350
 2404TIP3   OH231406   6.319   1.129  16.705 -0.4584  0.3044 -0.8227
 2404TIP3    H131407   6.313   1.036  16.728  1.9038  0.5414  1.1966
 2404TIP3    H231408   6.347   1.129  16.613 -2.3039 -0.8812 -1.4416
 2405TIP3   OH231409   4.583   2.627  17.707  0.1235 -0.2174  0.4777
 2405TIP3    H131410   4.677   2.629  17.722  0.1606 -0.7009  0.3383
 2405TIP3    H231411   4.552   2.712  17.737  0.6598  0.0996  0.1571
 2406TIP3   OH231412   5.103   0.703  17.737 -0.4518 -0.4966 -0.3990
 2406TIP3    H131413   5.198   0.694  17.727 -0.3850 -1.6309  0.9447
 2406TIP3    H231414   5.072   0.613  17.749 -1.9492 -0.3637 -2.5279
 2407TIP3   OH231415   5.338   2.600  17.046  0.3018 -0.5684 -0.1433
 2407TIP3    H131416   5.252   2.639  17.038  1.4697  1.8093 -2.8192
 2407TIP3    H231417   5.330   2.514  17.005 -0.6475 -0.1119 -0.9461
 2408TIP3   OH231418   1.942   8.569  15.938 -0.5497  0.2616 -0.4409
 2408TIP3    H131419   1.873   8.515  15.899  0.9969 -1.0396 -1.5398
 2408TIP3    H231420   1.994   8.507  15.990  2.0399  0.2999 -2.7614
 2409TIP3   OH231421   0.476   2.139  16.222  0.6211  0.2016 -0.0871
 2409TIP3    H131422   0.423   2.211  16.257 -1.7575 -1.7244  0.5339
 2409TIP3    H231423   0.566   2.160  16.248 -0.3910  1.4305  2.7535
 2410TIP3   OH231424   1.710   4.644  17.384 -0.1118 -0.0602  0.5721
 2410TIP3    H131425   1.620   4.610  17.381  0.4711 -1.7082  0.8821
 2410TIP3    H231426   1.761   4.583  17.331  1.4670 -1.4014  3.3966
 2411TIP3   OH231427   0.841   9.142  17.424 -0.4563 -0.0960  0.2342
 2411TIP3    H131428   0.784   9.208  17.384 -0.9302  0.0126  1.0753
 2411TIP3    H231429   0.849   9.169  17.515 -0.4248 -1.0453  0.5229
 2412TIP3   OH231430   7.309   8.155  16.120  0.4793  0.2634  0.0514
 2412TIP3    H131431   7.285   8.063  16.131 -0.9408  0.8245  2.3452
 2412TIP3    H231432   7.261   8.183  16.043 -1.3178 -0.2689  0.9109
 2413TIP3   OH231433   6.752   2.882  16.421 -0.0560 -0.5262  0.1165
 2413TIP3    H131434   6.722   2.922  16.339  0.2524  0.4971  0.4794
 2413TIP3    H231435   6.846   2.871  16.409 -0.0175 -0.4127  0.3184
 2414TIP3   OH231436   6.738   3.676  16.746 -0.1766  0.4734 -0.3002
 2414TIP3    H131437   6.650   3.702  16.773 -1.4184 -2.8238 -0.7584
 2414TIP3    H231438   6.731   3.663  16.651  1.2002  1.3574 -0.5546
 2415TIP3   OH231439   2.518   3.047  16.237  0.6543  0.1037 -0.1016
 2415TIP3    H131440   2.443   2.990  16.218  1.6037 -0.3355 -3.0007
 2415TIP3    H231441   2.581   2.988  16.279  0.0757  0.0401  0.6958
 2416TIP3   OH231442   3.549   5.843  16.841  0.1897 -0.7962  0.6506
 2416TIP3    H131443   3.456   5.851  16.861 -0.1053 -2.2857  0.0345
 2416TIP3    H231444   3.556   5.872  16.750  0.2023 -1.2971  0.4877
 2417TIP3   OH231445   4.467   3.781  17.477  0.5728  0.6329 -0.2780
 2417TIP3    H131446   4.444   3.698  17.519  1.4708 -0.2397 -1.4481
 2417TIP3    H231447   4.386   3.833  17.482  0.0431 -0.2367  0.6130
 2418TIP3   OH231448   1.074   7.687  16.878  0.7640 -0.1348 -0.1667
 2418TIP3    H131449   1.010   7.616  16.868  0.6650  0.0558 -1.0025
 2418TIP3    H231450   1.119   7.689  16.793  2.0821 -0.4537  0.5036
 2419TIP3   OH231451   3.241   5.142  17.011 -0.3410 -0.0158  0.0706
 2419TIP3    H131452   3.329   5.178  16.999 -0.5750  0.3488 -0.6117
 2419TIP3    H231453   3.182   5.216  16.996 -0.7495 -0.0565  1.3802
 2420TIP3   OH231454   6.589   1.762  16.476 -0.1717  0.1476  0.5369
 2420TIP3    H131455   6.647   1.787  16.404 -1.3408  1.3870 -0.0024
 2420TIP3    H231456   6.579   1.667  16.467 -1.0714  0.3897 -1.5580
 2421TIP3   OH231457   6.888   3.208  17.526  0.0272  0.0344 -0.5202
 2421TIP3    H131458   6.820   3.247  17.580 -0.3451  1.5589 -1.9902
 2421TIP3    H231459   6.877   3.249  17.440  0.8691 -1.9444 -1.6466
 2422TIP3   OH231460   5.529   3.538  16.867  0.3697 -0.4213 -0.3075
 2422TIP3    H131461   5.579   3.614  16.840  1.5979 -0.7127  0.9974
 2422TIP3    H231462   5.579   3.463  16.833 -0.5460 -0.6713 -1.1364
 2423TIP3   OH231463   2.014   7.527  17.228 -0.2292  0.3187 -0.3791
 2423TIP3    H131464   1.982   7.438  17.240 -1.5397  1.0567  2.9132
 2423TIP3    H231465   2.091   7.533  17.285 -1.2924  1.7382  0.9948
 2424TIP3   OH231466   0.550   2.752  17.211 -0.2227  0.3386  0.1952
 2424TIP3    H131467   0.473   2.790  17.253 -0.3160 -0.0218  0.3561
 2424TIP3    H231468   0.519   2.725  17.124 -0.4304 -0.3190  0.4648
 2425TIP3   OH231469   7.454   4.093  16.605  0.0345 -0.6846  0.5961
 2425TIP3    H131470   7.442   4.000  16.626 -1.3095 -0.9787 -1.2385
 2425TIP3    H231471   7.448   4.097  16.510 -1.7344  1.5101  0.7085
 2426TIP3   OH231472   2.709   3.211  17.630 -0.0723 -0.3114  0.1970
 2426TIP3    H131473   2.704   3.176  17.541 -0.6915 -0.1924  0.1852
 2426TIP3    H231474   2.673   3.141  17.685  0.1610 -0.3212  0.3381
 2427TIP3   OH231475   4.531   7.808  16.193 -0.4341 -0.2004  0.2419
 2427TIP3    H131476   4.599   7.839  16.133 -0.0397 -0.2001  0.6859
 2427TIP3    H231477   4.456   7.865  16.177  0.0247  0.4746  0.5087
 2428TIP3   OH231478   3.755   0.856  16.560  0.4011  0.3673 -0.1311
 2428TIP3    H131479   3.817   0.784  16.554 -1.1047 -1.1169  1.0759
 2428TIP3    H231480   3.786   0.909  16.632  0.5810 -0.0562  0.1038
 2429TIP3   OH231481   2.952   6.306  15.939  0.3474  0.0308 -0.2190
 2429TIP3    H131482   2.916   6.383  15.894  1.0584  0.7514  0.4059
 2429TIP3    H231483   2.967   6.242  15.870 -1.3106  0.0048 -0.6182
 2430TIP3   OH231484   1.837   0.233  17.522 -0.1988 -0.2479  0.6830
 2430TIP3    H131485   1.873   0.189  17.599 -0.7578  0.5236  1.4019
 2430TIP3    H231486   1.751   0.264  17.550 -0.2148  0.4450 -0.1094
 2431TIP3   OH231487   6.487   3.354  16.959 -0.3450 -0.2226  0.5385
 2431TIP3    H131488   6.410   3.374  17.012  0.0036  0.6027  0.7508
 2431TIP3    H231489   6.541   3.433  16.965 -0.8638  0.4029 -2.0670
 2432TIP3   OH231490   8.956   3.239  17.592  0.3269  0.3780  0.0043
 2432TIP3    H131491   8.942   3.261  17.500  0.3169  0.8208  0.1063
 2432TIP3    H231492   8.874   3.198  17.620  0.6144 -0.4842 -0.3881
 2433TIP3   OH231493   2.861   2.514  17.183  0.9962  0.4111  0.0073
 2433TIP3    H131494   2.789   2.460  17.213  0.2720  1.7319  0.7211
 2433TIP3    H231495   2.896   2.554  17.263  1.5797  0.9118 -0.4896
 2434TIP3   OH231496   0.083   5.790  16.842  0.4710  0.5748 -0.7787
 2434TIP3    H131497   0.125   5.798  16.928  0.5303 -0.0136 -0.7489
 2434TIP3    H231498   0.108   5.702  16.812 -0.1701  0.4916 -1.0677
 2435TIP3   OH231499   8.118   6.127  15.955 -0.0902 -0.0907 -0.1336
 2435TIP3    H131500   8.057   6.105  15.885  0.6031  2.3372 -1.6249
 2435TIP3    H231501   8.199   6.152  15.910  1.7081 -2.1101  1.7288
 2436TIP3   OH231502   8.016   5.563  17.252  0.0737  0.1594 -0.0227
 2436TIP3    H131503   8.033   5.652  17.282 -0.7840  0.4872 -0.4701
 2436TIP3    H231504   7.999   5.513  17.333 -0.3915  0.6205  0.1726
 2437TIP3   OH231505   2.646   1.798  17.548 -0.1769  0.2885  0.1452
 2437TIP3    H131506   2.704   1.785  17.473  0.1157  0.4412  0.3434
 2437TIP3    H231507   2.560   1.767  17.518 -0.2427  1.0830 -0.5182
 2438TIP3   OH231508   4.659   5.903  17.335  0.1376 -0.1813 -0.2110
 2438TIP3    H131509   4.730   5.955  17.298 -0.3668  0.3829 -0.4155
 2438TIP3    H231510   4.580   5.937  17.292 -0.3600 -0.1351  0.7151
 2439TIP3   OH231511   4.054   6.514  15.796 -0.2101  0.2883  0.5004
 2439TIP3    H131512   4.079   6.543  15.708  1.0520  1.8542  1.3215
 2439TIP3    H231513   4.011   6.429  15.783  0.6065  0.1503 -1.5390
 2440TIP3   OH231514   5.783   8.050  17.828 -0.5182 -0.1027  0.1117
 2440TIP3    H131515   5.794   7.995  17.751 -0.3128  1.5098 -1.0502
 2440TIP3    H231516   5.870   8.055  17.867 -0.5993 -0.8268  0.3942
 2441TIP3   OH231517   1.149   5.196  16.250  0.0843  0.0349  0.1980
 2441TIP3    H131518   1.163   5.117  16.198 -2.8532 -0.5773  0.1459
 2441TIP3    H231519   1.237   5.228  16.269  1.3515 -2.3406 -1.1326
 2442TIP3   OH231520   4.860   2.668  17.702 -0.0211  0.7936  0.1541
 2442TIP3    H131521   4.927   2.621  17.751 -0.1437  0.3181 -0.1350
 2442TIP3    H231522   4.890   2.666  17.612 -0.4737  0.4847  0.0074
 2443TIP3   OH231523   5.251   6.767  15.812  0.0601  0.6368 -0.0141
 2443TIP3    H131524   5.311   6.695  15.790 -1.5555 -0.7784  0.0518
 2443TIP3    H231525   5.304   6.826  15.867  1.9802  0.4960 -1.5833
 2444TIP3   OH231526   5.302   9.123  16.320  0.7204  0.2668 -0.3556
 2444TIP3    H131527   5.366   9.104  16.388 -0.3628 -0.4402  0.4967
 2444TIP3    H231528   5.251   9.196  16.355  0.2199 -0.0402 -0.4301
 2445TIP3   OH231529   5.573   2.132  17.829  0.4549  0.2310  0.2506
 2445TIP3    H131530   5.595   2.039  17.820  0.4243  0.0630  1.6955
 2445TIP3    H231531   5.648   2.170  17.875  0.4899  0.9467 -0.3791
 2446TIP3   OH231532   8.261   5.236  17.411 -0.1679  0.1557 -0.0078
 2446TIP3    H131533   8.200   5.294  17.456 -1.5265 -0.6997 -0.6784
 2446TIP3    H231534   8.208   5.190  17.346  1.5128  0.6139 -1.8129
 2447TIP3   OH231535   0.778   8.392  17.116 -0.3173  0.4847 -0.4436
 2447TIP3    H131536   0.850   8.345  17.158 -1.5191  0.4081  1.6787
 2447TIP3    H231537   0.794   8.382  17.023  0.8462 -2.0044 -0.0582
 2448TIP3   OH231538   3.857   1.514  16.919  0.5465 -0.2463  0.2065
 2448TIP3    H131539   3.908   1.594  16.933 -0.3662  0.7702 -1.7755
 2448TIP3    H231540   3.878   1.458  16.993  0.4587  2.2274  2.2382
 2449TIP3   OH231541   0.139   8.847  16.511 -0.1772 -0.1350  0.5277
 2449TIP3    H131542   0.147   8.904  16.434 -1.0289 -0.3617  0.2622
 2449TIP3    H231543   0.046   8.847  16.531 -0.4702 -2.7222 -0.4803
 2450TIP3   OH231544   9.021   5.335  17.349  0.3872 -0.6954 -0.0640
 2450TIP3    H131545   8.959   5.405  17.369 -0.6260 -2.5192  4.6743
 2450TIP3    H231546   9.107   5.377  17.351 -0.3415  0.9198 -0.9060
 2451TIP3   OH231547   4.124   3.451  16.783 -0.7048  0.0864 -0.3777
 2451TIP3    H131548   4.209   3.418  16.755 -0.6349  1.8525 -2.4282
 2451TIP3    H231549   4.062   3.413  16.721 -1.3605 -0.5183  0.6033
 2452TIP3   OH231550   1.376   5.120  16.516 -0.1316 -0.2765 -0.0277
 2452TIP3    H131551   1.385   5.174  16.437  2.3806 -0.6905 -0.0944
 2452TIP3    H231552   1.336   5.039  16.484  0.8732 -0.4434 -0.8899
 2453TIP3   OH231553   0.858   1.764  17.229 -0.3757  0.1962  0.3065
 2453TIP3    H131554   0.902   1.715  17.299 -1.3889  1.3961  1.8427
 2453TIP3    H231555   0.877   1.855  17.248 -0.4143  0.5383 -1.2006
 2454TIP3   OH231556   9.132   6.514  16.639  0.5005 -0.4215 -0.0629
 2454TIP3    H131557   9.135   6.426  16.603 -1.9416 -0.6673  0.1698
 2454TIP3    H231558   9.082   6.565  16.575 -0.7084  0.0238  1.1817
 2455TIP3   OH231559   2.361   5.958  16.055 -0.5865 -0.7559 -0.1259
 2455TIP3    H131560   2.446   5.973  16.096 -0.8198 -1.2940  0.5825
 2455TIP3    H231561   2.338   5.868  16.080 -1.2285 -0.7147 -0.5408
 2456TIP3   OH231562   3.725   1.253  16.072 -0.4093  0.0849  0.1620
 2456TIP3    H131563   3.673   1.196  16.129 -1.3007 -0.7740 -1.4159
 2456TIP3    H231564   3.816   1.237  16.098 -0.6565 -1.8458 -0.0156
 2457TIP3   OH231565   5.600   3.973  16.992 -0.3896 -1.0037  0.0661
 2457TIP3    H131566   5.649   4.052  17.014 -0.1855 -1.2374  0.4599
 2457TIP3    H231567   5.534   4.002  16.929  0.0417 -0.6241 -0.2203
 2458TIP3   OH231568   5.539   4.102  17.616  0.2583  0.1819  0.2176
 2458TIP3    H131569   5.456   4.054  17.623  0.0237  0.7738  1.9287
 2458TIP3    H231570   5.513   4.191  17.591  0.1807  0.8041  2.3315
 2459TIP3   OH231571   7.735   7.911  16.719 -0.0588 -0.1250  0.2306
 2459TIP3    H131572   7.748   7.856  16.642  1.8623 -0.5403  0.7821
 2459TIP3    H231573   7.780   7.993  16.698 -1.7239  0.7728 -0.0418
 2460TIP3   OH231574   3.666   2.145  17.147 -0.4324 -0.5458 -0.1724
 2460TIP3    H131575   3.617   2.222  17.117 -0.8285 -0.7465 -0.0540
 2460TIP3    H231576   3.678   2.092  17.068 -0.0114 -0.2856 -0.2870
 2461TIP3   OH231577   5.663   5.191  17.286  0.2639 -0.9630 -0.7862
 2461TIP3    H131578   5.637   5.100  17.291 -0.2439 -0.8656 -1.4898
 2461TIP3    H231579   5.668   5.210  17.192  0.5737 -0.3324 -0.6525
 2462TIP3   OH231580   2.912   6.558  16.182  0.0149  0.0875  0.2187
 2462TIP3    H131581   2.818   6.565  16.162  0.6186  1.7865 -2.4608
 2462TIP3    H231582   2.955   6.610  16.115  2.9069 -0.2994  1.6218
 2463TIP3   OH231583   7.946   0.321  16.738  0.5142 -0.5717 -0.0320
 2463TIP3    H131584   7.895   0.266  16.798 -0.2118  0.9242  0.7771
 2463TIP3    H231585   8.008   0.261  16.698  0.1346 -1.8792  1.2435
 2464TIP3   OH231586   6.675   5.424  16.435  0.2589  0.3120  0.2851
 2464TIP3    H131587   6.580   5.426  16.422  0.0109 -0.7324  1.7363
 2464TIP3    H231588   6.711   5.454  16.351 -1.3439  1.3993 -0.0567
 2465TIP3   OH231589   3.093   4.928  16.363 -0.0401  0.0335 -0.5743
 2465TIP3    H131590   2.999   4.914  16.372  0.1906 -1.6271 -0.3870
 2465TIP3    H231591   3.107   5.019  16.389 -1.3979 -0.1447  0.9589
 2466TIP3   OH231592   4.290   0.570  17.140 -0.1641 -0.2430 -0.0265
 2466TIP3    H131593   4.272   0.657  17.174  0.0212 -0.6335  1.1052
 2466TIP3    H231594   4.214   0.549  17.086 -0.5982  0.2692  0.3807
 2467TIP3   OH231595   5.845   0.805  16.255 -0.1861 -0.2615 -0.2884
 2467TIP3    H131596   5.905   0.739  16.219  0.1502 -0.6224  0.8737
 2467TIP3    H231597   5.900   0.860  16.310 -0.2448  1.7323 -2.0791
 2468TIP3   OH231598   4.687   2.876  16.875  0.0990  0.0893 -0.0063
 2468TIP3    H131599   4.761   2.876  16.935  0.3391 -1.8054 -0.2439
 2468TIP3    H231600   4.655   2.786  16.876 -2.2566  0.8531  0.1286
 2469TIP3   OH231601   5.853   2.548  17.241 -0.1371 -0.0109  0.8905
 2469TIP3    H131602   5.881   2.607  17.311  1.8299 -0.2030  0.3392
 2469TIP3    H231603   5.932   2.535  17.188 -1.5793  0.2145 -1.4291
 2470TIP3   OH231604   7.917   8.598  15.703 -0.3426  0.2184  0.3168
 2470TIP3    H131605   7.995   8.570  15.751  0.7550  0.6019 -1.1896
 2470TIP3    H231606   7.845   8.554  15.748  0.7958 -0.6957  1.3231
 2471TIP3   OH231607   0.115   5.716  17.551  0.1929 -0.3649  0.2546
 2471TIP3    H131608   0.124   5.714  17.646 -0.5215  0.4526  0.3433
 2471TIP3    H231609   0.190   5.768  17.521  1.4497 -2.1025  0.2057
 2472TIP3   OH231610   0.252   5.056  17.714  0.0228 -0.4846 -0.1516
 2472TIP3    H131611   0.265   4.969  17.752 -0.1595 -0.3497  0.2239
 2472TIP3    H231612   0.216   5.039  17.627 -3.9910 -0.8080  1.3679
 2473TIP3   OH231613   8.930   7.876  16.879  0.8994  0.0114  0.4583
 2473TIP3    H131614   9.006   7.896  16.932  0.9337 -0.8529  0.7567
 2473TIP3    H231615   8.907   7.959  16.837  1.2322  0.5688  1.3496
 2474TIP3   OH231616   6.328   2.062  17.428  0.0365 -0.7232  0.6629
 2474TIP3    H131617   6.272   1.988  17.408  1.6492 -2.1957  1.3908
 2474TIP3    H231618   6.412   2.041  17.386  1.7224 -1.2013  3.9781
 2475TIP3   OH231619   7.491   6.044  16.317  0.0418  0.4490 -0.7193
 2475TIP3    H131620   7.523   6.134  16.316  0.6457  0.3395 -4.1708
 2475TIP3    H231621   7.458   6.029  16.228  0.0946 -2.7960 -0.3242
 2476TIP3   OH231622   6.670   8.199  17.352  0.1840  0.8335 -0.4714
 2476TIP3    H131623   6.583   8.170  17.322 -0.9365  1.0337  2.3082
 2476TIP3    H231624   6.730   8.131  17.321 -1.1908 -0.1514 -1.0721
 2477TIP3   OH231625   4.004   8.666  16.230 -0.4002 -0.0985 -0.2788
 2477TIP3    H131626   3.995   8.630  16.318  0.2002 -0.4466 -0.3503
 2477TIP3    H231627   4.033   8.756  16.243  0.8524 -0.5085 -0.1258
 2478TIP3   OH231628   1.402   0.524  17.710 -0.2290  0.5065  0.2107
 2478TIP3    H131629   1.389   0.461  17.781  0.4884 -0.1781 -0.2472
 2478TIP3    H231630   1.358   0.603  17.740 -0.0950  0.1729  1.3410
 2479TIP3   OH231631   2.059   7.260  16.226 -0.2769  0.0004 -0.0573
 2479TIP3    H131632   2.041   7.346  16.264  0.4130 -0.1483  0.6257
 2479TIP3    H231633   2.092   7.279  16.138  3.7024  0.7305  1.4121
 2480TIP3   OH231634   1.142   2.673  16.387 -0.4472 -0.3558  0.3658
 2480TIP3    H131635   1.111   2.606  16.447 -0.3261  0.4033  1.2852
 2480TIP3    H231636   1.235   2.652  16.376 -0.6822 -1.0926 -0.3741
 2481TIP3   OH231637   3.285   7.490  16.641 -0.4245 -0.2473 -0.3078
 2481TIP3    H131638   3.204   7.469  16.687  0.2161  0.2114  1.0830
 2481TIP3    H231639   3.331   7.549  16.700  0.7375 -0.1659 -1.2651
 2482TIP3   OH231640   8.961   6.422  17.566 -0.0203 -0.0696 -0.0556
 2482TIP3    H131641   8.935   6.390  17.480 -2.3542 -0.7008  0.8081
 2482TIP3    H231642   8.935   6.353  17.627  1.7982  0.2512  1.1794
 2483TIP3   OH231643   2.298   2.337  16.909  0.2152 -0.2034 -0.0595
 2483TIP3    H131644   2.296   2.242  16.905  1.7215 -0.3005  0.5147
 2483TIP3    H231645   2.378   2.357  16.959  0.0368  1.3568 -0.3381
 2484TIP3   OH231646   2.704   7.691  16.186 -0.2751 -0.2218  0.4346
 2484TIP3    H131647   2.661   7.608  16.163 -1.5547  0.1408  1.4522
 2484TIP3    H231648   2.684   7.749  16.113  1.7594 -1.1389 -0.9551
 2485TIP3   OH231649   2.319   2.354  16.210  0.9006  0.2216  0.0875
 2485TIP3    H131650   2.338   2.437  16.166 -0.8003 -0.4736 -2.1180
 2485TIP3    H231651   2.268   2.380  16.288  3.0528  1.3914  1.2073
 2486TIP3   OH231652   5.661   3.509  16.260 -0.7570 -0.2909 -0.1360
 2486TIP3    H131653   5.610   3.582  16.294  0.1374  1.4739 -2.3306
 2486TIP3    H231654   5.677   3.531  16.168  0.0096 -3.0103 -0.7507
 2487TIP3   OH231655   0.057   0.553  17.741  0.5660  0.6918 -0.1884
 2487TIP3    H131656   0.128   0.490  17.749  0.5978  0.8479  1.0647
 2487TIP3    H231657  -0.023   0.501  17.749  0.5983  0.8339  1.2846
 2488TIP3   OH231658   4.631   5.082  16.850 -0.4455  0.2506  0.0571
 2488TIP3    H131659   4.632   5.056  16.758  0.7521  1.2575 -0.2456
 2488TIP3    H231660   4.567   5.153  16.854  2.7452  3.4630 -1.0524
 2489TIP3   OH231661   9.133   5.807  17.837 -0.3342 -0.1211 -0.4661
 2489TIP3    H131662   9.056   5.790  17.891 -0.5371  0.7155 -0.4760
 2489TIP3    H231663   9.100   5.864  17.767  0.2514  0.0772 -0.5822
 2490TIP3   OH231664   4.472   7.355  16.321  0.3947  0.1027  0.5619
 2490TIP3    H131665   4.394   7.340  16.375  0.2813  0.4294  0.4975
 2490TIP3    H231666   4.541   7.305  16.364  0.2827  0.2795  0.9625
 2491TIP3   OH231667   2.908   6.076  16.350 -0.3135 -0.1312 -0.2218
 2491TIP3    H131668   2.978   6.127  16.390 -1.0638  0.8720 -0.1696
 2491TIP3    H231669   2.843   6.140  16.321 -0.5377 -0.9379 -1.6178
 2492TIP3   OH231670   6.182   6.792  17.181 -0.8977  0.1620  0.4719
 2492TIP3    H131671   6.220   6.766  17.098 -1.1164  0.6577  0.2094
 2492TIP3    H231672   6.232   6.744  17.247  0.0025  0.5928  0.1214
 2493TIP3   OH231673   2.133   4.640  16.397  0.5849  0.0994  0.3239
 2493TIP3    H131674   2.144   4.590  16.316  0.5853  1.7564 -0.7549
 2493TIP3    H231675   2.038   4.650  16.406  0.6159  0.8772 -0.1175
 2494TIP3   OH231676   8.042   8.976  16.533 -0.8184 -0.4133 -0.8908
 2494TIP3    H131677   8.120   8.998  16.483 -0.6044 -0.5755 -0.6317
 2494TIP3    H231678   8.007   8.898  16.491 -0.4590 -0.7369 -0.5945
 2495TIP3   OH231679   8.329   0.574  16.776 -0.1056 -0.7476 -0.4635
 2495TIP3    H131680   8.264   0.631  16.737 -0.5146 -2.1768 -1.9781
 2495TIP3    H231681   8.413   0.616  16.758 -0.4610 -0.1195 -0.6573
 2496TIP3   OH231682   1.472   5.943  17.266 -0.4551  0.4451 -0.1456
 2496TIP3    H131683   1.404   5.989  17.217 -0.0309  3.0003  1.4737
 2496TIP3    H231684   1.436   5.933  17.354 -1.2199 -4.0748 -0.7470
 2497TIP3   OH231685   7.172   4.536  16.814  0.3801  0.4937 -0.3271
 2497TIP3    H131686   7.083   4.569  16.803 -0.3706 -0.9272  1.2240
 2497TIP3    H231687   7.203   4.522  16.724 -0.4751  2.1210 -0.9308
 2498TIP3   OH231688   4.177   3.877  15.931  0.2597  0.0592  0.2165
 2498TIP3    H131689   4.181   3.826  16.013  0.1177  0.2798  0.3612
 2498TIP3    H231690   4.193   3.967  15.959  0.6882  0.0715 -0.0623
 2499TIP3   OH231691   2.002   1.103  17.097 -0.4832 -0.3575  0.0952
 2499TIP3    H131692   2.037   1.024  17.138 -1.6386 -0.9882 -0.0789
 2499TIP3    H231693   2.050   1.112  17.015  1.8333  0.8940  1.4774
 2500TIP3   OH231694   1.512   2.859  16.987  0.1626 -0.4573  0.1524
 2500TIP3    H131695   1.479   2.909  16.912  1.7859  0.7454  0.1736
 2500TIP3    H231696   1.474   2.772  16.977 -0.0985 -0.1654 -1.7602
 2501TIP3   OH231697   5.638   6.879  17.103 -0.0905  0.3588 -0.2188
 2501TIP3    H131698   5.733   6.878  17.091 -0.2052  0.8200 -1.3154
 2501TIP3    H231699   5.607   6.949  17.045 -1.0584  0.5012  0.4475
 2502TIP3   OH231700   7.504   2.574  17.927  0.5278  0.1142  0.3491
 2502TIP3    H131701   7.425   2.520  17.932  0.2951  0.4459  0.3234
 2502TIP3    H231702   7.493   2.625  17.847 -0.1675  1.5706  1.3103
 2503TIP3   OH231703   1.768   2.263  16.693  0.1428  0.5682 -0.0273
 2503TIP3    H131704   1.777   2.276  16.599  0.3663  0.0646 -0.0764
 2503TIP3    H231705   1.825   2.330  16.733 -1.6199  2.2676 -0.1874
 2504TIP3   OH231706   2.734   8.701  16.121 -0.0349  0.5403 -0.1397
 2504TIP3    H131707   2.671   8.753  16.072  0.9563 -0.1950 -2.3016
 2504TIP3    H231708   2.819   8.731  16.090  0.6031 -0.7507  0.3029
 2505TIP3   OH231709   4.324   7.123  16.249 -0.4033  0.3201 -0.3363
 2505TIP3    H131710   4.386   7.095  16.181 -0.1131  1.5629 -0.6179
 2505TIP3    H231711   4.327   7.218  16.245 -0.0137  0.4375  1.7598
 2506TIP3   OH231712   6.777   0.736  17.055 -0.6320 -0.4705  0.2764
 2506TIP3    H131713   6.728   0.761  16.976 -1.7341 -1.0104  0.7635
 2506TIP3    H231714   6.736   0.788  17.125  2.2227  2.2611  0.1438
 2507TIP3   OH231715   3.801   8.974  16.155  0.4284  0.4917  0.0646
 2507TIP3    H131716   3.776   9.018  16.237  0.7984  2.1308 -0.6715
 2507TIP3    H231717   3.897   8.976  16.155  0.4619 -0.4616  0.0632
 2508TIP3   OH231718   5.240   5.681  16.907  0.0909  0.1367 -0.0927
 2508TIP3    H131719   5.269   5.701  16.996  2.1150 -1.4549 -0.3170
 2508TIP3    H231720   5.215   5.588  16.910 -0.8926  0.3473 -0.9607
 2509TIP3   OH231721   0.920   8.565  16.702  0.4379  0.0284  0.2026
 2509TIP3    H131722   0.854   8.504  16.670 -1.6522  1.2281  1.9286
 2509TIP3    H231723   0.967   8.516  16.769 -0.7964  0.0520  1.1290
 2510TIP3   OH231724   8.337   8.783  16.713  0.0318  0.1563  0.3151
 2510TIP3    H131725   8.311   8.734  16.635 -1.8220  0.4490  0.6969
 2510TIP3    H231726   8.406   8.730  16.753 -0.5800 -1.1621 -0.3145
 2511TIP3   OH231727   4.944   9.032  16.105  0.3596  0.1460  0.0509
 2511TIP3    H131728   4.969   9.116  16.143 -0.7574  0.3022  0.4633
 2511TIP3    H231729   5.002   8.968  16.147 -0.4547  0.3895  1.6299
 2512TIP3   OH231730   7.021   6.568  16.762 -0.6415  0.3901  0.5077
 2512TIP3    H131731   6.941   6.519  16.781 -0.2401 -0.1620  0.7997
 2512TIP3    H231732   6.997   6.660  16.775 -1.2477  0.2343  0.5144
 2513TIP3   OH231733   0.787   8.043  17.354 -0.3314  0.1510  0.1254
 2513TIP3    H131734   0.744   7.975  17.302 -0.4695  0.4381 -0.1387
 2513TIP3    H231735   0.829   8.100  17.289 -2.0934  1.6107  0.1772
 2514TIP3   OH231736   5.161   9.058  16.888 -0.4047  0.2106 -0.2392
 2514TIP3    H131737   5.240   9.008  16.904 -1.3241 -1.3554 -0.3481
 2514TIP3    H231738   5.134   9.033  16.799 -1.1903  0.4841 -0.0893
 2515TIP3   OH231739   4.764   7.488  16.291 -0.0324 -0.5241 -0.4462
 2515TIP3    H131740   4.697   7.480  16.223 -1.4558 -1.6557  0.9975
 2515TIP3    H231741   4.837   7.435  16.260 -0.6989 -1.1179 -1.0517
 2516TIP3   OH231742   8.144   3.453  17.843  0.2641  0.3562  0.1019
 2516TIP3    H131743   8.141   3.496  17.929  1.2700  0.2559  0.1971
 2516TIP3    H231744   8.053   3.428  17.826 -0.6482  3.6997 -0.5744
 2517TIP3   OH231745   1.622   1.810  16.713  0.1458  0.2871  0.7230
 2517TIP3    H131746   1.570   1.826  16.792 -0.2629 -0.8404  0.7035
 2517TIP3    H231747   1.584   1.868  16.648 -0.8575 -0.2287  0.8230
 2518TIP3   OH231748   6.287   8.401  17.743 -0.1799 -0.2235  0.0080
 2518TIP3    H131749   6.376   8.406  17.778  0.3603 -0.6272 -1.2504
 2518TIP3    H231750   6.257   8.492  17.742  0.1872 -0.0913  0.5206
 2519TIP3   OH231751   8.800   5.720  17.840  0.0289 -0.4201  0.1449
 2519TIP3    H131752   8.833   5.674  17.762  0.0971  1.0301 -0.7211
 2519TIP3    H231753   8.742   5.657  17.882  0.1515 -1.3174 -0.9752
 2520TIP3   OH231754   8.196   4.480  16.660  0.0961 -0.1867  0.3130
 2520TIP3    H131755   8.250   4.402  16.645 -0.0366 -0.1722 -0.2764
 2520TIP3    H231756   8.246   4.551  16.618 -0.9116 -0.3622 -1.2933
 2521TIP3   OH231757   4.676   8.346  17.323 -0.4873  0.2653  0.2405
 2521TIP3    H131758   4.766   8.367  17.299 -1.0784  2.4026 -0.3840
 2521TIP3    H231759   4.664   8.387  17.409 -0.7577 -0.3229  0.4861
 2522TIP3   OH231760   6.850   6.366  16.795 -0.6939 -0.3658 -0.5381
 2522TIP3    H131761   6.925   6.315  16.766 -0.1129  0.4325 -0.4662
 2522TIP3    H231762   6.781   6.301  16.809  0.3679 -1.2851  0.6977
 2523TIP3   OH231763   4.637   6.801  16.343  0.6376 -0.7723 -0.2713
 2523TIP3    H131764   4.649   6.707  16.360  2.0395 -0.9420 -1.8832
 2523TIP3    H231765   4.584   6.804  16.263  0.4606 -0.1760 -0.1392
 2524TIP3   OH231766   7.893   0.603  16.345 -0.2855 -0.0008  0.4453
 2524TIP3    H131767   7.871   0.523  16.298  1.6365 -0.1951 -0.2255
 2524TIP3    H231768   7.884   0.580  16.438  0.6328 -1.1276  0.2705
 2525TIP3   OH231769   5.558   3.683  17.363  0.3228 -0.7474  0.1123
 2525TIP3    H131770   5.510   3.719  17.289 -1.1642 -0.1302  1.3223
 2525TIP3    H231771   5.634   3.640  17.324 -0.5838 -0.7220 -1.7758
 2526TIP3   OH231772   8.339   4.002  16.544  0.2166 -0.1730 -0.2120
 2526TIP3    H131773   8.402   3.938  16.510 -0.4364 -0.3897 -1.0406
 2526TIP3    H231774   8.270   4.005  16.478 -0.9127 -0.3328  0.9218
 2527TIP3   OH231775   9.175   7.868  15.703 -0.1741 -0.5648 -0.0237
 2527TIP3    H131776   9.159   7.902  15.790 -2.7047  2.1640 -1.3951
 2527TIP3    H231777   9.124   7.787  15.698 -0.0436 -0.7155  0.9689
 2528TIP3   OH231778   7.870   6.372  17.491  0.2966 -0.4271  0.0767
 2528TIP3    H131779   7.805   6.373  17.562  0.6879  0.1113  0.4291
 2528TIP3    H231780   7.884   6.464  17.469  0.5519 -0.5664 -0.3606
 2529TIP3   OH231781   2.255   4.738  16.649 -0.3158 -0.2294  0.4001
 2529TIP3    H131782   2.207   4.745  16.566  0.4229  0.8562  0.0413
 2529TIP3    H231783   2.283   4.647  16.653  0.7125 -0.0179 -1.1654
 2530TIP3   OH231784   1.674   6.072  17.098 -0.7418  0.5513 -0.1741
 2530TIP3    H131785   1.638   6.020  17.170  0.6056 -0.5060 -0.2230
 2530TIP3    H231786   1.639   6.031  17.019 -0.5048  0.3598 -0.1817
 2531TIP3   OH231787   1.114   5.385  17.534 -0.4677 -0.1500  0.1190
 2531TIP3    H131788   1.178   5.436  17.584 -0.7737 -0.1970  0.5637
 2531TIP3    H231789   1.167   5.334  17.473 -0.0549 -0.4144  0.6839
 2532TIP3   OH231790   5.536   6.756  16.362  0.0447 -0.0221 -0.0808
 2532TIP3    H131791   5.465   6.792  16.414  0.2542 -1.0408  0.9389
 2532TIP3    H231792   5.555   6.671  16.401  0.6856 -0.5163 -1.3881
 2533TIP3   OH231793   1.663   6.204  16.143  0.0153  0.1477 -0.4922
 2533TIP3    H131794   1.677   6.282  16.090  1.7788 -1.0077 -1.8331
 2533TIP3    H231795   1.693   6.229  16.231 -0.7744  1.3830 -0.5600
 2534TIP3   OH231796   4.989   8.428  17.768  0.1101 -0.1826  0.0459
 2534TIP3    H131797   5.079   8.403  17.790  0.1004 -0.2203  0.0412
 2534TIP3    H231798   4.993   8.523  17.757  0.0209 -0.1085  0.6455
 2535TIP3   OH231799   6.911   2.004  17.769 -0.0730 -0.9933 -0.2302
 2535TIP3    H131800   6.846   1.975  17.833  0.5007 -0.6353  0.5293
 2535TIP3    H231801   6.960   1.925  17.746 -1.4781 -1.4943 -1.6689
 2536TIP3   OH231802   6.639   3.406  17.964 -0.0500  0.5692 -0.4482
 2536TIP3    H131803   6.600   3.462  17.896  0.1787  0.0708 -0.9992
 2536TIP3    H231804   6.568   3.391  18.026 -0.4054  0.6230 -0.8355
 2537TIP3   OH231805   7.484   8.527  17.003  0.1338 -0.1660  0.1795
 2537TIP3    H131806   7.446   8.518  17.091  0.4308  0.3953  0.3739
 2537TIP3    H231807   7.552   8.460  16.999 -0.5589 -0.8723 -0.0031
 2538TIP3   OH231808   9.173   8.767  17.628 -0.0997 -0.2541  0.3508
 2538TIP3    H131809   9.116   8.763  17.704 -1.6625 -2.9007 -0.7996
 2538TIP3    H231810   9.226   8.687  17.634 -0.8019 -0.9296 -1.6813
 2539TIP3   OH231811   5.496   7.178  17.679  0.0579  0.0815 -0.2622
 2539TIP3    H131812   5.433   7.129  17.626 -0.7486  0.1471  0.6183
 2539TIP3    H231813   5.547   7.110  17.723  1.3315  0.0005 -1.7395
 2540TIP3   OH231814   6.600   8.398  16.670 -0.4239  0.1068  0.3287
 2540TIP3    H131815   6.653   8.439  16.738 -1.4228  1.2652  0.4491
 2540TIP3    H231816   6.519   8.449  16.670 -0.3677  0.2539 -1.8796
 2541TIP3   OH231817   6.044   8.138  17.131  0.1427  0.6750  0.1334
 2541TIP3    H131818   5.999   8.057  17.107 -0.1144  0.7915  0.2217
 2541TIP3    H231819   6.073   8.124  17.221 -1.3040  1.2835  0.7184
 2542TIP3   OH231820   5.653   7.031  16.423 -0.2404  0.2723 -0.5504
 2542TIP3    H131821   5.610   6.947  16.443 -1.1291  0.8968  0.2576
 2542TIP3    H231822   5.587   7.083  16.379 -0.1475  1.0408  0.1844
 2543TIP3   OH231823   8.495   5.283  16.790  0.0069 -0.0526 -0.5548
 2543TIP3    H131824   8.498   5.293  16.695  0.0533 -2.1211 -0.8043
 2543TIP3    H231825   8.546   5.204  16.808  1.9310  1.4846  1.4377
 2544TIP3   OH231826   2.273   1.696  16.149 -0.0418  0.5438 -0.0310
 2544TIP3    H131827   2.213   1.734  16.084  1.1976  2.1337 -0.3362
 2544TIP3    H231828   2.309   1.772  16.195  0.7911 -0.4345  0.9876
 2545TIP3   OH231829   0.405   5.732  17.715  0.4341 -0.5313 -0.2877
 2545TIP3    H131830   0.394   5.731  17.620  0.8964  0.9755 -0.3828
 2545TIP3    H231831   0.330   5.781  17.748  1.3266  0.7218 -0.0668
 2546TIP3   OH231832   4.832   4.157  16.811 -0.2323  0.9597 -0.6193
 2546TIP3    H131833   4.807   4.106  16.734 -1.8173  2.1139 -0.9201
 2546TIP3    H231834   4.770   4.130  16.878  0.0235  1.2363 -0.2731
 2547TIP3   OH231835   9.043   3.352  16.938 -0.6240  0.2302 -0.4698
 2547TIP3    H131836   9.069   3.293  17.009  0.0309 -0.5926 -1.3593
 2547TIP3    H231837   9.114   3.416  16.933  0.1679 -0.6683 -1.4002
 2548TIP3   OH231838   0.869   5.426  17.416 -0.1371 -0.5257 -0.6554
 2548TIP3    H131839   0.957   5.429  17.454  0.9395 -0.1253 -3.0229
 2548TIP3    H231840   0.846   5.518  17.402 -2.1085 -0.4405  2.2779
 2549TIP3   OH231841   7.769   2.534  16.956  0.0438 -0.4186 -0.0054
 2549TIP3    H131842   7.705   2.506  16.891 -0.5477  2.0719 -0.6237
 2549TIP3    H231843   7.725   2.522  17.040  0.2542 -2.2674 -0.1197
 2550TIP3   OH231844   1.890   3.003  17.667 -0.3164 -0.4588  0.7016
 2550TIP3    H131845   1.931   2.981  17.583 -0.3466 -0.1880  0.6148
 2550TIP3    H231846   1.814   2.946  17.672 -0.4138 -0.3506  0.4622
 2551TIP3   OH231847   7.008   1.883  17.127  0.2216  0.0973  0.4168
 2551TIP3    H131848   6.970   1.914  17.045  0.4745  2.4055  1.0987
 2551TIP3    H231849   6.957   1.805  17.149 -3.0019  2.0237  0.3791
 2552TIP3   OH231850   0.777   5.708  17.468 -0.1393 -0.0742 -0.2651
 2552TIP3    H131851   0.739   5.677  17.550  1.0902  0.2086  0.4303
 2552TIP3    H231852   0.780   5.803  17.477  0.8090 -0.0916 -0.2516
 2553TIP3   OH231853   1.941   5.677  17.864  0.0455 -0.0829 -0.6747
 2553TIP3    H131854   1.902   5.621  17.931  0.2042 -0.1857 -0.6677
 2553TIP3    H231855   1.898   5.762  17.876 -1.9987 -0.8339 -2.2741
 2554TIP3   OH231856   5.699   3.112  17.759  0.2983 -0.0642 -0.1001
 2554TIP3    H131857   5.720   3.203  17.783 -0.8859  0.1122  0.3348
 2554TIP3    H231858   5.782   3.065  17.770  0.5886  0.6810  1.1305
 2555TIP3   OH231859   6.265   3.776  16.240  0.0493 -0.2177  0.2252
 2555TIP3    H131860   6.285   3.736  16.155 -3.3007 -0.6832 -0.4983
 2555TIP3    H231861   6.299   3.715  16.305  0.8102 -0.8950 -0.7765
 2556TIP3   OH231862   6.490   0.483  16.959  0.1790  0.3159 -0.8527
 2556TIP3    H131863   6.491   0.571  16.922  2.9006  0.8333  0.2238
 2556TIP3    H231864   6.446   0.493  17.044  0.4214  0.6349 -0.7615
 2557TIP3   OH231865   6.846   6.100  17.105 -0.4633 -0.0584 -0.2795
 2557TIP3    H131866   6.908   6.058  17.046  0.4854 -0.5206  1.0112
 2557TIP3    H231867   6.882   6.086  17.192 -2.7174 -0.9065  0.5735
 2558TIP3   OH231868   2.969   6.366  16.647  0.2784 -0.2000  0.6556
 2558TIP3    H131869   3.049   6.330  16.685 -0.7780 -1.3511  1.8895
 2558TIP3    H231870   2.901   6.303  16.670 -0.9675  0.6697 -0.4910
 2559TIP3   OH231871   8.658   8.292  16.221  0.4939 -0.2050 -0.1724
 2559TIP3    H131872   8.571   8.319  16.248  0.8231  1.8546 -0.9823
 2559TIP3    H231873   8.717   8.349  16.270  1.3436 -0.6934 -0.5960
 2560TIP3   OH231874   8.463   3.142  17.230 -0.8200  0.6768  0.1263
 2560TIP3    H131875   8.370   3.142  17.210 -0.4700 -3.1255 -2.6315
 2560TIP3    H231876   8.474   3.078  17.300 -0.2877  1.3271  0.6519
 2561TIP3   OH231877   3.209   6.936  17.003  0.5656  0.5421  0.6781
 2561TIP3    H131878   3.223   7.003  17.070 -0.1418  0.5810  0.8038
 2561TIP3    H231879   3.187   6.857  17.052  0.4419  0.4695  0.5061
 2562TIP3   OH231880   2.179   8.032  16.956  0.4642  0.6561 -0.4183
 2562TIP3    H131881   2.205   7.976  17.029  1.5866  3.4663  1.4981
 2562TIP3    H231882   2.097   8.073  16.986 -0.0787  0.4701 -1.5788
 2563TIP3   OH231883   2.636   0.563  17.346  0.0707  0.1787 -0.5571
 2563TIP3    H131884   2.708   0.501  17.345  1.2725  1.4987  0.3778
 2563TIP3    H231885   2.580   0.537  17.273  1.2560 -1.1393 -1.0278
 2564TIP3   OH231886   0.546   7.504  17.364 -0.4385  0.1540  0.1613
 2564TIP3    H131887   0.485   7.467  17.299 -0.0876 -2.3316  1.1076
 2564TIP3    H231888   0.489   7.551  17.425 -0.9908  0.8448 -0.8517
 2565TIP3   OH231889   1.663   8.354  16.684 -0.1597  0.1315  0.3636
 2565TIP3    H131890   1.577   8.313  16.671 -0.2132  0.2961  0.1946
 2565TIP3    H231891   1.675   8.409  16.607 -1.2713  2.5199  1.7470
 2566TIP3   OH231892   1.143   1.504  17.383 -0.3962 -0.8006 -0.6512
 2566TIP3    H131893   1.070   1.547  17.428 -0.3715 -1.9776  0.5669
 2566TIP3    H231894   1.169   1.567  17.315 -1.6399  0.2280 -0.2229
 2567TIP3   OH231895   8.838   1.969  17.321  0.2833  0.1017 -0.1677
 2567TIP3    H131896   8.746   1.981  17.297  0.0839 -2.5793 -0.9816
 2567TIP3    H231897   8.838   1.969  17.417 -0.2362  1.8825 -0.1188
 2568TIP3   OH231898   4.912   0.335  17.579  0.3106 -0.1531 -0.3240
 2568TIP3    H131899   4.924   0.297  17.492 -0.4110 -0.5904 -0.2444
 2568TIP3    H231900   4.834   0.292  17.613  0.2432  0.4474  0.3048
 2569TIP3   OH231901   6.267   4.677  17.177 -0.1337 -0.1280  0.5558
 2569TIP3    H131902   6.322   4.644  17.106 -2.0113  0.1952 -1.0967
 2569TIP3    H231903   6.185   4.629  17.169 -0.1432 -0.7086  3.0740
 2570TIP3   OH231904   1.296   1.057  17.029  0.3925 -0.1780 -0.2122
 2570TIP3    H131905   1.308   1.015  16.943 -2.2665 -1.1418 -0.2143
 2570TIP3    H231906   1.203   1.076  17.033  0.5133  0.1524  2.3627
 2571TIP3   OH231907   8.408   8.190  17.041 -0.3763 -0.0249 -0.1487
 2571TIP3    H131908   8.446   8.109  17.007  1.9135  0.4694  1.0389
 2571TIP3    H231909   8.430   8.189  17.135 -0.6216  1.7797 -0.0359
 2572TIP3   OH231910   1.275   2.887  16.186  0.4551 -0.3997 -0.8456
 2572TIP3    H131911   1.314   2.971  16.212 -1.3773 -0.1100  1.2750
 2572TIP3    H231912   1.208   2.911  16.121 -0.5890 -0.0870  0.3185
 2573TIP3   OH231913   3.982   8.267  17.097  0.0269 -0.0666 -0.5949
 2573TIP3    H131914   4.044   8.335  17.123 -0.5791  0.3458 -0.1963
 2573TIP3    H231915   4.031   8.211  17.038  1.3908 -0.8780  1.2165
 2574TIP3   OH231916   4.925   0.856  16.338 -0.1980 -0.1130 -0.3263
 2574TIP3    H131917   5.014   0.835  16.309 -0.8185 -1.4973 -1.3480
 2574TIP3    H231918   4.894   0.920  16.273 -0.4076 -0.6732 -0.7924
 2575TIP3   OH231919   7.879   8.114  16.595 -0.1573  0.9136  0.0759
 2575TIP3    H131920   7.954   8.086  16.542  0.2652  1.6864  0.2473
 2575TIP3    H231921   7.812   8.139  16.531  0.4195  2.0268 -0.1168
 2576TIP3   OH231922   1.104   7.299  17.787  0.5436  0.1258  0.4509
 2576TIP3    H131923   1.009   7.309  17.790  0.4596  0.8511 -2.1210
 2576TIP3    H231924   1.138   7.388  17.780  1.4012 -0.1618  0.7271
 2577TIP3   OH231925   6.184   0.134  17.235 -0.3041 -0.1000  0.0172
 2577TIP3    H131926   6.098   0.175  17.249 -0.5797 -0.7881  0.4109
 2577TIP3    H231927   6.236   0.162  17.310 -0.5101 -0.4963  0.3163
 2578TIP3   OH231928   8.031   2.604  16.918 -0.1434 -0.4186 -0.1979
 2578TIP3    H131929   7.943   2.567  16.914 -0.3805  0.2352 -1.7708
 2578TIP3    H231930   8.060   2.607  16.826  2.2308 -2.2715  0.3931
 2579TIP3   OH231931   8.624   5.208  17.588 -0.1879  0.3954  0.2389
 2579TIP3    H131932   8.594   5.199  17.498  1.4291 -2.0539 -0.1621
 2579TIP3    H231933   8.683   5.283  17.587 -0.7508  0.8333 -0.5713
 2580TIP3   OH231934   8.009   5.576  17.734 -0.0238 -0.4932 -0.4054
 2580TIP3    H131935   7.927   5.624  17.743  0.1236 -0.6114  2.1400
 2580TIP3    H231936   8.003   5.506  17.798  1.6603 -1.1315 -0.8928
 2581TIP3   OH231937   1.953   2.417  15.762 -0.1092  0.3907 -0.0500
 2581TIP3    H131938   2.048   2.405  15.751 -0.1775 -0.3337  0.0770
 2581TIP3    H231939   1.914   2.363  15.693 -0.4248  0.9418 -0.3046
 2582TIP3   OH231940   7.241   5.287  17.479 -0.1989 -0.6178 -0.5070
 2582TIP3    H131941   7.145   5.278  17.482 -0.0539 -2.0184  0.9165
 2582TIP3    H231942   7.264   5.266  17.389 -1.1101 -1.8542 -0.4775
 2583TIP3   OH231943   0.727   4.082  16.549 -0.2772 -0.7356 -0.3237
 2583TIP3    H131944   0.644   4.047  16.581  0.3829 -1.6838  0.4519
 2583TIP3    H231945   0.717   4.084  16.454 -1.9007  1.1102 -0.1676
 2584TIP3   OH231946   0.213   5.537  16.032 -0.3182  0.0435 -0.4468
 2584TIP3    H131947   0.178   5.625  16.026 -1.5560 -0.5255 -2.3356
 2584TIP3    H231948   0.308   5.548  16.021 -0.2799  1.2310  0.8191
 2585TIP3   OH231949   4.695   6.348  17.225 -1.1971 -0.0726  0.7764
 2585TIP3    H131950   4.738   6.418  17.274 -0.6607  0.2139 -0.0900
 2585TIP3    H231951   4.649   6.297  17.292 -2.4576  1.6947  1.3375
 2586TIP3   OH231952   3.484   8.826  17.471  0.1338  0.2523 -0.0246
 2586TIP3    H131953   3.393   8.856  17.467  0.0419 -0.1918 -1.8834
 2586TIP3    H231954   3.535   8.907  17.484 -0.3207  0.9627 -2.2363
 2587TIP3   OH231955   2.779   4.238  16.056 -0.0565 -0.8219 -0.1293
 2587TIP3    H131956   2.788   4.176  15.984 -0.8061 -1.1903  0.0854
 2587TIP3    H231957   2.802   4.323  16.017 -2.0165 -0.7489 -1.2589
 2588TIP3   OH231958   4.865   1.106  16.169  0.4308  0.0923 -0.2883
 2588TIP3    H131959   4.949   1.130  16.130  0.3187 -0.1780 -0.7101
 2588TIP3    H231960   4.818   1.062  16.098 -0.2737  0.7125 -0.2178
 2589TIP3   OH231961   3.462   4.457  17.386  0.5936 -0.2438 -0.4640
 2589TIP3    H131962   3.426   4.488  17.303  1.2869  0.5954 -0.4729
 2589TIP3    H231963   3.516   4.530  17.417 -0.5112 -0.1030  1.2758
 2590TIP3   OH231964   2.362   1.644  17.436  0.3131  0.7552  0.6795
 2590TIP3    H131965   2.266   1.642  17.428  0.4034 -1.8644 -0.9414
 2590TIP3    H231966   2.392   1.686  17.356  0.5241 -2.5074 -1.1301
 2591TIP3   OH231967   7.044   8.037  17.624 -0.8083  0.1232 -0.1834
 2591TIP3    H131968   7.126   7.995  17.649 -0.9716  0.9139  1.8127
 2591TIP3    H231969   7.033   8.014  17.531  0.9253 -1.1650 -0.1156
 2592TIP3   OH231970   3.450   7.617  17.901  0.1294  0.4737 -0.0442
 2592TIP3    H131971   3.447   7.538  17.847  0.6108  1.8330 -2.1804
 2592TIP3    H231972   3.542   7.627  17.924 -0.0218  0.0928  0.7359
 2593TIP3   OH231973   2.100   8.242  17.303 -0.3462 -0.2268  0.2089
 2593TIP3    H131974   2.135   8.169  17.353  1.1230  0.2985  0.0074
 2593TIP3    H231975   2.151   8.318  17.332 -0.9393  0.4808 -0.5268
 2594TIP3   OH231976   8.972   5.568  16.701  0.1800 -0.3351  0.0966
 2594TIP3    H131977   9.014   5.654  16.700  0.7284 -0.6051 -0.6154
 2594TIP3    H231978   9.017   5.518  16.633 -0.2027 -1.1576  0.4345
 2595TIP3   OH231979   6.478   0.704  16.315 -0.2322  0.1296  0.5633
 2595TIP3    H131980   6.512   0.788  16.345 -1.5049  0.4410  1.2223
 2595TIP3    H231981   6.556   0.649  16.304  0.7339  1.7057 -1.0087
 2596TIP3   OH231982   7.917   7.434  17.347 -0.4347  0.1877 -0.8424
 2596TIP3    H131983   8.002   7.475  17.365 -2.2541  3.3553  1.6750
 2596TIP3    H231984   7.898   7.384  17.427 -0.9045 -0.6198 -1.4474
 2597TIP3   OH231985   7.555   1.449  17.966  0.0995 -0.7133 -0.1511
 2597TIP3    H131986   7.611   1.475  18.039  0.6621  0.1540 -0.8729
 2597TIP3    H231987   7.559   1.353  17.966  1.1277 -0.6840  0.1652
 2598TIP3   OH231988   7.415   6.239  16.736 -0.1884  0.4462  0.3216
 2598TIP3    H131989   7.495   6.231  16.684  0.1591 -2.0437  1.1148
 2598TIP3    H231990   7.383   6.149  16.746 -3.1667  1.3667 -0.0223
 2599TIP3   OH231991   2.217   7.167  17.433  0.0935  0.9373 -0.2198
 2599TIP3    H131992   2.242   7.255  17.405 -0.3975  1.4311  0.8313
 2599TIP3    H231993   2.301   7.122  17.446  0.3482  1.2462 -0.7526
 2600TIP3   OH231994   2.923   7.531  17.063 -0.6156 -0.2941  0.3523
 2600TIP3    H131995   2.970   7.555  17.143  0.9667  0.6394 -0.8066
 2600TIP3    H231996   2.856   7.598  17.053 -0.1001  0.2260  0.3270
 2601TIP3   OH231997   1.176   4.854  16.802  0.2761 -0.1709  0.0934
 2601TIP3    H131998   1.236   4.804  16.748  0.9345 -1.1082  1.6498
 2601TIP3    H231999   1.146   4.925  16.744  1.7722 -0.4957 -1.1461
 2602TIP3   OH232000   2.335   7.807  17.447  0.0965  0.3632  0.6745
 2602TIP3    H132001   2.425   7.833  17.467 -0.1629  1.0864  0.9124
 2602TIP3    H232002   2.343   7.718  17.412  1.1465  1.2753 -1.5635
 2603TIP3   OH232003   3.199   3.704  15.565 -0.5611 -0.9254  0.2816
 2603TIP3    H132004   3.287   3.709  15.602 -1.2249  1.1297  1.7373
 2603TIP3    H232005   3.201   3.627  15.508  2.9087  0.4385 -1.6979
 2604TIP3   OH232006   7.166   3.294  17.835 -0.0184  0.6333 -0.3263
 2604TIP3    H132007   7.160   3.233  17.761  0.3424  1.4974 -1.0935
 2604TIP3    H232008   7.076   3.327  17.845 -0.2321 -0.0775  0.1467
 2605TIP3   OH232009   8.596   1.045  17.402 -0.2564 -0.1513 -0.5029
 2605TIP3    H132010   8.631   1.080  17.320  1.4237 -0.5033  0.0210
 2605TIP3    H232011   8.662   0.983  17.431 -2.2834 -2.4410 -0.4706
 2606TIP3   OH232012   2.068   1.157  16.415 -0.1544  0.3012  0.3790
 2606TIP3    H132013   2.023   1.075  16.396 -0.5391  0.8710 -1.2794
 2606TIP3    H232014   2.073   1.160  16.511 -1.7074 -0.7958  0.5229
 2607TIP3   OH232015   4.196   2.136  17.233  0.3993 -0.2517  0.1739
 2607TIP3    H132016   4.127   2.148  17.297 -1.1659 -0.5630 -1.3846
 2607TIP3    H232017   4.242   2.057  17.262  1.9185  1.4344  2.7216
 2608TIP3   OH232018   3.098   0.295  17.479  0.5576  0.5234 -0.4061
 2608TIP3    H132019   3.016   0.319  17.435 -0.5788 -0.2714  1.1797
 2608TIP3    H232020   3.130   0.219  17.430 -0.0488  0.3867 -0.6012
 2609TIP3   OH232021   0.113   0.642  17.184 -0.0563 -0.1074 -0.1152
 2609TIP3    H132022   0.092   0.550  17.201 -0.3106 -0.1332 -0.5447
 2609TIP3    H232023   0.097   0.686  17.268 -0.1427 -0.4175  0.0318
 2610TIP3   OH232024   6.525   8.858  17.023 -0.2656  0.1518  0.2134
 2610TIP3    H132025   6.566   8.779  16.988 -1.7230  0.4994 -2.5788
 2610TIP3    H232026   6.584   8.929  16.997  0.1769  0.1769  1.2270
 2611TIP3   OH232027   4.539   6.446  17.017 -0.4031  0.3869 -0.6781
 2611TIP3    H132028   4.594   6.399  17.079 -0.5923  1.4138  0.3091
 2611TIP3    H232029   4.522   6.384  16.947  0.6600 -0.4702 -0.1950
 2612TIP3   OH232030   0.814   3.049  17.476 -0.4623  0.0462  0.0287
 2612TIP3    H132031   0.776   3.001  17.550  0.4564  1.0296  1.1772
 2612TIP3    H232032   0.882   2.991  17.442 -0.9636 -0.4561 -0.1269
 2613TIP3   OH232033   2.732   4.351  16.804 -0.2329  0.2531  0.1318
 2613TIP3    H132034   2.657   4.404  16.775 -0.4451  0.1365  0.4605
 2613TIP3    H232035   2.808   4.406  16.789 -0.4187  0.5133  0.1370
 2614TIP3   OH232036   2.635   7.407  17.071 -0.2054 -0.5458 -0.1680
 2614TIP3    H132037   2.674   7.398  17.158 -0.0686  1.2049 -0.0148
 2614TIP3    H232038   2.706   7.440  17.016 -0.3091 -1.5861 -0.9558
 2615TIP3   OH232039   3.350   7.392  16.074  0.7822 -0.3498 -0.8043
 2615TIP3    H132040   3.359   7.297  16.062  1.3131 -0.4208  0.0921
 2615TIP3    H232041   3.436   7.427  16.051  1.4129 -0.3616  1.3342
 2616TIP3   OH232042   1.477   5.620  16.782  0.3350  0.2247 -0.1170
 2616TIP3    H132043   1.551   5.605  16.723  0.1933 -1.5257  0.0938
 2616TIP3    H232044   1.416   5.674  16.731  1.3208  0.8679 -0.6324
 2617TIP3   OH232045   8.895   7.311  17.496  0.4710  0.2463 -0.2921
 2617TIP3    H132046   8.966   7.252  17.473  0.4878  0.0490  0.2555
 2617TIP3    H232047   8.815   7.264  17.471  0.5007  0.1664 -0.2357
 2618TIP3   OH232048   4.146   8.693  17.346  0.4731 -0.2578 -0.5956
 2618TIP3    H132049   4.239   8.709  17.363  0.8411 -2.1785 -0.5824
 2618TIP3    H232050   4.118   8.768  17.293  2.2873 -0.1500 -1.4861
 2619TIP3   OH232051   5.630   8.740  16.217 -0.0607  0.1145  0.2806
 2619TIP3    H132052   5.702   8.678  16.229  0.7009  1.0252  0.4551
 2619TIP3    H232053   5.557   8.685  16.188  0.3025 -1.0131  1.4158
 2620TIP3   OH232054   2.174   4.478  16.934 -0.2842 -0.5386 -0.2844
 2620TIP3    H132055   2.184   4.572  16.920 -1.7623 -0.1391  1.0089
 2620TIP3    H232056   2.264   4.446  16.941  0.2543  1.0171  0.5751
 2621TIP3   OH232057   2.753   4.083  16.296 -0.3651  0.0393  0.4153
 2621TIP3    H132058   2.834   4.032  16.307 -1.1270 -0.9200  2.0133
 2621TIP3    H232059   2.768   4.135  16.217  0.5809 -2.4307 -1.1446
 2622TIP3   OH232060   3.335   4.648  16.131 -0.1834  0.0341 -0.3858
 2622TIP3    H132061   3.258   4.625  16.184  0.0577  1.4478  0.6358
 2622TIP3    H232062   3.403   4.589  16.161 -0.3481  0.0987  0.1348
 2623TIP3   OH232063   3.573   3.964  17.695 -0.8339  0.6339 -0.2945
 2623TIP3    H132064   3.621   3.952  17.612  0.3836  0.7490  0.3705
 2623TIP3    H232065   3.585   4.057  17.715 -0.6693  0.4905  0.2780
 2624TIP3   OH232066   3.990   5.085  17.324 -0.2000 -0.5265  0.1014
 2624TIP3    H132067   4.083   5.100  17.307 -0.7462  1.7122 -1.2245
 2624TIP3    H232068   3.963   5.158  17.380 -0.8388 -2.0711  1.9266
 2625TIP3   OH232069   7.556   4.624  16.603 -0.7066 -0.0167  0.3564
 2625TIP3    H132070   7.540   4.531  16.585  0.3338  0.0130 -0.8361
 2625TIP3    H232071   7.548   4.667  16.518  3.3705  0.2897 -0.0403
 2626TIP3   OH232072   5.481   9.094  16.532 -1.0045 -0.1231 -0.4052
 2626TIP3    H132073   5.516   9.006  16.523 -0.4541  0.0372  0.1239
 2626TIP3    H232074   5.518   9.127  16.613 -0.4408  0.9528 -1.0744
 2627TIP3   OH232075   5.875   2.043  18.014  0.3152 -0.4973  0.0923
 2627TIP3    H132076   5.859   2.019  18.105  0.1762 -0.6069  0.0400
 2627TIP3    H232077   5.897   1.960  17.971  0.6695 -0.4027  0.0873
 2628TIP3   OH232078   7.863   0.347  16.228 -0.3116 -0.3402 -0.4396
 2628TIP3    H132079   7.919   0.326  16.153 -0.2337 -1.2517 -0.1299
 2628TIP3    H232080   7.920   0.336  16.304 -1.0415 -1.8129 -0.0788
 2629TIP3   OH232081   2.494   7.030  17.440  0.1135 -0.3095 -0.6130
 2629TIP3    H132082   2.526   7.119  17.448  1.2261 -0.7015 -0.4747
 2629TIP3    H232083   2.547   6.991  17.371  0.0756 -1.0525 -0.2395
 2630TIP3   OH232084   0.836   0.878  17.072  0.5922  0.0183  0.0650
 2630TIP3    H132085   0.874   0.838  17.150  0.6496 -1.6424 -0.7701
 2630TIP3    H232086   0.790   0.955  17.104 -0.9930 -1.6468  2.0033
 2631TIP3   OH232087   3.422   0.693  17.311 -0.5972  0.1992  0.3023
 2631TIP3    H132088   3.486   0.631  17.347 -0.6016  0.4543  0.7607
 2631TIP3    H232089   3.344   0.640  17.293 -0.1674 -0.1707 -0.5327
 2632TIP3   OH232090   2.476   7.604  17.140 -0.1162  0.5279  0.2002
 2632TIP3    H132091   2.517   7.529  17.098 -1.5651 -0.0848 -0.1864
 2632TIP3    H232092   2.413   7.565  17.201  1.0852  1.4063  2.1193
 2633TIP3   OH232093   1.842   9.187  16.945  0.1709  0.1714  0.7167
 2633TIP3    H132094   1.843   9.261  16.885 -1.2807 -1.3053 -1.2726
 2633TIP3    H232095   1.934   9.172  16.967  0.6472  1.4199 -0.2985
 2634TIP3   OH232096   3.633   2.758  17.673  0.2503 -0.0147 -0.4648
 2634TIP3    H132097   3.557   2.808  17.704  2.1819  2.5137  0.6398
 2634TIP3    H232098   3.708   2.813  17.696  2.4638 -2.4844 -1.2734
 2635TIP3   OH232099   2.487   4.782  16.344  0.3925  0.1362  0.6363
 2635TIP3    H132100   2.526   4.846  16.284  1.6961 -1.4368 -0.2695
 2635TIP3    H232101   2.420   4.738  16.292 -0.5449  0.7570  1.2789
 2636TIP3   OH232102   5.284   4.458  17.434 -0.2638 -0.0338 -0.4700
 2636TIP3    H132103   5.329   4.539  17.412  0.6799 -0.1562  0.8980
 2636TIP3    H232104   5.353   4.392  17.439 -0.4302 -0.1146  2.2129
 2637TIP3   OH232105   3.182   4.925  17.350  0.1193 -0.3411  0.2992
 2637TIP3    H132106   3.176   4.837  17.388 -1.5775 -0.3300  0.0993
 2637TIP3    H232107   3.262   4.961  17.387  1.0130 -2.0623  0.1822
 2638TIP3   OH232108   0.405   2.699  16.449  0.2905  0.2452  0.1234
 2638TIP3    H132109   0.448   2.627  16.497 -0.6238 -0.0295  0.5503
 2638TIP3    H232110   0.314   2.696  16.478  0.0706  1.0908 -0.4506
 2639TIP3   OH232111   7.944   6.602  16.555  0.3608  0.2216  0.0860
 2639TIP3    H132112   7.979   6.520  16.590  1.0556  0.1102 -0.8210
 2639TIP3    H232113   7.899   6.642  16.629 -0.3853 -1.1854  0.4422
 2640TIP3   OH232114   0.315   1.557  17.467  0.3110  0.2374  0.1255
 2640TIP3    H132115   0.308   1.607  17.386 -0.8404  0.1304  0.1420
 2640TIP3    H232116   0.394   1.503  17.456 -1.3077 -1.9072 -2.1615
 2641TIP3   OH232117   0.956   5.608  16.292 -0.2417 -0.6472  0.3534
 2641TIP3    H132118   0.981   5.608  16.200 -0.8346 -1.1882  0.1868
 2641TIP3    H232119   0.861   5.608  16.291 -0.3059 -3.4279  0.9316
 2642TIP3   OH232120   8.995   0.310  16.752 -0.4507 -0.3307 -0.0774
 2642TIP3    H132121   9.074   0.274  16.713 -1.6931 -0.8020 -2.3670
 2642TIP3    H232122   9.023   0.392  16.791  1.2075 -0.5753 -0.6550
 2643TIP3   OH232123   4.396   5.217  17.775  0.7324  0.5034 -0.2538
 2643TIP3    H132124   4.392   5.128  17.808  0.2578  1.2233  1.8082
 2643TIP3    H232125   4.485   5.227  17.741  0.2969 -1.2035 -2.0225
 2644TIP3   OH232126   8.105   0.721  16.694 -0.0268  0.5447  0.3369
 2644TIP3    H132127   8.103   0.763  16.780 -0.2112  0.9292  0.1500
 2644TIP3    H232128   8.068   0.787  16.635  1.5089  0.9105 -0.2887
 2645TIP3   OH232129   1.241   7.612  17.082  0.2603  0.3589  0.5007
 2645TIP3    H132130   1.177   7.594  17.151  0.5024 -0.9819  0.3980
 2645TIP3    H232131   1.188   7.641  17.007 -0.1866 -0.2176  0.5888
 2646TIP3   OH232132   1.367   0.992  16.131  0.2994 -0.1168  0.3057
 2646TIP3    H132133   1.304   0.989  16.203 -1.0232  0.0398 -0.8062
 2646TIP3    H232134   1.350   0.912  16.081 -0.4221  0.8748 -1.1141
 2647TIP3   OH232135   6.037   7.951  17.941  0.1522 -0.4113  0.0420
 2647TIP3    H132136   6.132   7.950  17.927  0.0102  0.7334 -1.0818
 2647TIP3    H232137   6.020   8.035  17.982 -0.3377 -0.8027  0.6581
 2648TIP3   OH232138   3.595   3.834  16.616  0.0244 -0.2970  0.5099
 2648TIP3    H132139   3.582   3.869  16.705 -2.0625  2.9987 -0.8935
 2648TIP3    H232140   3.515   3.784  16.599  0.3329 -0.7540  0.3979
 2649TIP3   OH232141   3.783   0.707  17.406  0.5622 -0.2538 -0.0807
 2649TIP3    H132142   3.862   0.661  17.434 -0.4497 -0.6041  2.5100
 2649TIP3    H232143   3.783   0.788  17.457  0.3435  0.8414 -1.7311
 2650TIP3   OH232144   6.051   5.153  16.418  0.3842  0.1214  0.1056
 2650TIP3    H132145   5.984   5.098  16.377 -0.1290  0.2774  0.7348
 2650TIP3    H232146   6.124   5.093  16.433  0.6121  0.0699 -1.0903
 2651TIP3   OH232147   7.540   3.193  17.121 -0.4663  0.1359 -0.1947
 2651TIP3    H132148   7.598   3.120  17.145  1.0829  0.9482 -1.2634
 2651TIP3    H232149   7.454   3.153  17.111  0.4555 -1.7084 -1.4337
 2652TIP3   OH232150   3.527   0.226  16.102  0.4142 -0.0897  0.3339
 2652TIP3    H132151   3.562   0.287  16.167 -0.7263  0.1669  0.7301
 2652TIP3    H232152   3.588   0.152  16.102  1.3556  0.6699  0.4510
 2653TIP3   OH232153   2.712   1.095  17.413  0.5491 -0.1490 -0.1189
 2653TIP3    H132154   2.671   1.135  17.490 -1.1769 -1.2748 -0.3722
 2653TIP3    H232155   2.790   1.052  17.447 -0.9852 -1.9586  1.3990
 2654TIP3   OH232156   8.501   7.918  16.672  0.0806 -0.0086  0.5604
 2654TIP3    H132157   8.596   7.906  16.668 -0.0099 -0.7593  0.7008
 2654TIP3    H232158   8.484   7.941  16.763  0.0338 -0.6355  0.7065
 2655TIP3   OH232159   1.056   1.295  17.212 -0.3433 -0.0518  0.7282
 2655TIP3    H132160   1.127   1.295  17.147  0.1016 -0.0801  1.2157
 2655TIP3    H232161   1.080   1.363  17.274 -0.7695 -0.0301  0.8706
 2656TIP3   OH232162   8.941   4.180  16.302 -0.2495  0.2099 -0.8629
 2656TIP3    H132163   8.864   4.132  16.334 -0.7210  1.3094 -0.2807
 2656TIP3    H232164   8.988   4.116  16.249 -0.7769 -0.9403 -0.0131
 2657TIP3   OH232165   3.114   5.678  16.985 -0.1535 -0.1707 -0.3044
 2657TIP3    H132166   3.154   5.652  17.068 -2.6973 -1.7577  0.5796
 2657TIP3    H232167   3.150   5.618  16.920  0.2838 -0.3324  0.0887
 2658TIP3   OH232168   0.753   2.304  16.552  0.4212 -0.1350 -0.0339
 2658TIP3    H132169   0.791   2.217  16.566 -0.6401 -0.4741  0.8920
 2658TIP3    H232170   0.719   2.301  16.463  0.9137 -0.4689 -0.2129
 2659TIP3   OH232171   4.911   0.834  17.178  0.2392 -0.0160  0.2995
 2659TIP3    H132172   4.833   0.862  17.131  0.0508 -2.3835 -0.9566
 2659TIP3    H232173   4.978   0.899  17.154 -1.3535  2.3023  1.7555
 2660TIP3   OH232174   4.901   2.618  16.815  0.3523 -0.8908 -0.3140
 2660TIP3    H132175   4.814   2.581  16.826  0.2408  0.1088  3.0478
 2660TIP3    H232176   4.961   2.550  16.846  0.5655 -0.5012  0.1320
 2661TIP3   OH232177   8.312   1.553  17.632  0.1406  0.1933  0.1476
 2661TIP3    H132178   8.260   1.581  17.557 -0.1960  0.8033  0.6025
 2661TIP3    H232179   8.285   1.463  17.648 -1.9441  0.9847  1.3463
 2662TIP3   OH232180   2.283   2.826  17.169  0.0211  0.3432 -0.0784
 2662TIP3    H132181   2.237   2.743  17.158  0.8482  0.0887 -2.0809
 2662TIP3    H232182   2.241   2.885  17.107  0.7588  0.8073 -0.1575
 2663TIP3   OH232183   8.910   4.108  17.839 -0.2673 -0.3140  0.2482
 2663TIP3    H132184   8.841   4.042  17.849 -0.5442  0.1968  2.1987
 2663TIP3    H232185   8.939   4.126  17.928 -0.9448  2.9486 -0.0487
 2664TIP3   OH232186   0.055   4.706  16.874  0.0859 -0.2135  0.0666
 2664TIP3    H132187  -0.007   4.753  16.929 -1.3531 -1.7229 -0.1994
 2664TIP3    H232188   0.063   4.759  16.795  0.1030  0.6116  0.6114
 2665TIP3   OH232189   5.610   8.947  17.530  0.8839 -0.0662  0.3242
 2665TIP3    H132190   5.614   8.903  17.445  2.7957  0.8562 -0.1066
 2665TIP3    H232191   5.547   8.895  17.580 -0.4103 -0.5653 -1.6686
 2666TIP3   OH232192   6.061   5.750  17.713 -0.1351  0.0550  0.3303
 2666TIP3    H132193   6.143   5.708  17.741 -0.5852  0.3043  2.1680
 2666TIP3    H232194   6.088   5.837  17.684  0.7232 -1.1708 -2.9372
 2667TIP3   OH232195   8.678   3.920  17.632  0.3613 -0.0629  0.1728
 2667TIP3    H132196   8.684   3.966  17.548 -0.6502 -0.7190 -0.2813
 2667TIP3    H232197   8.729   3.840  17.619 -1.0822 -0.9353 -0.3870
 2668TIP3   OH232198   5.346   8.660  17.136 -0.0353  0.1923  0.6000
 2668TIP3    H132199   5.439   8.637  17.125  0.1525  1.1920 -0.0534
 2668TIP3    H232200   5.337   8.745  17.091 -1.4590 -0.2978 -0.0985
 2669TIP3   OH232201   6.855   2.947  17.637  0.6674 -0.1093  0.2367
 2669TIP3    H132202   6.866   3.032  17.595  0.0095 -0.0493  0.1721
 2669TIP3    H232203   6.919   2.890  17.594  0.9390  0.2903  0.1101
 2670TIP3   OH232204   5.607   8.277  17.817 -0.1294 -0.7261 -0.3378
 2670TIP3    H132205   5.681   8.222  17.791  0.8188  0.6464 -0.6524
 2670TIP3    H232206   5.580   8.244  17.902  1.7375 -0.4096  0.4122
 2671TIP3   OH232207   4.560   7.041  15.654 -0.1270  0.4379 -0.0402
 2671TIP3    H132208   4.539   6.955  15.618 -0.7736 -0.1864  1.6939
 2671TIP3    H232209   4.655   7.043  15.657 -0.0542 -1.3713  2.2664
 2672TIP3   OH232210   9.017   9.148  17.135 -0.3289 -0.1734  0.3537
 2672TIP3    H132211   8.998   9.084  17.067 -1.0707 -0.8334  1.1548
 2672TIP3    H232212   9.101   9.120  17.172  0.1655  0.2945 -0.3986
 2673TIP3   OH232213   6.694   2.384  16.987 -0.4457  0.2478  0.8069
 2673TIP3    H132214   6.666   2.350  17.072  0.7095 -0.5051  0.9098
 2673TIP3    H232215   6.688   2.479  16.995 -0.4472  0.1798  1.6854
 2674TIP3   OH232216   2.091   5.054  17.375 -0.0188  0.6863  0.2353
 2674TIP3    H132217   2.102   5.005  17.457 -0.0956  0.6187  0.2044
 2674TIP3    H232218   2.111   5.144  17.398 -0.4297  0.7308  0.4148
 2675TIP3   OH232219   5.898   6.166  17.959 -0.2334 -0.4526  0.1141
 2675TIP3    H132220   5.975   6.185  17.904  1.5432  0.9093  2.8445
 2675TIP3    H232221   5.915   6.078  17.994 -0.5428 -0.6416 -0.1998
 2676TIP3   OH232222   1.657   8.996  16.132  0.0442 -0.7122  0.5496
 2676TIP3    H132223   1.621   8.942  16.060 -0.3665  2.5177 -1.8915
 2676TIP3    H232224   1.752   8.989  16.121 -0.0165 -0.0051 -0.5478
 2677TIP3   OH232225   7.049   8.362  16.917  0.0599  0.4088 -0.1827
 2677TIP3    H132226   7.076   8.454  16.919  2.2201 -0.1653  2.2979
 2677TIP3    H232227   6.999   8.349  16.997 -1.3493 -0.3444 -1.1292
 2678TIP3   OH232228   2.353   3.253  16.141 -0.6216 -0.1421 -0.1564
 2678TIP3    H132229   2.377   3.162  16.159 -2.0299 -0.5791 -0.3404
 2678TIP3    H232230   2.430   3.304  16.165  0.3602 -1.4271 -0.4979
 2679TIP3   OH232231   0.147   4.642  16.400 -0.3726  0.1174 -0.7057
 2679TIP3    H132232   0.241   4.659  16.387 -0.4050  0.7112 -0.2179
 2679TIP3    H232233   0.144   4.557  16.443 -0.1015 -0.2700 -1.4353
 2680TIP3   OH232234   4.454   0.851  16.945  0.2179  0.3319  0.1621
 2680TIP3    H132235   4.415   0.938  16.946 -1.3647 -0.3431  0.5706
 2680TIP3    H232236   4.407   0.805  16.875  0.8806 -0.2484  0.0951
 2681TIP3   OH232237   1.740   7.344  16.801  0.0311  0.9271 -0.2960
 2681TIP3    H132238   1.723   7.251  16.818 -1.0902  0.6996 -2.2867
 2681TIP3    H232239   1.835   7.350  16.795  0.1651  0.0770  0.5847
 2682TIP3   OH232240   1.044   2.533  15.764 -0.1834 -0.1016  0.1608
 2682TIP3    H132241   0.951   2.536  15.785 -0.2014 -0.5658  0.1648
 2682TIP3    H232242   1.059   2.608  15.706 -0.8560 -0.8210 -0.9933
 2683TIP3   OH232243   2.148   6.388  17.259 -0.0698  0.1548 -0.1690
 2683TIP3    H132244   2.059   6.380  17.293  0.6163 -1.1514  1.4413
 2683TIP3    H232245   2.152   6.476  17.223 -1.9376  0.3215 -0.0800
 2684TIP3   OH232246   2.342   0.466  16.060 -0.0725  0.5011  0.1956
 2684TIP3    H132247   2.307   0.377  16.070  0.6620  0.3103  1.2411
 2684TIP3    H232248   2.275   0.512  16.011 -0.1529 -0.8237 -1.0095
 2685TIP3   OH232249   0.829   4.863  17.492 -0.3025  0.1867  0.3676
 2685TIP3    H132250   0.912   4.909  17.504 -0.0274  0.0356 -0.8295
 2685TIP3    H232251   0.832   4.831  17.402 -0.6695 -1.7958  1.0001
 2686TIP3   OH232252   0.943   7.912  16.955  0.3187 -0.4492 -0.0908
 2686TIP3    H132253   0.988   7.828  16.949  2.5259  0.6513 -0.0096
 2686TIP3    H232254   1.013   7.976  16.968 -1.3159  1.3736  0.2670
 2687TIP3   OH232255   1.129   6.036  17.683 -0.0292  0.2702 -0.1763
 2687TIP3    H132256   1.209   6.021  17.733  0.2096 -0.9962 -0.9117
 2687TIP3    H232257   1.092   5.949  17.669 -2.2433  0.8995  1.2334
 2688TIP3   OH232258   2.714   3.205  16.136 -0.3153 -0.4018  0.0509
 2688TIP3    H132259   2.643   3.160  16.182  0.1329  0.4048  1.6124
 2688TIP3    H232260   2.681   3.293  16.119  0.0019 -0.2828  0.0394
 2689TIP3   OH232261   4.306   6.373  17.594  0.9118  0.3231  1.0828
 2689TIP3    H132262   4.231   6.339  17.547  0.9194 -0.3748  1.5619
 2689TIP3    H232263   4.277   6.458  17.627  0.4904  0.2608  0.8805
 2690TIP3   OH232264   0.831   0.437  17.383  0.3055  0.2742 -0.3844
 2690TIP3    H132265   0.807   0.473  17.468 -1.1603  1.0559 -1.0923
 2690TIP3    H232266   0.760   0.463  17.324  2.5083  2.1142 -2.4754
 2691TIP3   OH232267   2.382   2.287  16.625 -0.2884 -0.6730 -0.3330
 2691TIP3    H132268   2.327   2.365  16.620 -1.8945 -1.6417  1.2364
 2691TIP3    H232269   2.441   2.303  16.699 -1.1467 -1.2385  0.4899
 2692TIP3   OH232270   1.888   1.756  17.199 -0.3373  0.3246 -0.2045
 2692TIP3    H132271   1.871   1.678  17.147 -2.5939  1.5411 -1.4473
 2692TIP3    H232272   1.821   1.755  17.268  0.2774  0.6215  0.4082
 2693TIP3   OH232273   4.318   0.016  16.617  0.0186  0.4645  0.0358
 2693TIP3    H132274   4.377   0.077  16.663  1.1026 -0.8988  0.5176
 2693TIP3    H232275   4.343   0.024  16.525 -0.5360  1.4671 -0.0379
 2694TIP3   OH232276   3.179   6.222  16.085 -0.1138  0.3106 -0.2177
 2694TIP3    H132277   3.118   6.268  16.027  0.3426  2.2997  0.7814
 2694TIP3    H232278   3.127   6.202  16.163 -0.0156  0.1107 -0.2023
 2695TIP3   OH232279   2.642   8.411  17.388 -0.4574 -0.1390  0.0876
 2695TIP3    H132280   2.653   8.503  17.413  3.5477 -0.2360 -0.6237
 2695TIP3    H232281   2.647   8.412  17.293 -0.3215 -1.0811  0.0819
 2696TIP3   OH232282   3.087   5.873  17.599  0.0132  0.1518 -0.6417
 2696TIP3    H132283   3.132   5.942  17.550  0.1666 -0.2447 -1.0660
 2696TIP3    H232284   3.100   5.794  17.547  0.1002 -0.2614 -0.0093
 2697TIP3   OH232285   5.610   8.748  17.314 -0.1421 -0.2089  0.3916
 2697TIP3    H132286   5.633   8.667  17.269  2.4251  0.6819 -0.0327
 2697TIP3    H232287   5.565   8.800  17.247 -1.5092 -1.0906  0.5758
 2698TIP3   OH232288   5.106   1.027  17.116  0.1221  0.5809  0.1598
 2698TIP3    H132289   5.129   1.114  17.149  0.4195  0.8733 -0.7933
 2698TIP3    H232290   5.189   0.978  17.116 -0.1523  0.0785  1.2890
 2699TIP3   OH232291   3.801   0.295  17.897 -0.2225 -0.3989 -0.0935
 2699TIP3    H132292   3.745   0.363  17.935 -0.9054  0.0756 -1.8841
 2699TIP3    H232293   3.885   0.339  17.882 -0.1058 -0.4526  0.3806
 2700TIP3   OH232294   2.510   1.810  16.946 -0.0405 -0.3710  0.1711
 2700TIP3    H132295   2.506   1.720  16.977  1.0447 -0.4954 -0.0049
 2700TIP3    H232296   2.603   1.825  16.929 -0.3816  0.2975 -1.2348
 2701TIP3   OH232297   8.006   0.953  16.554  0.1831  0.1690  0.5502
 2701TIP3    H132298   7.983   0.902  16.476 -0.2503 -1.3100  1.6007
 2701TIP3    H232299   7.930   1.009  16.569  0.4778  0.8264 -0.3704
 2702TIP3   OH232300   4.533   8.513  16.269  0.2120  0.0435 -0.5119
 2702TIP3    H132301   4.453   8.501  16.217 -1.6917  1.2466  1.9126
 2702TIP3    H232302   4.523   8.453  16.342  2.5944 -1.2691 -1.1752
 2703TIP3   OH232303   0.273   0.950  17.915  0.1292 -0.3031 -0.2394
 2703TIP3    H132304   0.245   0.891  17.845  1.3522 -0.2651 -0.7995
 2703TIP3    H232305   0.284   0.893  17.991 -0.2084 -0.5318 -0.3588
 2704TIP3   OH232306   2.360   6.463  17.911 -0.0761 -0.6277 -0.2438
 2704TIP3    H132307   2.392   6.515  17.985  0.7962 -2.5983  0.8472
 2704TIP3    H232308   2.357   6.525  17.838  2.5094  0.5967  0.5578
 2705TIP3   OH232309   3.991   6.603  15.490  0.3786  0.3405  0.2557
 2705TIP3    H132310   4.051   6.532  15.466  0.4046  0.5065 -0.1798
 2705TIP3    H232311   3.905   6.561  15.493  0.3492  0.3461 -0.3059
 2706TIP3   OH232312   5.253   5.947  16.848  0.1681 -0.7573  0.3286
 2706TIP3    H132313   5.205   5.865  16.845  0.8016 -1.1290 -1.7701
 2706TIP3    H232314   5.253   5.978  16.757 -0.2888  1.7199  1.1090
 2707TIP3   OH232315   1.721   3.356  16.381  0.4690 -0.2860 -0.0839
 2707TIP3    H132316   1.773   3.427  16.344  1.1548 -0.4657  0.5287
 2707TIP3    H232317   1.760   3.276  16.344  0.6074 -0.4190  0.3443
 2708TIP3   OH232318   6.528   5.140  16.303  0.0309  0.1333  0.0818
 2708TIP3    H132319   6.536   5.201  16.230  0.5939  0.3502  0.3188
 2708TIP3    H232320   6.618   5.116  16.324 -0.0344  1.0429  1.5247
 2709TIP3   OH232321   8.969   8.356  16.857  0.4205 -0.0114  0.2355
 2709TIP3    H132322   9.064   8.350  16.858  0.4749  0.5144 -0.9613
 2709TIP3    H232323   8.947   8.392  16.943  1.3713  0.8902  0.1192
 2710TIP3   OH232324   0.698   8.842  17.676 -0.0461 -0.1566  0.1938
 2710TIP3    H132325   0.689   8.793  17.758  0.5199 -0.9043 -0.1778
 2710TIP3    H232326   0.634   8.913  17.683  1.0020  0.6807  1.9108
 2711TIP3   OH232327   4.495   2.181  16.826  0.5253  0.0227  0.0001
 2711TIP3    H132328   4.485   2.092  16.794 -1.1168  0.6757 -1.4786
 2711TIP3    H232329   4.416   2.226  16.797  2.4276  2.6180 -1.6455
 2712TIP3   OH232330   8.476   4.907  17.362  0.0914 -0.2881 -0.3008
 2712TIP3    H132331   8.474   4.904  17.266  2.2827  0.4563 -0.4407
 2712TIP3    H232332   8.386   4.891  17.389 -0.5801 -0.5087 -2.4832
 2713TIP3   OH232333   3.519   1.019  16.965  0.0146  0.0140 -0.3656
 2713TIP3    H132334   3.424   1.021  16.951 -0.0918 -1.0309  0.1162
 2713TIP3    H232335   3.533   0.949  17.028  0.9956  1.0353  0.6056
 2714TIP3   OH232336   2.824   8.087  17.458  0.1731  0.2845  0.2803
 2714TIP3    H132337   2.908   8.044  17.444 -0.4840 -0.8793 -0.2011
 2714TIP3    H232338   2.833   8.130  17.543  1.2069  0.0797  0.2838
 2715TIP3   OH232339   6.091   5.639  15.716 -0.2508 -0.2870 -0.1832
 2715TIP3    H132340   6.032   5.640  15.792 -1.2610 -0.0630 -0.9513
 2715TIP3    H232341   6.036   5.664  15.642 -0.0533 -3.4294 -1.5697
 2716TIP3   OH232342   4.792   0.363  16.566  0.1525  0.3345  0.1327
 2716TIP3    H132343   4.877   0.352  16.522 -0.5690 -1.3126 -0.9448
 2716TIP3    H232344   4.785   0.457  16.581  2.1467  0.5195  0.2091
 2717TIP3   OH232345   4.419   1.764  17.431  0.6821 -0.1618  0.7644
 2717TIP3    H132346   4.449   1.765  17.522  0.0806 -3.2123  1.0870
 2717TIP3    H232347   4.364   1.686  17.424  0.0726  0.3953 -2.0509
 2718TIP3   OH232348   3.370   0.482  16.870  0.6536 -0.2356 -0.6964
 2718TIP3    H132349   3.414   0.402  16.898 -0.1675 -0.0704  1.1805
 2718TIP3    H232350   3.441   0.540  16.842  1.3987 -0.9352 -0.2808
 2719TIP3   OH232351   3.337   8.150  16.588 -0.1386  0.3375  0.2100
 2719TIP3    H132352   3.312   8.067  16.628  1.1699 -0.6568 -0.9472
 2719TIP3    H232353   3.396   8.190  16.652 -1.0028  0.5560  0.9027
 2720TIP3   OH232354   0.178   0.238  17.211  0.0508 -0.4634 -0.1119
 2720TIP3    H132355   0.096   0.287  17.223  0.7693  1.3095 -1.9557
 2720TIP3    H232356   0.182   0.219  17.118  0.4314 -3.0735  0.3474
 2721TIP3   OH232357   1.910   5.885  17.085  0.0831 -0.1947  0.4561
 2721TIP3    H132358   1.970   5.845  17.148 -0.7199 -1.8481  0.2246
 2721TIP3    H232359   1.940   5.975  17.077  2.1375 -0.8043  0.8169
 2722TIP3   OH232360   3.967   8.946  17.992 -0.4326 -0.3294  0.5612
 2722TIP3    H132361   4.032   8.992  17.938 -1.0572  0.3544  0.3709
 2722TIP3    H232362   4.000   8.857  17.998  2.2355  0.6694  3.1105
 2723TIP3   OH232363   0.673   5.642  17.024  0.0915  0.1327 -0.3409
 2723TIP3    H132364   0.761   5.635  17.061 -0.3097  0.4052  0.6945
 2723TIP3    H232365   0.672   5.579  16.952  1.2427  0.3866 -0.5937
 2724TIP3   OH232366   5.070   0.431  17.773  0.2653  0.6525 -0.0511
 2724TIP3    H132367   5.004   0.412  17.706 -0.0978  1.2524  0.1301
 2724TIP3    H232368   5.128   0.354  17.772  1.0150  1.1812 -1.9291
 2725TIP3   OH232369   7.678   7.557  17.296 -0.0172  0.2501  0.5289
 2725TIP3    H132370   7.637   7.643  17.290 -0.4131  0.1196  1.2710
 2725TIP3    H232371   7.772   7.574  17.288 -0.1534  0.6321 -0.3690
 2726TIP3   OH232372   0.745   1.307  17.971 -0.2748  0.2991  0.1233
 2726TIP3    H132373   0.771   1.380  17.915 -1.5683  1.9392  1.5640
 2726TIP3    H232374   0.730   1.347  18.057 -0.9438 -1.6795  0.9751
 2727TIP3   OH232375   4.954   7.545  17.321  0.0242 -0.6793 -0.3307
 2727TIP3    H132376   4.977   7.620  17.266 -0.5649  1.5620  2.2186
 2727TIP3    H232377   4.859   7.537  17.312 -0.1889  0.1859  0.7851
 2728TIP3   OH232378   6.421   8.618  16.116 -0.3564 -0.3340  0.1056
 2728TIP3    H132379   6.474   8.540  16.108  1.1962  0.6996 -0.0758
 2728TIP3    H232380   6.479   8.690  16.089 -2.2231  0.7239 -1.4151
 2729TIP3   OH232381   5.653   0.017  18.146  0.8258  0.5418 -0.0738
 2729TIP3    H132382   5.612   0.103  18.154 -1.1117 -0.2076 -1.2186
 2729TIP3    H232383   5.729   0.033  18.090 -0.6888  1.2438 -2.0932
 2730TIP3   OH232384   3.065   1.734  16.803 -0.5865 -0.3039 -0.0755
 2730TIP3    H132385   2.987   1.780  16.834  0.1914 -0.0195  1.5703
 2730TIP3    H232386   3.065   1.651  16.852 -0.7567 -1.0790 -1.3391
 2731TIP3   OH232387   6.014   4.935  17.646  0.2765  0.4333 -0.4006
 2731TIP3    H132388   6.001   4.935  17.551  1.1554  1.4819 -0.5432
 2731TIP3    H232389   5.978   5.018  17.675  1.0877  0.6541  0.0050
 2732TIP3   OH232390   7.723   7.513  15.780  0.0946  0.0462 -0.4431
 2732TIP3    H132391   7.699   7.584  15.721 -1.0876 -0.5710 -0.7382
 2732TIP3    H232392   7.774   7.555  15.849  1.4726  0.7932 -1.8467
 2733TIP3   OH232393   3.399   6.817  16.722  0.4428  0.1829 -0.0426
 2733TIP3    H132394   3.418   6.741  16.778 -1.1695 -0.5185 -0.3767
 2733TIP3    H232395   3.309   6.841  16.745  1.0005  2.1858  0.2231
 2734TIP3   OH232396   9.187   0.962  16.615  0.0550 -0.2881  0.6232
 2734TIP3    H132397   9.238   0.907  16.674  1.5639  0.1048 -0.2555
 2734TIP3    H232398   9.217   0.936  16.527 -1.0297  0.1988  0.0977
 2735TIP3   OH232399   7.084   1.335  16.651 -0.0398  0.2463  0.1543
 2735TIP3    H132400   7.089   1.426  16.679  0.1893  0.0351  0.8439
 2735TIP3    H232401   7.141   1.289  16.713 -1.2686 -0.5698  0.6991
 2736TIP3   OH232402   4.664   0.831  17.367  0.3062 -0.1796 -0.1827
 2736TIP3    H132403   4.742   0.818  17.313  0.2816 -0.4437 -0.1548
 2736TIP3    H232404   4.670   0.764  17.435 -0.1053 -0.4010 -0.3621
 2737TIP3   OH232405   3.852   3.037  16.303  0.7111 -0.4920  0.4558
 2737TIP3    H132406   3.845   2.999  16.215 -2.4948 -1.4923  1.0020
 2737TIP3    H232407   3.837   3.130  16.290 -1.0551 -0.7887 -0.0376
 2738TIP3   OH232408   7.628   2.934  17.158 -0.5612  0.4606 -0.9713
 2738TIP3    H132409   7.564   2.893  17.100 -1.4087  0.7857 -0.2870
 2738TIP3    H232410   7.639   2.872  17.229 -0.9390  0.8813 -0.5407
 2739TIP3   OH232411   3.744   2.452  17.722  0.1353  0.0170  0.3926
 2739TIP3    H132412   3.705   2.539  17.728  0.0512  0.0223 -0.1371
 2739TIP3    H232413   3.829   2.466  17.679  1.0251  0.0857  2.0953
 2740TIP3   OH232414   5.937   6.260  17.521 -0.2625  0.3158  0.3397
 2740TIP3    H132415   5.988   6.203  17.580  1.3715 -0.0493 -1.3417
 2740TIP3    H232416   5.938   6.345  17.565  3.2273  0.7470 -0.2859
 2741TIP3   OH232417   3.424   1.406  16.723 -0.5733  0.7625 -0.3707
 2741TIP3    H132418   3.391   1.318  16.744 -1.1617  0.9592 -0.4463
 2741TIP3    H232419   3.481   1.428  16.797  1.7003 -0.7226 -1.5470
 2742TIP3   OH232420   6.591   1.820  17.621  0.0732 -0.2615  0.2424
 2742TIP3    H132421   6.530   1.892  17.635 -0.6534 -0.5595 -1.1504
 2742TIP3    H232422   6.542   1.742  17.647  0.2168 -0.4102  0.0670
 2743TIP3   OH232423   2.671   4.091  16.744  0.5091 -0.5497 -0.6063
 2743TIP3    H132424   2.689   4.164  16.804 -0.2733  0.0522 -1.0715
 2743TIP3    H232425   2.751   4.082  16.692  0.4703  0.2784 -0.8363
 2744TIP3   OH232426   0.132   8.577  17.977  0.0694  0.9074  0.2478
 2744TIP3    H132427   0.039   8.598  17.981 -0.2587 -0.5191  0.8987
 2744TIP3    H232428   0.135   8.489  17.939  0.9343 -0.0601  2.3627
 2745TIP3   OH232429   8.921   6.320  17.322  0.1092 -0.0140 -0.1547
 2745TIP3    H132430   8.835   6.338  17.283 -0.7422  0.4458  1.8157
 2745TIP3    H232431   8.925   6.225  17.328 -0.2765 -0.0387 -0.2337
 2746TIP3   OH232432   3.836   6.971  16.789  0.4192 -0.0134 -0.1940
 2746TIP3    H132433   3.808   6.946  16.878 -1.2856  1.5768 -0.2167
 2746TIP3    H232434   3.889   6.898  16.759  1.3958 -0.4183  2.2895
 2747TIP3   OH232435   8.448   5.544  16.456  0.4577 -0.0528  0.0521
 2747TIP3    H132436   8.376   5.586  16.408  0.4165 -0.2791 -0.0848
 2747TIP3    H232437   8.503   5.617  16.485 -0.4168  0.1974  1.1249
 2748TIP3   OH232438   2.209   3.998  17.121 -0.3078 -0.1577 -0.3773
 2748TIP3    H132439   2.207   3.995  17.026  0.8008 -2.0226 -0.3887
 2748TIP3    H232440   2.182   3.910  17.149  1.1807 -0.2408  0.9521
 2749TIP3   OH232441   4.751   7.456  16.663  0.1907 -0.6514 -0.0610
 2749TIP3    H132442   4.730   7.367  16.635 -2.0740 -0.4148  0.6441
 2749TIP3    H232443   4.672   7.486  16.708  1.7977  0.7966  2.0344
 2750TIP3   OH232444   7.986   3.394  16.447  0.3843  0.5767  0.0601
 2750TIP3    H132445   8.062   3.451  16.460  0.7044 -0.0090  0.7968
 2750TIP3    H232446   8.022   3.306  16.440 -0.1006  0.4573 -1.1931
 2751TIP3   OH232447   3.195   3.698  16.726 -0.2134 -0.5819 -0.2541
 2751TIP3    H132448   3.182   3.649  16.645 -0.0599 -0.7888 -0.1577
 2751TIP3    H232449   3.228   3.783  16.699  0.3446 -0.8354 -0.3855
 2752TIP3   OH232450   6.514   1.978  16.827  0.0804  0.0698 -0.6003
 2752TIP3    H132451   6.571   2.032  16.772  0.2114  2.5228  1.7628
 2752TIP3    H232452   6.426   2.007  16.806 -0.2720 -2.0101 -2.4591
 2753TIP3   OH232453   0.372   6.089  16.525 -0.2082 -0.0949  0.1968
 2753TIP3    H132454   0.389   6.021  16.459  0.2444  0.7011 -0.5327
 2753TIP3    H232455   0.424   6.164  16.495 -2.6847  1.4582 -0.4585
 2754TIP3   OH232456   2.659   2.346  16.783 -0.4045  0.8012 -0.3098
 2754TIP3    H132457   2.754   2.358  16.776 -0.0769 -0.5566  1.1547
 2754TIP3    H232458   2.634   2.397  16.860 -0.6158  0.0770  0.1139
 2755TIP3   OH232459   3.096   3.410  16.840 -0.2872  0.5877 -0.0099
 2755TIP3    H132460   3.099   3.426  16.746  0.7680  2.2354  0.2586
 2755TIP3    H232461   3.010   3.442  16.867 -0.8252 -0.4240 -0.4755
 2756TIP3   OH232462   6.670   5.902  17.144 -0.1264 -0.2066 -0.2974
 2756TIP3    H132463   6.729   5.977  17.151 -0.0625 -0.1651 -1.1314
 2756TIP3    H232464   6.672   5.879  17.051 -0.5438 -0.9204 -0.1391
 2757TIP3   OH232465   3.974   7.866  17.945  0.7800  0.5792 -0.5050
 2757TIP3    H132466   3.896   7.843  17.995  0.2377  3.6646  0.3027
 2757TIP3    H232467   4.027   7.787  17.944 -1.7880 -1.2562 -0.0245
 2758TIP3   OH232468   4.122   6.922  16.539 -0.7558 -0.2256 -0.0111
 2758TIP3    H132469   4.204   6.914  16.489 -0.5869  1.0693  0.0325
 2758TIP3    H232470   4.087   6.833  16.541 -0.8246 -0.3353 -2.5202
 2759TIP3   OH232471   4.302   6.899  17.486 -0.4479  0.4173  0.4589
 2759TIP3    H132472   4.327   6.964  17.420  1.8724  0.9501  1.7667
 2759TIP3    H232473   4.291   6.949  17.567 -0.1504 -0.6207  1.1635
 2760TIP3   OH232474   4.529   9.197  16.409  0.1640  0.1489  0.2010
 2760TIP3    H132475   4.569   9.110  16.404  0.4332  0.3152 -0.7660
 2760TIP3    H232476   4.571   9.238  16.484 -1.1280 -1.1047  1.6901
 2761TIP3   OH232477   7.455   8.094  17.856  0.0312 -0.3326 -0.1774
 2761TIP3    H132478   7.425   8.014  17.899 -1.8683  0.2302 -0.3832
 2761TIP3    H232479   7.380   8.122  17.804  0.6218  1.6463 -0.0145
 2762TIP3   OH232480   5.551   5.765  16.662  0.0001  0.2492 -0.1723
 2762TIP3    H132481   5.560   5.793  16.753 -1.9107 -0.7832  0.3725
 2762TIP3    H232482   5.505   5.837  16.620  0.7813  0.6760 -0.3214
 2763TIP3   OH232483   2.496   8.484  16.846  0.2891 -0.0079 -0.3437
 2763TIP3    H132484   2.544   8.529  16.777  0.6593  0.9797  0.5304
 2763TIP3    H232485   2.557   8.419  16.880  0.4067  0.0820 -0.3831
 2764TIP3   OH232486   6.401   3.653  17.262  0.3851  0.2513 -0.1744
 2764TIP3    H132487   6.469   3.660  17.330 -1.4246  0.6233  1.7077
 2764TIP3    H232488   6.397   3.741  17.223  0.7044  0.3410 -0.0064
 2765TIP3   OH232489   5.088   0.872  17.452  0.3297  0.1291  0.1213
 2765TIP3    H132490   5.133   0.788  17.457 -0.9551 -0.5170  2.6352
 2765TIP3    H232491   5.034   0.866  17.373  0.2782 -1.4292  0.2424
 2766TIP3   OH232492   4.584   7.644  16.419 -0.2233  0.0283  0.1581
 2766TIP3    H132493   4.617   7.557  16.395 -0.5078 -0.4995  1.5963
 2766TIP3    H232494   4.587   7.694  16.337  1.4718 -0.8429 -0.3475
 2767TIP3   OH232495   2.224   2.353  15.770 -0.0002 -0.1745 -0.0422
 2767TIP3    H132496   2.189   2.265  15.784 -0.8983  0.3162  0.8930
 2767TIP3    H232497   2.319   2.342  15.775 -0.0965 -1.1065 -0.0679
 2768TIP3   OH232498   8.629   5.427  15.997  0.1288 -0.2091 -0.1126
 2768TIP3    H132499   8.655   5.379  15.918 -0.1679  0.3436 -0.5542
 2768TIP3    H232500   8.536   5.447  15.983 -0.2716 -1.2323  0.9654
 2769TIP3   OH232501   0.427   1.892  16.351  0.0121 -0.2810 -0.2250
 2769TIP3    H132502   0.477   1.838  16.289  0.4404 -0.9039  0.6424
 2769TIP3    H232503   0.444   1.982  16.324  0.6686 -0.5249 -0.6565
 2770TIP3   OH232504   8.490   0.925  16.187  0.4493  0.9201 -0.3534
 2770TIP3    H132505   8.560   0.881  16.138  0.5361 -0.1684  0.7244
 2770TIP3    H232506   8.527   1.011  16.209  1.4583  0.3525  0.2126
 2771TIP3   OH232507   7.006   6.047  15.820  0.0253  0.1016 -0.1038
 2771TIP3    H132508   7.077   5.984  15.830 -1.0136 -1.3933 -1.5805
 2771TIP3    H232509   7.042   6.130  15.853  1.4911 -1.1811  1.7333
 2772TIP3   OH232510   1.550   6.663  17.186 -0.4338 -0.1145  0.3129
 2772TIP3    H132511   1.548   6.627  17.275 -0.0143 -0.0559  0.3457
 2772TIP3    H232512   1.566   6.757  17.199 -2.2929  0.2493  0.2711
 2773TIP3   OH232513   3.550   4.705  17.528 -0.3805  0.1378 -0.9005
 2773TIP3    H132514   3.573   4.796  17.510  1.0907  0.0040  0.1372
 2773TIP3    H232515   3.477   4.710  17.590  0.8025  0.6627  0.5185
 2774TIP3   OH232516   5.989   3.416  16.585  0.3501 -0.5923  0.6177
 2774TIP3    H132517   5.941   3.377  16.659 -0.9086  0.8519  0.6051
 2774TIP3    H232518   5.958   3.506  16.580  1.7857 -0.1147 -0.5430
 2775TIP3   OH232519   2.275   8.444  17.364  0.5130 -0.2699 -0.2865
 2775TIP3    H132520   2.315   8.458  17.450 -0.5409 -1.7684  0.5023
 2775TIP3    H232521   2.317   8.508  17.307  1.5400  0.4856  1.2500
 2776TIP3   OH232522   8.324   3.375  17.654 -0.5487 -0.0382 -0.2352
 2776TIP3    H132523   8.373   3.451  17.621  0.8149 -0.9682 -0.4594
 2776TIP3    H232524   8.255   3.413  17.709 -0.9137  1.4121 -1.6309
 2777TIP3   OH232525   8.113   5.830  17.315  0.3380  0.6195  0.2697
 2777TIP3    H132526   8.065   5.834  17.398  1.0096  0.5819  0.6606
 2777TIP3    H232527   8.205   5.831  17.340  0.5925 -1.8941 -0.3165
 2778TIP3   OH232528   8.624   1.876  17.551  0.2992 -0.3776  0.9576
 2778TIP3    H132529   8.588   1.788  17.567  2.1608 -1.5259 -0.6680
 2778TIP3    H232530   8.710   1.874  17.593  1.8768 -0.6829 -2.0122
 2779TIP3   OH232531   5.275   8.747  16.159 -0.1417 -0.1810 -0.2204
 2779TIP3    H132532   5.334   8.673  16.174 -0.1434 -0.3962 -1.2452
 2779TIP3    H232533   5.194   8.707  16.129 -0.5896  0.1635  0.5019
 2780TIP3   OH232534   6.098   5.998  17.599  0.2162  0.0129 -0.2624
 2780TIP3    H132535   6.180   6.022  17.556  0.4405 -0.8985 -0.3550
 2780TIP3    H232536   6.057   5.934  17.541 -1.0096  1.1021 -0.6630
 2781TIP3   OH232537   8.528   9.117  17.853  0.6214 -0.1243 -0.3131
 2781TIP3    H132538   8.446   9.116  17.804 -0.3363 -0.3552  1.2419
 2781TIP3    H232539   8.567   9.032  17.836  0.0407 -0.4043 -0.2776
 2782TIP3   OH232540   7.200   0.581  17.210 -0.5079 -0.4155 -0.3009
 2782TIP3    H132541   7.163   0.499  17.177  0.7160 -0.9348 -0.4502
 2782TIP3    H232542   7.147   0.650  17.170 -1.0200 -1.1189 -0.8515
 2783TIP3   OH232543   1.414   6.166  16.259  0.4065  0.8340  0.3909
 2783TIP3    H132544   1.401   6.130  16.346 -1.3488 -0.7465 -0.4704
 2783TIP3    H232545   1.508   6.154  16.242  0.5751  0.2239  1.6300
 2784TIP3   OH232546   5.478   1.377  16.806 -0.1000 -0.6261  0.0833
 2784TIP3    H132547   5.572   1.363  16.796  0.0775  0.0645  0.6936
 2784TIP3    H232548   5.441   1.289  16.810  0.5960 -0.9098  0.5042
 2785TIP3   OH232549   4.899   1.718  16.599  0.7076  0.0252 -0.0657
 2785TIP3    H132550   4.930   1.636  16.560  0.0523  0.1607 -0.8790
 2785TIP3    H232551   4.805   1.707  16.608  0.8330 -0.0341  1.5899
 2786TIP3   OH232552   5.833   6.090  17.334  0.0620  0.0283 -0.2074
 2786TIP3    H132553   5.878   6.133  17.406  0.9199 -0.3743 -0.4907
 2786TIP3    H232554   5.760   6.148  17.313  1.6282  1.8021 -1.0982
 2787TIP3   OH232555   8.511   7.429  16.933  0.3516 -0.0131 -0.6297
 2787TIP3    H132556   8.574   7.357  16.925  0.1286 -0.3729  0.6770
 2787TIP3    H232557   8.546   7.485  17.002  0.3510  0.9786 -1.4021
 2788TIP3   OH232558   0.329   7.373  16.913 -0.0769  0.3014 -0.3144
 2788TIP3    H132559   0.268   7.318  16.864 -0.6444  0.9317 -0.3440
 2788TIP3    H232560   0.378   7.421  16.846 -0.6031  0.8963 -0.2935
 2789TIP3   OH232561   7.939   9.056  15.885 -0.1419 -0.4473 -0.1857
 2789TIP3    H132562   8.026   9.048  15.924 -0.4635  0.2510  0.7169
 2789TIP3    H232563   7.923   8.971  15.844  0.9347 -0.6044 -0.3033
 2790TIP3   OH232564   5.892   7.429  16.952 -0.3361  0.2297  0.5528
 2790TIP3    H132565   5.809   7.390  16.926  0.4938 -0.3656 -1.3229
 2790TIP3    H232566   5.912   7.387  17.036 -0.4718 -1.9066 -0.4181
 2791TIP3   OH232567   9.156   8.626  16.257  0.4301  0.1859 -0.2283
 2791TIP3    H132568   9.197   8.567  16.194  1.2596 -0.0511  0.5167
 2791TIP3    H232569   9.142   8.707  16.208  0.2141 -0.2824 -0.9701
 2792TIP3   OH232570   3.161   6.903  17.389  0.0028  0.0122 -0.6176
 2792TIP3    H132571   3.099   6.867  17.325 -1.4003  0.2026  0.5654
 2792TIP3    H232572   3.245   6.904  17.344 -0.6904 -1.0534 -2.0091
 2793TIP3   OH232573   0.847   7.313  17.584  0.7802  0.1945  1.0719
 2793TIP3    H132574   0.827   7.311  17.677  0.1971 -0.4588  0.9423
 2793TIP3    H232575   0.836   7.223  17.555  0.0218  0.5477  0.1947
 2794TIP3   OH232576   7.782   0.031  17.650  0.0183 -0.0435 -0.3033
 2794TIP3    H132577   7.741   0.066  17.570 -1.4859  1.1073  0.9006
 2794TIP3    H232578   7.861  -0.013  17.619  0.1118  1.3796 -2.3029
 2795TIP3   OH232579   3.596   2.478  17.397  0.5119 -0.0928  0.5400
 2795TIP3    H132580   3.601   2.574  17.395  1.6049 -0.1331  0.6703
 2795TIP3    H232581   3.556   2.454  17.314  0.5162  0.4654  0.3740
 2796TIP3   OH232582   8.613   9.002  17.223  0.2109  0.2376  0.8886
 2796TIP3    H132583   8.675   8.931  17.207 -0.6283 -0.2206 -0.5386
 2796TIP3    H232584   8.666   9.082  17.218  0.4891 -0.0082 -2.2348
 2797TIP3   OH232585   6.726   3.409  17.640 -0.0055  0.1137 -0.4913
 2797TIP3    H132586   6.669   3.464  17.694  0.4321  1.1112 -1.0006
 2797TIP3    H232587   6.671   3.384  17.566  0.4200  1.8274 -1.4504
 2798TIP3   OH232588   2.373   8.346  15.993  0.2058 -0.5261 -0.3203
 2798TIP3    H132589   2.407   8.435  16.001  0.7363 -0.7950  0.7294
 2798TIP3    H232590   2.292   8.346  16.045  0.6197 -0.8376  0.3473
 2799TIP3   OH232591   8.745   4.882  17.139 -0.3123 -0.1345  0.3106
 2799TIP3    H132592   8.735   4.814  17.205 -0.9027 -0.0435  0.3230
 2799TIP3    H232593   8.737   4.964  17.188  0.0295 -0.0580  0.2404
 2800TIP3   OH232594   3.844   0.589  17.917  0.2877  0.4347 -0.2047
 2800TIP3    H132595   3.783   0.585  17.843 -1.1807  3.8425  0.6204
 2800TIP3    H232596   3.921   0.541  17.887 -1.1133 -0.2506 -3.0486
 2801TIP3   OH232597   0.086   9.132  16.634  0.4563  0.9148  0.0572
 2801TIP3    H132598   0.038   9.050  16.641  0.0203  0.9245 -2.1291
 2801TIP3    H232599   0.121   9.147  16.722  0.4080 -1.5064  0.5682
 2802TIP3   OH232600   9.116   5.953  17.149  0.2705  0.0095  0.5922
 2802TIP3    H132601   9.057   6.018  17.111  1.2964  0.1444 -0.8257
 2802TIP3    H232602   9.116   5.880  17.087  0.6597 -0.5089  1.1831
 2803TIP3   OH232603   4.066   6.882  15.594 -0.1413 -0.0568  0.5082
 2803TIP3    H132604   4.055   6.796  15.554  1.1851  0.0568 -0.1400
 2803TIP3    H232605   4.154   6.909  15.570  0.5384  0.2598  3.0454
 2804TIP3   OH232606   8.732   7.028  16.419  0.2971  0.0056 -0.1621
 2804TIP3    H132607   8.787   7.107  16.418 -0.8333  0.8298  0.4957
 2804TIP3    H232608   8.701   7.019  16.328  1.4183 -0.4263 -0.5242
 2805TIP3   OH232609   3.068   7.960  17.418  0.2150 -0.4150 -0.1438
 2805TIP3    H132610   3.121   8.025  17.372 -0.9660  1.0850  0.5470
 2805TIP3    H232611   3.131   7.893  17.446  1.7143  1.1632  0.4053
 2806TIP3   OH232612   6.516   8.143  16.572  0.0322 -0.0997  0.4761
 2806TIP3    H132613   6.586   8.079  16.561  1.0645  0.8822  1.0276
 2806TIP3    H232614   6.562   8.225  16.592 -1.2738  0.6266  0.6259
 2807TIP3   OH232615   3.453   7.644  16.802  0.1818  0.1865  0.1018
 2807TIP3    H132616   3.423   7.700  16.873  0.0963  1.1852 -0.6862
 2807TIP3    H232617   3.510   7.580  16.844 -2.3930 -1.3287  1.5407
 2808TIP3   OH232618   0.277   8.667  16.269 -0.2314  0.2318  0.5116
 2808TIP3    H132619   0.207   8.706  16.217 -0.0443 -1.1338 -0.8455
 2808TIP3    H232620   0.357   8.691  16.222 -0.1037 -1.5767 -0.2751
 2809TIP3   OH232621   5.127   0.682  17.010  0.2647  0.7384  0.1603
 2809TIP3    H132622   5.048   0.717  16.968  0.5959  0.9838 -0.2721
 2809TIP3    H232623   5.100   0.597  17.044  0.1053  0.2967 -1.0030
 2810TIP3   OH232624   0.699   8.615  16.913 -0.1301  0.7254  0.0871
 2810TIP3    H132625   0.733   8.668  16.985 -1.5691  2.1550 -0.2175
 2810TIP3    H232626   0.757   8.636  16.839  0.7395  0.0217  0.5484
 2811TIP3   OH232627   3.414   5.937  16.147  0.4998 -0.3014 -0.7259
 2811TIP3    H132628   3.320   5.954  16.144  0.6309  0.5134 -0.6705
 2811TIP3    H232629   3.422   5.842  16.149 -0.4603 -0.4527  2.5636
 2812TIP3   OH232630   4.338   2.992  17.151 -0.6129 -0.0614 -0.7114
 2812TIP3    H132631   4.292   2.913  17.122 -0.2165 -0.3575 -0.5598
 2812TIP3    H232632   4.309   3.061  17.092 -1.2623 -0.2380 -0.6009
 2813TIP3   OH232633   7.581   1.152  16.822 -0.2288  0.0780  0.3614
 2813TIP3    H132634   7.580   1.113  16.909  1.7626  1.2727  0.9822
 2813TIP3    H232635   7.633   1.090  16.769 -2.3084 -1.1817 -0.3173
 2814TIP3   OH232636   0.659   5.404  16.147  0.7243 -0.2705 -0.5206
 2814TIP3    H132637   0.743   5.362  16.165  2.2219  2.7283  0.1580
 2814TIP3    H232638   0.598   5.364  16.209  1.4142 -2.9092 -1.3943
 2815TIP3   OH232639   5.895   8.281  16.102  0.0569  0.1530  0.2139
 2815TIP3    H132640   5.815   8.332  16.095 -0.1006 -0.2458 -1.0332
 2815TIP3    H232641   5.899   8.230  16.021  0.8960 -0.8120  0.8373
 2816TIP3   OH232642   8.017   2.305  17.612 -0.4416  0.4407 -0.1462
 2816TIP3    H132643   8.018   2.226  17.665 -0.9993  0.3919 -0.2029
 2816TIP3    H232644   7.983   2.373  17.671  0.7521  0.8193  0.1397
 2817TIP3   OH232645   1.055   0.274  17.346 -0.2048 -0.1151  0.6114
 2817TIP3    H132646   1.100   0.292  17.428 -0.1739  1.3629  0.2900
 2817TIP3    H232647   0.988   0.342  17.339  0.3236  0.3072 -0.9656
 2818TIP3   OH232648   8.963   7.532  16.481 -0.3449 -0.4502  0.3545
 2818TIP3    H132649   8.999   7.590  16.549 -1.4366  0.6612  0.0254
 2818TIP3    H232650   8.994   7.571  16.399 -0.5109 -0.7546  0.1485
 2819TIP3   OH232651   3.399   5.930  16.441  0.8617  0.1979  0.1802
 2819TIP3    H132652   3.488   5.906  16.467  1.5124  2.3307  0.1140
 2819TIP3    H232653   3.408   5.966  16.353  0.2698  2.0926  0.8429
 2820TIP3   OH232654   0.336   8.983  17.557 -0.5231  0.0022  0.2749
 2820TIP3    H132655   0.385   9.031  17.491 -1.6420  0.2051 -0.4207
 2820TIP3    H232656   0.363   8.892  17.546  0.8663  0.3052  0.9532
 2821TIP3   OH232657   6.467   6.064  16.097  0.1293  0.0201 -0.0240
 2821TIP3    H132658   6.450   6.108  16.181  0.9360  0.4264 -0.0668
 2821TIP3    H232659   6.431   5.976  16.109 -0.6930  0.4004  0.3832
 2822TIP3   OH232660   7.789   8.972  17.185 -0.7558  0.3249 -0.5383
 2822TIP3    H132661   7.731   8.906  17.148 -2.0041  1.1011 -0.0035
 2822TIP3    H232662   7.846   8.998  17.113 -1.2517 -0.2475 -1.1411
 2823TIP3   OH232663   7.109   4.350  16.443 -0.4262  0.2853  0.6862
 2823TIP3    H132664   7.141   4.419  16.501 -0.4902 -1.6257  3.1645
 2823TIP3    H232665   7.014   4.365  16.438 -0.2833  1.0710  0.1726
 2824TIP3   OH232666   6.373   8.152  16.334  0.9078 -0.3175 -0.1087
 2824TIP3    H132667   6.410   8.164  16.421  2.1778  0.2857 -0.7041
 2824TIP3    H232668   6.358   8.058  16.326  1.5653 -0.4716  0.4508
 2825TIP3   OH232669   1.721   7.095  16.942  0.9202  0.6807 -0.1097
 2825TIP3    H132670   1.788   7.042  16.986  1.7691  1.9586  0.1771
 2825TIP3    H232671   1.657   7.114  17.011  0.3348 -0.3552 -0.3339
 2826TIP3   OH232672   2.390   4.296  16.241 -0.6556 -0.4013  0.6116
 2826TIP3    H132673   2.451   4.366  16.262  0.9613 -2.0086  1.5975
 2826TIP3    H232674   2.442   4.216  16.246 -2.7566 -1.8360  1.1704
 2827TIP3   OH232675   4.605   0.230  17.112  0.4764 -0.0225  0.1863
 2827TIP3    H132676   4.646   0.205  17.029  1.5479 -0.4891  0.8275
 2827TIP3    H232677   4.518   0.261  17.088 -0.3698 -2.9230 -0.8390
 2828TIP3   OH232678   5.352   2.650  16.619 -0.4774  0.4662  0.4610
 2828TIP3    H132679   5.360   2.744  16.604  0.1496  0.0483 -2.6418
 2828TIP3    H232680   5.441   2.620  16.635 -0.4166  0.2255 -0.2572
 2829TIP3   OH232681   5.773   0.309  16.734  0.3409 -0.0239 -0.3465
 2829TIP3    H132682   5.699   0.276  16.785  0.4109  0.7096  0.2302
 2829TIP3    H232683   5.811   0.378  16.788 -1.3399  2.8689 -2.5720
 2830TIP3   OH232684   7.442   4.148  17.105  0.0737 -0.6176 -0.3141
 2830TIP3    H132685   7.465   4.121  17.016  0.7086  0.5181 -0.5160
 2830TIP3    H232686   7.414   4.239  17.095 -0.7125 -0.7649  0.5269
 2831TIP3   OH232687   4.869   2.957  17.619 -0.3525 -0.4560  0.2927
 2831TIP3    H132688   4.858   2.911  17.536 -2.0911  1.5190 -0.6532
 2831TIP3    H232689   4.840   2.895  17.686 -0.7769 -1.4042 -0.7505
 2832TIP3   OH232690   0.450   0.134  16.219 -0.2946  0.3676  0.0945
 2832TIP3    H132691   0.527   0.137  16.277  0.8044 -0.1042 -1.2740
 2832TIP3    H232692   0.477   0.185  16.143 -0.8538 -0.8634 -0.9577
 2833TIP3   OH232693   3.201   6.523  15.976 -0.3698  0.4229 -0.1066
 2833TIP3    H132694   3.120   6.572  15.962  0.4312  1.2054 -2.4255
 2833TIP3    H232695   3.252   6.578  16.036 -0.1630  1.6553 -1.3752
 2834TIP3   OH232696   4.103   7.361  17.620 -0.1797  0.2209 -0.3956
 2834TIP3    H132697   4.057   7.434  17.579 -1.9282 -0.2027  0.7270
 2834TIP3    H232698   4.196   7.381  17.607 -0.5915  2.7153  0.0070
 2835TIP3   OH232699   0.904   0.508  17.032  0.3731 -0.0600 -0.5827
 2835TIP3    H132700   0.891   0.414  17.015  0.5177 -0.3080  0.5929
 2835TIP3    H232701   0.993   0.514  17.067  0.4385  0.5552 -0.8410
 2836TIP3   OH232702   3.266   1.839  17.078 -0.6254 -0.0482 -0.5734
 2836TIP3    H132703   3.310   1.758  17.053 -1.4541 -0.7783  0.2782
 2836TIP3    H232704   3.289   1.901  17.009  0.0213 -1.0034 -1.2348
 2837TIP3   OH232705   8.344   6.438  16.879  1.2808 -0.2776  0.4926
 2837TIP3    H132706   8.437   6.427  16.859  0.5613 -0.7235 -3.3788
 2837TIP3    H232707   8.305   6.353  16.859 -0.1925  0.4292  0.2536
 2838TIP3   OH232708   1.654   0.944  17.536  0.2202 -0.7277  0.5144
 2838TIP3    H132709   1.742   0.938  17.500  0.2383  2.3898 -0.2668
 2838TIP3    H232710   1.667   0.973  17.626  0.0876  2.3375 -0.3427
 2839TIP3   OH232711   1.351   0.694  17.444  0.0710 -0.2002 -0.1329
 2839TIP3    H132712   1.429   0.659  17.401  1.0459  0.9409  0.6524
 2839TIP3    H232713   1.340   0.781  17.407 -1.2337 -0.5896 -0.7106
 2840TIP3   OH232714   6.155   3.374  17.329 -0.0967 -0.2291 -0.5768
 2840TIP3    H132715   6.161   3.326  17.411 -2.7478  0.7051  0.2711
 2840TIP3    H232716   6.079   3.431  17.340  0.5946  1.3311 -2.9846
 2841TIP3   OH232717   2.905   1.310  16.975 -0.0242  0.1127  0.2133
 2841TIP3    H132718   2.901   1.301  17.070  1.6156  0.4277  0.3342
 2841TIP3    H232719   2.863   1.394  16.957  0.3751  0.4213  0.7273
 2842TIP3   OH232720   0.536   5.293  17.429 -0.0773  0.1089 -0.0717
 2842TIP3    H132721   0.563   5.318  17.341  2.1892 -4.5093 -0.9648
 2842TIP3    H232722   0.611   5.316  17.485  0.3867 -1.0031 -0.2136
 2843TIP3   OH232723   5.687   7.992  17.146 -0.0964 -0.4015  0.1410
 2843TIP3    H132724   5.712   7.903  17.121  0.5624 -0.2281  0.1893
 2843TIP3    H232725   5.611   8.011  17.090 -0.2456 -0.9874  0.1287
 2844TIP3   OH232726   0.628   3.372  16.837 -0.3243 -0.1144  0.4892
 2844TIP3    H132727   0.534   3.391  16.831  0.0182  1.3439 -0.9969
 2844TIP3    H232728   0.638   3.328  16.922 -2.4786 -1.2183  0.2603
 2845TIP3   OH232729   7.000   5.226  17.334  0.0089 -0.9543  1.1631
 2845TIP3    H132730   6.909   5.204  17.312  0.7786 -2.5219 -0.6584
 2845TIP3    H232731   7.009   5.318  17.309 -0.4372 -1.4452 -0.9812
 2846TIP3   OH232732   7.350   6.250  16.022  0.4492 -0.2053  0.2115
 2846TIP3    H132733   7.409   6.325  16.016 -0.4136  0.4093 -1.2156
 2846TIP3    H232734   7.266   6.288  16.051 -0.0982 -0.5150 -0.8949
 2847TIP3   OH232735   1.201   6.856  17.251 -0.5349  0.1207 -0.0208
 2847TIP3    H132736   1.206   6.907  17.331 -1.9682 -0.9635  0.7991
 2847TIP3    H232737   1.235   6.770  17.274  0.6893  0.2919 -1.0573
 2848TIP3   OH232738   2.017   6.205  17.520  0.1677  0.1839  0.2030
 2848TIP3    H132739   1.966   6.164  17.450 -1.7106  0.3037  1.4273
 2848TIP3    H232740   2.038   6.133  17.580 -0.4913  0.4847  0.8103
 2849TIP3   OH232741   8.778   1.223  17.275  0.4528 -0.0444 -0.3958
 2849TIP3    H132742   8.868   1.255  17.264  0.2581  0.9816  0.7979
 2849TIP3    H232743   8.729   1.300  17.305  0.1475 -1.5668  3.5407
 2850TIP3   OH232744   6.867   1.272  17.127  0.2503 -1.1211  0.1151
 2850TIP3    H132745   6.800   1.323  17.174  2.4659 -0.2269  2.5835
 2850TIP3    H232746   6.942   1.331  17.122  1.6282 -2.8430 -0.5029
 2851TIP3   OH232747   0.154   8.060  17.490 -0.1775 -0.3609  0.1491
 2851TIP3    H132748   0.221   8.065  17.423  0.2090 -2.4755  0.3006
 2851TIP3    H232749   0.185   8.118  17.560  1.7164 -1.5387  0.3631
 2852TIP3   OH232750   7.963   7.772  16.296  0.7635 -0.2605 -0.0729
 2852TIP3    H132751   7.917   7.705  16.245 -0.2019 -0.2289  0.7135
 2852TIP3    H232752   8.056   7.752  16.284  0.7958  1.4717 -4.1424
 2853TIP3   OH232753   2.913   0.608  16.756 -0.0262 -0.5088  0.4202
 2853TIP3    H132754   2.994   0.569  16.790  0.1226  1.0952  2.0402
 2853TIP3    H232755   2.886   0.549  16.685  1.9667 -1.6680  0.5491
 2854TIP3   OH232756   3.429   1.859  15.619  0.2129  0.2394  0.0708
 2854TIP3    H132757   3.336   1.881  15.625  0.0147 -0.1523 -1.1863
 2854TIP3    H232758   3.459   1.903  15.540  1.0446  0.1439  0.3218
 2855TIP3   OH232759   5.624   5.163  16.398  0.0748  0.2396  0.5395
 2855TIP3    H132760   5.704   5.127  16.438 -0.0795  1.2391  1.8097
 2855TIP3    H232761   5.575   5.200  16.472 -0.4200  1.8180 -0.5312
 2856TIP3   OH232762   1.584   2.630  16.675  0.3069 -0.1658 -0.1334
 2856TIP3    H132763   1.536   2.628  16.757 -0.5747 -0.7706 -0.6483
 2856TIP3    H232764   1.638   2.709  16.680 -0.8759  0.6334  0.3856
 2857TIP3   OH232765   2.235   5.836  16.575  0.1556  0.3603 -0.0991
 2857TIP3    H132766   2.162   5.864  16.630  0.2219 -1.4703  1.0123
 2857TIP3    H232767   2.313   5.847  16.630  0.2780 -1.0095  0.0450
 2858TIP3   OH232768   1.259   7.525  17.743  0.3535 -0.0131 -0.1976
 2858TIP3    H132769   1.245   7.565  17.829 -2.0775 -1.6220  0.2675
 2858TIP3    H232770   1.249   7.596  17.680 -1.6955  0.5438  0.6959
 2859TIP3   OH232771   2.837   2.783  16.133 -0.0110 -0.4476  0.5217
 2859TIP3    H132772   2.868   2.698  16.100 -0.6086 -0.6070  0.3490
 2859TIP3    H232773   2.804   2.828  16.055  0.8083  0.1823  0.5185
 2860TIP3   OH232774   0.691   0.214  15.954  0.3796  0.2328  0.0335
 2860TIP3    H132775   0.616   0.267  15.979  0.6787  0.6007  0.1665
 2860TIP3    H232776   0.733   0.264  15.883  0.6870  0.1993  0.1900
 2861TIP3   OH232777   2.133   1.986  17.231  0.4544 -0.1173 -0.0989
 2861TIP3    H132778   2.149   1.984  17.325  0.4322 -1.6295 -0.1133
 2861TIP3    H232779   2.160   1.900  17.200  0.6917  0.4469 -1.5238
 2862TIP3   OH232780   0.103   4.481  17.616  0.1707  0.1022 -0.7634
 2862TIP3    H132781   0.160   4.473  17.692 -1.3177  0.7290  0.4833
 2862TIP3    H232782   0.063   4.394  17.607 -1.6170  0.6620  0.8812
 2863TIP3   OH232783   5.354   3.509  17.458 -0.5595 -0.2075 -0.3023
 2863TIP3    H132784   5.396   3.426  17.433 -0.6144 -0.3760  0.1527
 2863TIP3    H232785   5.422   3.575  17.443 -0.4721 -0.3500 -0.5423
 2864TIP3   OH232786   0.507   2.014  17.138  0.0876  0.2030  0.1544
 2864TIP3    H132787   0.467   2.101  17.140  1.2146  0.7526 -0.1971
 2864TIP3    H232788   0.570   2.018  17.065 -0.4723 -1.1967 -0.4435
 2865TIP3   OH232789   6.373   3.609  16.431 -0.2689  0.7960  0.2280
 2865TIP3    H132790   6.434   3.559  16.378 -0.0682  3.2655 -2.0996
 2865TIP3    H232791   6.290   3.561  16.424  0.6015 -0.8372  0.7228
 2866TIP3   OH232792   8.812   3.942  16.045 -0.1822 -0.1335 -0.3171
 2866TIP3    H132793   8.892   3.985  16.073 -1.0015  1.0212  0.3606
 2866TIP3    H232794   8.838   3.852  16.026  1.0630 -0.0614  0.9127
 2867TIP3   OH232795   0.741   9.203  17.184  0.1332 -0.5684 -0.3450
 2867TIP3    H132796   0.820   9.148  17.187 -0.4407 -1.4602 -1.1690
 2867TIP3    H232797   0.736   9.232  17.093  0.6458  1.2086  0.1597
 2868TIP3   OH232798   7.356   3.199  17.483 -0.2500  0.0755 -0.6015
 2868TIP3    H132799   7.280   3.198  17.542  0.0890  1.0631 -0.1305
 2868TIP3    H232800   7.348   3.281  17.435 -0.2367 -0.4823 -1.5690
 2869TIP3   OH232801   6.694   2.010  17.055 -0.2825  0.1459  0.0418
 2869TIP3    H132802   6.689   2.040  17.145 -1.5957  0.4007 -0.0997
 2869TIP3    H232803   6.606   1.979  17.035 -0.6813  2.2778 -1.8827
 2870TIP3   OH232804   6.461   8.959  16.726 -0.4455  0.2623  0.0273
 2870TIP3    H132805   6.379   8.991  16.765 -0.6867 -0.4905  0.1592
 2870TIP3    H232806   6.494   8.895  16.788  0.4300  0.7915  0.1280
 2871TIP3   OH232807   9.162   6.019  17.419 -0.0970  0.1579 -0.0909
 2871TIP3    H132808   9.173   6.055  17.331 -0.5163  1.9526  0.5435
 2871TIP3    H232809   9.114   5.938  17.406  0.6215 -0.0667 -1.5809
 2872TIP3   OH232810   8.272   8.756  16.402  0.4464  0.1933 -0.1154
 2872TIP3    H132811   8.327   8.809  16.344  0.3800  0.7932  0.3652
 2872TIP3    H232812   8.326   8.679  16.422  0.8879  0.5039 -0.1028
 2873TIP3   OH232813   0.072   3.555  17.466  0.5912 -0.1394 -0.6206
 2873TIP3    H132814   0.015   3.505  17.407 -2.5155  1.8769  0.4234
 2873TIP3    H232815   0.091   3.494  17.537  1.4666 -1.4816 -1.9347
 2874TIP3   OH232816   8.207   2.668  17.962  0.1994  0.2912  0.1415
 2874TIP3    H132817   8.239   2.737  17.904 -0.4405 -0.1248 -0.7330
 2874TIP3    H232818   8.229   2.698  18.050  0.8393  1.1216 -0.2878
 2875TIP3   OH232819   1.204   0.765  17.703  0.5219 -0.0912 -0.4077
 2875TIP3    H132820   1.115   0.780  17.736  0.6330 -1.2215  0.4787
 2875TIP3    H232821   1.192   0.740  17.611  0.0702  1.3236 -0.7636
 2876TIP3   OH232822   6.536   3.962  16.016 -0.3475 -0.3614  0.0424
 2876TIP3    H132823   6.546   4.057  16.016  1.5976 -0.5238 -0.4232
 2876TIP3    H232824   6.608   3.930  16.070 -0.8161 -1.5893 -0.0310
 2877TIP3   OH232825   6.321   4.670  16.197  0.5764 -0.3093  0.6891
 2877TIP3    H132826   6.325   4.754  16.151  2.9259  0.1402  1.5585
 2877TIP3    H232827   6.305   4.606  16.129 -1.8134  0.8155  0.0574
 2878TIP3   OH232828   2.511   4.806  16.031 -0.1371  0.8030 -0.3446
 2878TIP3    H132829   2.432   4.780  16.079  0.4685  0.1452  0.3175
 2878TIP3    H232830   2.558   4.724  16.016 -0.8148  0.8201 -3.0428
 2879TIP3   OH232831   1.273   7.627  16.359  0.0628  0.0137  0.0073
 2879TIP3    H132832   1.269   7.706  16.304 -0.0387  0.9789  1.3311
 2879TIP3    H232833   1.365   7.620  16.384  0.0212 -0.0891  0.1328
 2880TIP3   OH232834   2.622   0.641  16.474  0.0074 -0.0931 -0.1307
 2880TIP3    H132835   2.540   0.612  16.514 -2.1471  2.7882 -1.9336
 2880TIP3    H232836   2.608   0.735  16.459  3.1654  0.2486 -1.7016
 2881TIP3   OH232837   8.939   1.644  17.241  0.6611  0.5487 -0.4302
 2881TIP3    H132838   8.852   1.615  17.268  1.5766 -1.0937  0.9221
 2881TIP3    H232839   8.952   1.726  17.288 -0.0903  0.7287 -0.5223
 2882TIP3   OH232840   3.407   0.425  17.803 -0.5735 -0.0647 -0.1525
 2882TIP3    H132841   3.399   0.510  17.845 -3.4021 -0.6129  0.6645
 2882TIP3    H232842   3.380   0.440  17.713 -0.6241  0.0095 -0.1244
 2883TIP3   OH232843   8.477   8.821  17.581  0.2743 -0.1078 -0.2179
 2883TIP3    H132844   8.445   8.910  17.592 -1.3039 -0.6050 -0.6225
 2883TIP3    H232845   8.399   8.768  17.570  1.2328 -1.3776 -1.2772
 2884TIP3   OH232846   1.989   2.884  17.429  0.6763 -0.5843  0.1829
 2884TIP3    H132847   2.032   2.798  17.426  0.4506 -0.6885 -1.5709
 2884TIP3    H232848   1.902   2.867  17.393 -0.0662  0.0344  1.6340
 2885TIP3   OH232849   7.397   6.537  17.812 -0.3201 -0.2532 -0.2916
 2885TIP3    H132850   7.440   6.546  17.897 -1.0339  0.9936 -0.0195
 2885TIP3    H232851   7.445   6.596  17.754 -0.5186 -0.2555 -0.4607
 2886TIP3   OH232852   6.820   2.905  17.066  0.2255  0.8163 -0.1332
 2886TIP3    H132853   6.848   2.952  17.144 -0.2845  0.9501 -0.0304
 2886TIP3    H232854   6.744   2.954  17.034  0.4685  0.7965 -0.7472
 2887TIP3   OH232855   7.991   5.944  17.536  0.0606 -0.5290 -0.5252
 2887TIP3    H132856   7.920   5.984  17.485  1.2545 -0.8651 -2.5929
 2887TIP3    H232857   8.058   6.011  17.540  0.6769 -1.1094 -0.9472
 2888TIP3   OH232858   6.620   1.563  17.824 -0.1126  0.0529  0.2436
 2888TIP3    H132859   6.565   1.549  17.901  0.4952  0.7890  0.8237
 2888TIP3    H232860   6.558   1.568  17.751 -0.7559  0.1529  0.7865
 2889TIP3   OH232861   6.553   8.559  17.162 -0.1533 -0.1548  0.9418
 2889TIP3    H132862   6.598   8.549  17.246 -1.2019  0.5348  1.6019
 2889TIP3    H232863   6.473   8.606  17.182 -0.9129 -0.8367 -0.2974
 2890TIP3   OH232864   0.503   5.255  16.335 -0.0097 -0.4220 -0.4487
 2890TIP3    H132865   0.458   5.269  16.419  1.1233 -1.0496  0.2958
 2890TIP3    H232866   0.480   5.166  16.309  1.0092 -0.8803  0.1139
 2891TIP3   OH232867   8.852   6.682  17.513  0.2616 -0.5347 -0.2939
 2891TIP3    H132868   8.920   6.625  17.550  0.0820 -0.1322  0.6980
 2891TIP3    H232869   8.849   6.659  17.420  3.4527  1.0835 -0.9469
 2892TIP3   OH232870   5.139   6.094  15.705  0.6198  0.0947 -0.1312
 2892TIP3    H132871   5.155   6.079  15.799  0.5422  0.4140 -0.0663
 2892TIP3    H232872   5.044   6.098  15.698  0.5974 -0.6108 -0.3323
 2893TIP3   OH232873   8.798   0.114  17.736  0.7527  0.2424  0.1090
 2893TIP3    H132874   8.825   0.193  17.782  1.4020 -0.6006  1.2074
 2893TIP3    H232875   8.751   0.062  17.801 -0.5382  0.1280 -0.8490
 2894TIP3   OH232876   9.104   7.739  17.608  0.7143 -0.8304 -0.2658
 2894TIP3    H132877   9.196   7.732  17.632  0.4078 -1.0129  0.9038
 2894TIP3    H232878   9.056   7.709  17.686 -0.4085  2.4007  0.4258
 2895TIP3   OH232879   3.116   5.328  16.167  0.1855 -0.0682  0.4098
 2895TIP3    H132880   3.101   5.302  16.257  0.5578 -0.1297  0.4557
 2895TIP3    H232881   3.031   5.361  16.137 -0.3729 -1.5679  0.2643
 2896TIP3   OH232882   4.829   1.262  17.887 -0.2794 -0.4147  0.3194
 2896TIP3    H132883   4.757   1.259  17.949 -1.0356 -1.4159 -0.5743
 2896TIP3    H232884   4.907   1.242  17.940 -0.8499 -0.8514  1.0058
 2897TIP3   OH232885   1.094   0.695  17.418  0.7293 -0.1990 -0.1710
 2897TIP3    H132886   1.187   0.672  17.417  0.3683 -1.8315 -1.4771
 2897TIP3    H232887   1.056   0.640  17.350 -0.9692  1.4521 -0.6294
 2898TIP3   OH232888   3.066   6.752  17.186  0.1043 -0.3566  0.7851
 2898TIP3    H132889   3.087   6.665  17.152 -0.2172 -0.5066  0.9634
 2898TIP3    H232890   2.972   6.761  17.173  0.1964  0.1302  0.3991
 2899TIP3   OH232891   2.690   6.561  16.708  0.4315  0.1572 -0.3827
 2899TIP3    H132892   2.700   6.528  16.797  1.6678  1.6866  0.0964
 2899TIP3    H232893   2.601   6.597  16.706  0.3878  0.0896  0.2429
 2900TIP3   OH232894   0.151   1.265  16.410 -0.0711  0.3686 -0.9395
 2900TIP3    H132895   0.130   1.358  16.410  0.0093  0.4250  1.2266
 2900TIP3    H232896   0.232   1.258  16.460 -0.2880 -0.9019 -0.7084
 2901TIP3   OH232897   6.876   7.347  16.994 -0.2642 -0.3285  0.0663
 2901TIP3    H132898   6.965   7.377  17.010 -0.5050  0.4335  0.0267
 2901TIP3    H232899   6.857   7.289  17.068  0.3038 -0.6014  0.0049
 2902TIP3   OH232900   8.569   8.409  15.910  0.4668 -0.0007  0.3275
 2902TIP3    H132901   8.486   8.403  15.957 -0.5610  2.4822 -0.9511
 2902TIP3    H232902   8.628   8.452  15.971  0.7003 -1.3522  1.0795
 2903TIP3   OH232903   1.063   2.931  16.032  0.0703 -0.3843 -0.0766
 2903TIP3    H132904   1.065   3.014  16.080  3.3948 -0.3396 -0.0808
 2903TIP3    H232905   0.975   2.897  16.048 -1.1549  2.7151  0.5907
 2904TIP3   OH232906   3.144   6.949  16.732  0.1332 -0.2724 -0.4320
 2904TIP3    H132907   3.128   7.039  16.702 -0.1625  0.1141  0.8419
 2904TIP3    H232908   3.127   6.952  16.826  0.5396 -1.5734 -0.3085
 2905TIP3   OH232909   6.983   5.934  16.615  0.2920 -0.4046 -0.1757
 2905TIP3    H132910   6.963   5.842  16.598 -0.2913 -0.1054 -1.1912
 2905TIP3    H232911   7.078   5.940  16.602  0.1196 -0.5544 -1.7560
 2906TIP3   OH232912   1.179   4.009  17.036  0.1591  0.9127 -0.9456
 2906TIP3    H132913   1.192   3.964  17.119  0.6679  1.0570 -0.9484
 2906TIP3    H232914   1.137   3.943  16.980 -0.2305  0.8300 -0.5647
 2907TIP3   OH232915   4.127   5.886  17.419  0.1780 -0.5094  0.4261
 2907TIP3    H132916   4.165   5.952  17.477  1.3713  0.0400 -0.9521
 2907TIP3    H232917   4.198   5.825  17.401 -0.1372 -0.6034 -0.5636
 2908TIP3   OH232918   8.262   1.028  16.131  0.1420  0.4248  0.1864
 2908TIP3    H132919   8.315   1.098  16.093 -0.3372 -0.6157 -2.6286
 2908TIP3    H232920   8.318   0.951  16.129  0.1385  0.3256  1.8576
 2909TIP3   OH232921   8.652   3.219  16.691  0.5927  0.0505  0.4446
 2909TIP3    H132922   8.580   3.244  16.749 -0.3508 -3.5904  1.0622
 2909TIP3    H232923   8.728   3.264  16.728 -0.5090  0.1335  2.7840
 2910TIP3   OH232924   3.018   5.165  16.447  0.6041 -0.3269  0.1571
 2910TIP3    H132925   3.078   5.140  16.517  0.1915  0.9507  0.9971
 2910TIP3    H232926   3.022   5.261  16.444 -0.2095 -0.3023 -0.8285
 2911TIP3   OH232927   6.990   3.966  15.875  0.3554 -0.3923  0.2254
 2911TIP3    H132928   7.041   3.895  15.836  2.7350  0.6316  1.2523
 2911TIP3    H232929   7.008   3.959  15.969  0.5777  1.4641  0.3513
 2912TIP3   OH232930   2.961   9.103  16.742  0.0330  0.3100  0.2400
 2912TIP3    H132931   3.044   9.096  16.695  0.8718  1.2429  1.4988
 2912TIP3    H232932   2.907   9.160  16.688  1.4648  2.4891  0.9731
 2913TIP3   OH232933   0.606   7.114  15.751  0.2346 -0.0122  0.2734
 2913TIP3    H132934   0.660   7.173  15.699 -0.1810  0.9684  0.9258
 2913TIP3    H232935   0.601   7.156  15.837 -0.4261 -0.7882  0.6269
 2914TIP3   OH232936   8.904   8.040  15.861  0.1126 -0.4271 -0.0160
 2914TIP3    H132937   8.888   8.094  15.784  2.1029 -0.5985 -0.6145
 2914TIP3    H232938   8.910   8.103  15.933 -0.5524 -0.1558 -0.1829
 2915TIP3   OH232939   1.477   8.467  15.876  0.2362 -0.0404 -0.1063
 2915TIP3    H132940   1.441   8.445  15.962 -0.0873 -0.3648 -0.3181
 2915TIP3    H232941   1.419   8.535  15.842  0.1168 -0.2093 -0.2408
 2916TIP3   OH232942   4.527   2.170  17.156 -0.2847 -0.1775 -0.0933
 2916TIP3    H132943   4.585   2.180  17.081 -0.5648  0.1894 -0.2641
 2916TIP3    H232944   4.477   2.090  17.138  1.3696 -1.5159  0.8741
 2917TIP3   OH232945   9.171   7.386  16.107  0.3557 -0.1038 -0.9190
 2917TIP3    H132946   9.263   7.387  16.134 -0.1249  1.4538  0.8338
 2917TIP3    H232947   9.156   7.473  16.068 -0.3408 -0.3929 -1.3168
 2918TIP3   OH232948   6.296   9.138  17.800  0.5557  0.7381  0.3329
 2918TIP3    H132949   6.305   9.054  17.755 -1.6750  1.2674 -1.2469
 2918TIP3    H232950   6.386   9.170  17.809  1.3000 -0.8840 -0.8284
 2919TIP3   OH232951   4.156   1.985  17.873 -0.2488  0.1348 -0.2249
 2919TIP3    H132952   4.166   1.972  17.967  0.5831  2.7140  0.1437
 2919TIP3    H232953   4.078   2.039  17.864 -0.6359 -0.5444 -1.0864
 2920TIP3   OH232954   3.598   7.471  15.979 -0.1299 -0.0915  0.3328
 2920TIP3    H132955   3.678   7.421  15.960  0.9029  2.5516 -3.5130
 2920TIP3    H232956   3.627   7.540  16.039 -0.6167 -1.4384  2.2377
 2921TIP3   OH232957   2.177   2.523  17.192  0.6895  0.4698 -0.2304
 2921TIP3    H132958   2.165   2.437  17.152 -0.5851  0.6154 -0.2012
 2921TIP3    H232959   2.230   2.505  17.270  0.0100 -0.3870  0.0587
 2922TIP3   OH232960   6.516   0.296  17.687 -0.1699 -0.1232 -0.6211
 2922TIP3    H132961   6.424   0.324  17.685 -0.1884  0.0347  1.3243
 2922TIP3    H232962   6.562   0.370  17.727  0.4538 -1.0855  0.4772
 2923TIP3   OH232963   9.031   2.538  17.499  0.6811  0.6613 -0.7435
 2923TIP3    H132964   9.046   2.545  17.405 -0.3870  0.1714 -0.9664
 2923TIP3    H232965   9.097   2.595  17.539  3.1572 -1.3955 -1.6202
 2924TIP3   OH232966   9.016   4.772  16.613  0.6138 -0.4066  0.4005
 2924TIP3    H132967   9.091   4.814  16.570  0.0959 -0.1131 -0.2264
 2924TIP3    H232968   8.953   4.842  16.627 -0.2940 -0.9582 -0.7323
 2925TIP3   OH232969   8.207   5.094  17.642  0.5283 -0.1255 -0.3465
 2925TIP3    H132970   8.268   5.124  17.710  1.0832 -0.0914 -0.8502
 2925TIP3    H232971   8.249   5.118  17.559 -0.5332  0.5957 -0.6992
 2926TIP3   OH232972   6.964   4.681  16.299  0.3213 -0.5999 -0.3378
 2926TIP3    H132973   6.945   4.602  16.349 -0.8584 -2.0320 -2.8413
 2926TIP3    H232974   6.935   4.661  16.210  1.5774  2.0549 -1.4718
 2927TIP3   OH232975   6.921   5.905  16.118  0.1884  0.2879 -0.0748
 2927TIP3    H132976   6.958   5.848  16.050 -0.0145  0.5568 -0.4160
 2927TIP3    H232977   6.887   5.845  16.184 -1.0162 -0.0330 -0.9540
 2928TIP3   OH232978   3.887   8.163  17.350  0.6679 -0.1605  0.4007
 2928TIP3    H132979   3.940   8.175  17.271  2.3742 -0.4801  1.4459
 2928TIP3    H232980   3.925   8.225  17.413 -1.3732  0.8934  0.6788
 2929TIP3   OH232981   4.330   1.090  16.923 -0.6001  0.1889 -0.5726
 2929TIP3    H132982   4.276   1.158  16.963 -1.2779 -0.8640  0.3585
 2929TIP3    H232983   4.391   1.138  16.866 -1.0283  1.5636  0.0872
 2930TIP3   OH232984   6.785   1.819  16.285 -0.0142  0.2320  0.7150
 2930TIP3    H132985   6.818   1.789  16.201 -2.4775 -0.3185 -0.1261
 2930TIP3    H232986   6.796   1.914  16.283  1.1735  0.1009  0.3628
 2931TIP3   OH232987   5.697   3.924  17.466 -0.1656 -0.5347  0.1635
 2931TIP3    H132988   5.636   3.984  17.510  0.0132  0.6388 -1.1212
 2931TIP3    H232989   5.645   3.845  17.450 -0.5146 -0.6010  1.5580
 2932TIP3   OH232990   6.143   6.626  16.066  0.2291 -0.1796 -0.0071
 2932TIP3    H132991   6.110   6.602  15.980  1.4304 -1.5206 -0.1246
 2932TIP3    H232992   6.066   6.620  16.123  0.1304 -2.9558 -0.3199
 2933TIP3   OH232993   9.166   0.403  17.162 -0.4121  0.4510  0.6694
 2933TIP3    H132994   9.110   0.335  17.125  3.4171 -2.2976 -0.7228
 2933TIP3    H232995   9.181   0.463  17.089 -2.2597  1.8358  1.3592
 2934TIP3   OH232996   8.964   9.175  16.475 -0.8937  0.1153 -0.1772
 2934TIP3    H132997   8.876   9.141  16.493  0.0522 -1.7795  1.1661
 2934TIP3    H232998   9.023   9.115  16.521  1.1840  0.7064 -1.9167
 2935TIP3   OH232999   6.900   3.723  17.565 -0.4844 -0.5743 -0.6548
 2935TIP3    H133000   6.986   3.759  17.545 -1.1380 -0.0418 -2.7420
 2935TIP3    H233001   6.918   3.642  17.613  1.2318 -1.3346 -2.4746
 2936TIP3   OH233002   6.452   2.609  17.381 -0.3767 -0.7702  0.4729
 2936TIP3    H133003   6.504   2.687  17.362 -1.5789 -0.0350  0.0930
 2936TIP3    H233004   6.460   2.554  17.303  0.1008 -0.8266  0.5583
 2937TIP3   OH233005   0.218   5.264  17.027 -0.0498  0.5505 -0.0987
 2937TIP3    H133006   0.206   5.355  17.001  1.6557  1.4983  2.0867
 2937TIP3    H233007   0.130   5.226  17.027 -0.6169  1.6833 -2.6154
 2938TIP3   OH233008   8.509   3.814  16.485  1.0889 -0.1321  0.0891
 2938TIP3    H133009   8.473   3.726  16.495  0.1089  0.1658 -0.6228
 2938TIP3    H233010   8.599   3.807  16.516  0.9303 -1.3066  0.3347
 2939TIP3   OH233011   7.782   2.297  16.517 -0.2750  0.4889 -0.2212
 2939TIP3    H133012   7.808   2.205  16.509  0.2770  0.6953 -0.8373
 2939TIP3    H233013   7.704   2.304  16.462  0.6396  0.7602 -1.5098
 2940TIP3   OH233014   5.388   5.208  16.944  0.6541  0.6135 -0.2047
 2940TIP3    H133015   5.308   5.156  16.943  1.0082  0.0251 -1.5072
 2940TIP3    H233016   5.359   5.299  16.938  0.0696  0.4545  0.1949
 2941TIP3   OH233017   3.127   1.190  17.404  0.1373 -0.0776 -0.4890
 2941TIP3    H133018   3.221   1.201  17.391 -0.0964 -0.1191 -2.7768
 2941TIP3    H233019   3.114   1.095  17.408  0.0763 -0.1620 -1.9027
 2942TIP3   OH233020   6.504   4.112  17.172 -0.3785  0.3532  0.3772
 2942TIP3    H133021   6.551   4.164  17.107  1.8607 -0.2964  1.3678
 2942TIP3    H233022   6.518   4.158  17.254 -2.2713  0.5874  0.6143
 2943TIP3   OH233023   4.970   0.386  16.954 -0.7122 -0.2839  0.4050
 2943TIP3    H133024   5.053   0.422  16.923 -0.4845 -0.5599  0.6851
 2943TIP3    H233025   4.947   0.439  17.030 -0.6014 -0.4363  0.5480
 2944TIP3   OH233026   1.227   1.228  16.546 -0.5120  0.0855  0.1190
 2944TIP3    H133027   1.287   1.159  16.573  0.9263  0.9196 -0.8188
 2944TIP3    H233028   1.225   1.222  16.450 -1.3432  0.5546  0.0978
 2945TIP3   OH233029   6.534   5.235  16.781  0.5850  0.1071  0.2079
 2945TIP3    H133030   6.492   5.174  16.841  0.0199 -0.1504 -0.4392
 2945TIP3    H233031   6.585   5.180  16.722  1.0790  0.3547  0.3933
 2946TIP3   OH233032   1.767   1.987  17.119  0.1152 -0.0542 -0.1980
 2946TIP3    H133033   1.697   1.941  17.074 -1.9494  1.9812  0.7770
 2946TIP3    H233034   1.839   1.923  17.123 -2.0785 -2.6847 -0.1012
 2947TIP3   OH233035   5.122   3.016  17.685  0.2703 -0.5509  0.3983
 2947TIP3    H133036   5.102   2.992  17.775 -0.0321 -0.2113  0.4231
 2947TIP3    H233037   5.045   2.991  17.635 -0.8527  1.9928  0.7032
 2948TIP3   OH233038   6.755   6.618  17.567  0.0931 -1.2565 -0.3440
 2948TIP3    H133039   6.753   6.705  17.527  1.5267 -1.3917 -0.7756
 2948TIP3    H233040   6.674   6.613  17.618  0.0158  0.3647 -0.2397
 2949TIP3   OH233041   4.922   9.047  16.447  0.0659 -0.2719  0.6013
 2949TIP3    H133042   4.907   9.128  16.399 -0.2208  0.0099  1.1695
 2949TIP3    H233043   4.976   8.994  16.388  2.0445  1.1521  1.0467
 2950TIP3   OH233044   1.318   0.308  17.117  0.2223  0.4136 -0.5741
 2950TIP3    H133045   1.404   0.298  17.075  0.5552 -1.8565  0.4729
 2950TIP3    H233046   1.260   0.251  17.066 -0.8084  2.1312 -1.4389
 2951TIP3   OH233047   6.436   7.944  17.416  0.3908 -0.1898  0.2267
 2951TIP3    H133048   6.388   7.887  17.477  0.6384 -0.4182  0.2065
 2951TIP3    H233049   6.493   7.996  17.472 -0.0241  0.2232  0.2684
 2952TIP3   OH233050   3.527   5.586  16.366  0.1137 -0.2302 -0.0483
 2952TIP3    H133051   3.558   5.506  16.323  1.0938 -0.4794  1.0557
 2952TIP3    H233052   3.605   5.620  16.411 -0.1147  1.7235 -1.0195
 2953TIP3   OH233053   0.517   0.431  17.593  0.3707 -0.1994 -0.6734
 2953TIP3    H133054   0.603   0.469  17.577  0.3060 -0.5184 -1.8383
 2953TIP3    H233055   0.494   0.387  17.512 -0.2634 -1.3690  0.1162
 2954TIP3   OH233056   0.821   9.085  18.146 -0.4777  0.9367  0.0106
 2954TIP3    H133057   0.809   9.177  18.172  1.4312  1.1094  0.4019
 2954TIP3    H233058   0.878   9.089  18.070  0.7976  0.0214  0.8899
 2955TIP3   OH233059   9.083   2.356  16.035 -0.7668  0.3242 -0.1848
 2955TIP3    H133060   9.156   2.320  16.086 -0.4800  0.9047 -0.1732
 2955TIP3    H233061   9.092   2.451  16.045 -1.2884  0.4114 -0.5176
 2956TIP3   OH233062   7.333   0.252  16.379  0.1305 -0.0371 -0.3026
 2956TIP3    H133063   7.373   0.311  16.315 -0.3041  0.9640  0.3251
 2956TIP3    H233064   7.313   0.308  16.454 -2.1058 -0.5618 -0.4317
 2957TIP3   OH233065   3.980   8.574  17.567 -0.5233 -0.7088 -0.1819
 2957TIP3    H133066   3.903   8.630  17.575 -1.6213 -2.1568 -0.0801
 2957TIP3    H233067   4.032   8.614  17.497 -2.2374 -0.6413 -1.4790
 2958TIP3   OH233068   1.676   9.173  16.701 -0.4162  0.1839 -0.3355
 2958TIP3    H133069   1.605   9.226  16.737  0.4875  1.5126 -0.4415
 2958TIP3    H233070   1.732   9.155  16.776  0.2923  1.0510 -0.6387
 2959TIP3   OH233071   2.597   6.231  16.368  0.0296  0.0205  0.5861
 2959TIP3    H133072   2.637   6.315  16.392  0.8349  0.2605 -1.4152
 2959TIP3    H233073   2.644   6.204  16.289 -3.3549  0.0456 -1.6346
 2960TIP3   OH233074   2.544   7.605  17.605  0.1683 -0.3775 -0.4124
 2960TIP3    H133075   2.460   7.651  17.598  1.0891  1.3888 -0.4964
 2960TIP3    H233076   2.588   7.624  17.522  1.8639  1.3371  0.7861
 2961TIP3   OH233077   0.378   3.143  17.045 -0.3506 -0.5900 -0.3369
 2961TIP3    H133078   0.331   3.059  17.054 -1.5817 -0.0729 -1.5860
 2961TIP3    H233079   0.353   3.175  16.958  1.2603  0.3991 -0.4724
 2962TIP3   OH233080   2.905   0.868  17.594  0.3563 -0.5897 -0.3183
 2962TIP3    H133081   2.977   0.818  17.633  1.3633 -0.3544 -1.8096
 2962TIP3    H233082   2.937   0.894  17.508 -0.2879  2.2758  0.1917
 2963TIP3   OH233083   7.490   6.489  16.074 -0.1736 -0.5071 -0.1136
 2963TIP3    H133084   7.547   6.475  16.149 -0.8719 -0.7110  0.3964
 2963TIP3    H233085   7.533   6.557  16.023  0.4704 -0.5934  0.3020
 2964TIP3   OH233086   7.835   7.692  16.552  0.6956 -0.0481  0.1184
 2964TIP3    H133087   7.905   7.715  16.491  0.5064  1.3208  0.3745
 2964TIP3    H233088   7.771   7.645  16.499  2.1429 -2.0628  0.0510
 2965TIP3   OH233089   1.718   6.459  16.055 -1.0196  0.5233 -1.3170
 2965TIP3    H133090   1.668   6.540  16.064 -1.0682  0.6949 -2.7891
 2965TIP3    H233091   1.794   6.484  16.001  0.0125 -0.0019 -0.1449
 2966TIP3   OH233092   6.595   7.848  16.863  0.1052 -0.4194  0.1056
 2966TIP3    H133093   6.555   7.845  16.776 -1.3235 -0.2830  0.7294
 2966TIP3    H233094   6.554   7.923  16.905  1.5725  0.1713  0.5467
 2967TIP3   OH233095   2.165   1.896  17.591  0.0490 -0.2250  0.1464
 2967TIP3    H133096   2.099   1.888  17.659 -0.8035 -0.1128 -0.6514
 2967TIP3    H233097   2.155   1.817  17.537 -0.5015  0.5137 -0.8768
 2968TIP3   OH233098   5.533   4.953  17.244 -0.4945 -0.3996  0.1873
 2968TIP3    H133099   5.567   4.911  17.165  0.0017 -1.4680  0.9422
 2968TIP3    H233100   5.438   4.952  17.232 -0.5607 -2.3730  0.4370
 2969TIP3   OH233101   0.999   8.334  16.825 -0.0720 -0.0784 -0.1481
 2969TIP3    H133102   1.035   8.316  16.738 -0.3046 -0.2413 -0.2095
 2969TIP3    H233103   0.950   8.255  16.847 -0.3164  0.1086 -0.0213
 2970TIP3   OH233104   1.592   6.544  16.939 -0.3536  0.0386 -0.2748
 2970TIP3    H133105   1.544   6.625  16.923 -1.9734 -0.7695  0.2670
 2970TIP3    H233106   1.588   6.532  17.033  2.0968  0.5834 -0.0188
 2971TIP3   OH233107   0.917   8.590  16.200  0.1052  0.0745 -0.2452
 2971TIP3    H133108   0.848   8.524  16.191 -0.8499  0.9761  0.1954
 2971TIP3    H233109   0.972   8.578  16.123 -1.5686  0.4883 -1.5592
 2972TIP3   OH233110   0.006   8.330  16.703  0.2160  0.7306  0.4913
 2972TIP3    H133111   0.046   8.363  16.623 -3.2998  2.4019 -0.7439
 2972TIP3    H233112   0.027   8.396  16.769  2.1535 -0.0878  0.7812
 2973TIP3   OH233113   1.480   4.436  16.599 -0.1446  0.0081 -0.6070
 2973TIP3    H133114   1.524   4.514  16.565  1.4974 -0.2627  0.7421
 2973TIP3    H233115   1.496   4.438  16.693  0.0229 -1.9957 -0.5400
 2974TIP3   OH233116   7.977   6.100  16.853  0.2138 -0.3247  0.1687
 2974TIP3    H133117   7.984   6.018  16.804 -1.7554  1.0885 -2.7571
 2974TIP3    H233118   7.902   6.087  16.911 -0.1305 -0.5842 -0.3232
 2975TIP3   OH233119   4.372   3.217  17.585 -0.0756  0.0833 -0.1818
 2975TIP3    H133120   4.431   3.213  17.660 -0.5931 -0.5504  0.1986
 2975TIP3    H233121   4.379   3.130  17.545 -2.4372 -0.8189  1.1845
 2976TIP3   OH233122   6.585   5.611  17.733  0.4091 -0.6292 -0.5656
 2976TIP3    H133123   6.556   5.523  17.708  0.2409 -0.5216 -0.7549
 2976TIP3    H233124   6.637   5.597  17.812 -0.7547 -0.7492  0.1969
 2977TIP3   OH233125   3.264   8.810  16.871  0.1895 -0.0844  0.2116
 2977TIP3    H133126   3.207   8.882  16.845  1.5159  1.1328  0.5641
 2977TIP3    H233127   3.249   8.800  16.965  0.9357  0.6164  0.4177
 2978TIP3   OH233128   2.116   7.553  16.281 -0.1568 -0.2026 -0.1405
 2978TIP3    H133129   2.171   7.558  16.359  0.5752 -1.3640 -0.5570
 2978TIP3    H233130   2.177   7.545  16.208 -0.8534 -0.6061 -0.6913
 2979TIP3   OH233131   2.785   1.555  17.005  0.0570 -0.4199  0.4907
 2979TIP3    H133132   2.793   1.648  16.985  1.1049 -0.8747 -1.4261
 2979TIP3    H233133   2.764   1.552  17.098 -0.7678  1.7453  0.4148
 2980TIP3   OH233134   6.354   7.008  16.219  0.5007  0.1665 -0.0408
 2980TIP3    H133135   6.292   7.064  16.173  2.2352  2.4275  0.1634
 2980TIP3    H233136   6.424   7.068  16.246  0.9935 -1.5513  2.9523
 2981TIP3   OH233137   7.605   6.525  17.220  0.4516 -0.2465  0.5567
 2981TIP3    H133138   7.692   6.563  17.226  0.2193  0.6442 -1.1573
 2981TIP3    H233139   7.614   6.452  17.159 -0.1340  0.3798 -0.3156
 2982TIP3   OH233140   1.721   6.712  16.663  0.0880 -0.2224 -0.4016
 2982TIP3    H133141   1.658   6.782  16.682  1.2911  0.9035 -0.3920
 2982TIP3    H233142   1.668   6.641  16.628 -1.2037  0.6295 -0.2554
 2983TIP3   OH233143   3.351   4.599  17.173  0.6451  0.3988  0.3140
 2983TIP3    H133144   3.298   4.583  17.095  1.8963 -1.4689 -0.2176
 2983TIP3    H233145   3.404   4.676  17.150 -0.2615  0.9446  0.0241
 2984TIP3   OH233146   7.580   6.532  16.772 -0.2300 -0.2076  0.1480
 2984TIP3    H133147   7.584   6.462  16.837  0.7695 -1.0292 -0.7658
 2984TIP3    H233148   7.490   6.528  16.739  0.1972 -2.0391 -0.9089
 2985TIP3   OH233149   8.960   7.890  16.472 -0.1482 -0.2921  0.3385
 2985TIP3    H133150   8.996   7.974  16.499  0.0173 -0.1671 -0.2515
 2985TIP3    H233151   9.008   7.825  16.522  1.5718 -0.1947 -1.0911
 2986TIP3   OH233152   0.594   6.113  16.297  0.7949  0.0967  0.2676
 2986TIP3    H133153   0.681   6.126  16.335  0.2263  0.6217  1.4318
 2986TIP3    H233154   0.579   6.019  16.304  1.2896 -0.0095 -0.0047
 2987TIP3   OH233155   3.128   2.261  15.962 -0.3854  0.1200  0.4029
 2987TIP3    H133156   3.178   2.338  15.989  1.2471 -0.7095 -0.1241
 2987TIP3    H233157   3.073   2.240  16.038 -0.3655  1.3891  0.7884
 2988TIP3   OH233158   2.121   7.961  17.211 -0.9946  0.1974 -0.3902
 2988TIP3    H133159   2.123   7.984  17.304 -1.8175 -0.9409 -0.0734
 2988TIP3    H233160   2.210   7.933  17.192 -0.2453  2.4517 -0.5186
 2989TIP3   OH233161   0.409   2.264  17.134  0.3845 -0.1349 -0.3797
 2989TIP3    H133162   0.460   2.343  17.115  0.4441 -0.1897 -0.4470
 2989TIP3    H233163   0.318   2.293  17.127  0.3964  0.1515  0.5145
 2990TIP3   OH233164   5.359   1.376  17.991 -0.3305 -0.2755  0.0875
 2990TIP3    H133165   5.449   1.382  17.958 -0.7320 -0.2197 -1.0324
 2990TIP3    H233166   5.339   1.465  18.021  0.4716 -0.6005  1.7261
 2991TIP3   OH233167   1.940   0.961  17.556 -0.1588 -0.0836  0.5976
 2991TIP3    H133168   2.018   0.986  17.506  0.1010  0.5043  1.2737
 2991TIP3    H233169   1.944   1.015  17.635 -3.0257  2.5634 -0.8383
 2992TIP3   OH233170   2.474   1.171  17.568 -0.4927  0.0444  0.5116
 2992TIP3    H133171   2.446   1.080  17.571  0.7331 -0.3395  0.7957
 2992TIP3    H233172   2.494   1.194  17.659 -0.2512  0.4186  0.3686
 2993TIP3   OH233173   5.462   6.001  16.571  0.3584 -0.1092 -0.6830
 2993TIP3    H133174   5.389   6.062  16.562 -0.3494 -0.9438 -0.7503
 2993TIP3    H233175   5.536   6.056  16.597 -0.8973  0.4482  2.1173
 2994TIP3   OH233176   0.426   0.253  17.942 -0.0741 -0.0008  0.4821
 2994TIP3    H133177   0.364   0.320  17.914 -0.4176 -0.8300 -0.8334
 2994TIP3    H233178   0.412   0.245  18.037 -2.7366 -0.9057  0.0816
 2995TIP3   OH233179   1.484   5.046  17.005 -0.0468  0.5542 -0.2472
 2995TIP3    H133180   1.547   5.116  17.017 -0.2679  0.5465  1.1538
 2995TIP3    H233181   1.402   5.081  17.039 -0.5945  0.2505 -1.2127
 2996TIP3   OH233182   3.565   1.231  17.126  0.1689 -0.2765 -0.2454
 2996TIP3    H133183   3.550   1.160  17.064  1.4615 -0.9644  0.1714
 2996TIP3    H233184   3.606   1.300  17.075  0.7018 -0.6120 -0.2750
 2997TIP3   OH233185   3.732   7.964  17.230 -0.3085  0.1688  0.2663
 2997TIP3    H133186   3.801   7.920  17.180 -1.1862 -2.3410  1.1511
 2997TIP3    H233187   3.775   8.043  17.263  1.7392 -0.6076 -0.3454
 2998TIP3   OH233188   1.024   2.453  16.504 -0.3761 -0.2134  0.0182
 2998TIP3    H133189   0.983   2.512  16.567  0.6845  0.7569 -0.1697
 2998TIP3    H233190   0.955   2.390  16.482 -0.9269 -0.2567  1.7239
 2999TIP3   OH233191   6.088   4.189  16.686 -0.4104  0.3650  0.5215
 2999TIP3    H133192   6.164   4.223  16.733  1.3409 -2.0062 -0.3888
 2999TIP3    H233193   6.084   4.097  16.712  0.2996 -0.9533 -3.3821
 3000TIP3   OH233194   3.344   0.428  17.235  0.2542  0.2211  0.1045
 3000TIP3    H133195   3.385   0.371  17.170  0.0302  1.1350 -0.8752
 3000TIP3    H233196   3.252   0.429  17.211  0.0388 -0.0351  0.9117
 3001TIP3   OH233197   5.797   8.596  16.662 -0.2507  0.4511  0.3866
 3001TIP3    H133198   5.796   8.609  16.567 -1.3279  0.3775  0.3712
 3001TIP3    H233199   5.889   8.592  16.685  0.0427  1.4607 -0.5234
 3002TIP3   OH233200   6.974   1.595  16.451 -0.0465  0.0846 -0.5029
 3002TIP3    H133201   6.955   1.671  16.397  1.0131  0.2973 -0.6093
 3002TIP3    H233202   6.891   1.548  16.458 -0.5466  0.8786 -1.0172
 3003TIP3   OH233203   8.865   5.993  16.516 -0.1019  0.3339  0.0662
 3003TIP3    H133204   8.815   5.953  16.445 -0.4565 -0.3850  0.7027
 3003TIP3    H233205   8.937   6.037  16.472  0.5598 -1.3803 -0.6518
 3004TIP3   OH233206   3.330   9.145  16.807 -0.3626  0.1079 -0.0236
 3004TIP3    H133207   3.416   9.110  16.785 -1.1205 -0.6849 -1.9365
 3004TIP3    H233208   3.309   9.106  16.892 -0.1441 -2.2120 -0.9768
 3005TIP3   OH233209   2.839   5.116  16.886 -0.1577 -0.1087  0.4066
 3005TIP3    H133210   2.821   5.078  16.972 -3.3452 -0.3572 -0.2341
 3005TIP3    H233211   2.851   5.041  16.828  3.5759  0.0326  0.7357
 3006TIP3   OH233212   8.288   9.065  16.422  0.1745 -0.0720  0.4223
 3006TIP3    H133213   8.342   9.112  16.358  0.5698 -0.9719  0.0802
 3006TIP3    H233214   8.346   9.052  16.497  0.2931 -0.6383  0.2338
 3007TIP3   OH233215   7.090   1.798  17.681 -0.0655 -0.2690  0.6041
 3007TIP3    H133216   7.179   1.808  17.715 -0.2166 -1.5051  1.4359
 3007TIP3    H233217   7.099   1.735  17.609 -0.1838  0.0849  0.2755
 3008TIP3   OH233218   5.930   5.193  17.368 -0.1970 -0.0459 -0.5165
 3008TIP3    H133219   5.939   5.225  17.458 -0.3879  3.4524 -1.5930
 3008TIP3    H233220   5.836   5.199  17.350  0.0482  1.0663 -1.4941
 3009TIP3   OH233221   2.835   1.608  16.407 -0.4902  0.1444 -0.2580
 3009TIP3    H133222   2.850   1.682  16.348 -1.1546  1.4915  1.1891
 3009TIP3    H233223   2.795   1.542  16.351 -1.5735  1.5567 -1.2503
 3010TIP3   OH233224   0.267   1.638  16.627 -0.3855 -0.3458  0.2429
 3010TIP3    H133225   0.185   1.598  16.598  0.4739 -2.3951  0.4777
 3010TIP3    H233226   0.334   1.572  16.607  1.3489  1.6171 -0.7444
 3011TIP3   OH233227   2.032   2.939  17.065 -0.1289 -0.3913  0.1387
 3011TIP3    H133228   1.991   2.866  17.019 -1.3645  0.7112 -0.5774
 3011TIP3    H233229   1.977   2.954  17.142 -1.5403  1.4492 -1.1151
 3012TIP3   OH233230   8.731   4.701  17.321  0.3402  0.0229  0.4968
 3012TIP3    H133231   8.689   4.634  17.376 -0.2153  0.5769  0.7590
 3012TIP3    H233232   8.813   4.660  17.293 -0.2161 -0.9593  0.2426
 3013TIP3   OH233233   2.552   2.184  16.214  0.4714  0.4777  0.1864
 3013TIP3    H133234   2.543   2.097  16.254 -1.7424  0.1588 -0.8444
 3013TIP3    H233235   2.474   2.231  16.243  1.9271  2.4054  1.2265
 3014TIP3   OH233236   5.124   7.068  17.671 -0.1320 -0.2220  0.3122
 3014TIP3    H133237   5.160   7.011  17.739  0.8594 -1.3408 -1.1226
 3014TIP3    H233238   5.040   7.028  17.648 -0.8719  0.6257  1.4212
 3015TIP3   OH233239   7.106   7.534  17.469 -0.5324  0.3119  0.2216
 3015TIP3    H133240   7.100   7.448  17.510  0.7784  0.0241 -0.1443
 3015TIP3    H233241   7.173   7.580  17.520  0.4437  0.2823 -1.0020
 3016TIP3   OH233242   0.476   7.806  16.619  0.1724 -0.4173  0.6706
 3016TIP3    H133243   0.563   7.825  16.653  0.3782  0.3377 -0.2167
 3016TIP3    H233244   0.457   7.879  16.559 -1.1369 -0.4803  0.9721
 3017TIP3   OH233245   5.518   4.334  17.464 -0.5114  0.3838 -0.1580
 3017TIP3    H133246   5.543   4.259  17.411 -1.2138  1.1993 -1.7070
 3017TIP3    H233247   5.586   4.399  17.448 -0.1435  0.2672  0.8302
 3018TIP3   OH233248   2.806   8.403  17.594  0.1439  0.3532 -0.2660
 3018TIP3    H133249   2.809   8.325  17.649  1.9319  1.5882  1.5142
 3018TIP3    H233250   2.754   8.376  17.518  1.0412 -2.6841  0.0533
 3019TIP3   OH233251   8.629   2.997  17.441 -0.1549 -0.0737  0.0878
 3019TIP3    H133252   8.607   2.903  17.446 -0.6799  0.0870  2.6270
 3019TIP3    H233253   8.719   2.999  17.408  0.4702 -1.6407  1.4961
 3020TIP3   OH233254   1.661   5.567  16.591  0.5796  0.4444  0.0599
 3020TIP3    H133255   1.652   5.504  16.661  0.8876 -0.0801 -0.3649
 3020TIP3    H233256   1.625   5.524  16.514 -1.8905  1.8553  0.3383
 3021TIP3   OH233257   4.026   8.155  16.620 -0.4938 -0.1581  0.3764
 3021TIP3    H133258   4.113   8.172  16.656 -0.2654 -1.9993  0.7562
 3021TIP3    H233259   4.012   8.227  16.558  0.9466  0.6136  0.9029
 3022TIP3   OH233260   6.060   0.701  17.984 -0.0558  0.1440  0.4041
 3022TIP3    H133261   6.138   0.731  17.936 -0.5399 -1.9242 -1.9023
 3022TIP3    H233262   6.078   0.608  18.001 -1.8283 -0.2605  0.1931
 3023TIP3   OH233263   8.127   0.052  17.334 -0.6454  0.2006 -0.0851
 3023TIP3    H133264   8.059   0.073  17.270 -0.4134 -0.6248 -0.6158
 3023TIP3    H233265   8.084  -0.005  17.397 -0.2797 -0.9324 -0.8294
 3024TIP3   OH233266   3.259   5.875  16.842 -0.1132  0.4491 -0.2224
 3024TIP3    H133267   3.201   5.881  16.766  0.7047  1.2493 -0.8031
 3024TIP3    H233268   3.213   5.817  16.903 -1.8102  1.5423 -0.3960
 3025TIP3   OH233269   3.068   6.257  17.877 -0.1497 -0.3293  0.0318
 3025TIP3    H133270   3.002   6.189  17.890 -0.0413  0.0094  2.8343
 3025TIP3    H233271   3.152   6.211  17.883 -0.0782 -0.0142  1.8481
 3026TIP3   OH233272   1.743   6.244  17.754 -0.0669 -0.2366  0.1580
 3026TIP3    H133273   1.723   6.218  17.664  0.2541 -0.3706  0.1230
 3026TIP3    H233274   1.662   6.229  17.802 -0.5417  0.7980 -0.3178
 3027TIP3   OH233275   1.355   5.768  16.536  0.4584  0.3960 -0.5177
 3027TIP3    H133276   1.266   5.732  16.545  1.2272 -1.2198  1.2600
 3027TIP3    H233277   1.397   5.710  16.472  0.4644  0.6850 -0.7742
 3028TIP3   OH233278   0.329   6.453  17.250  0.3029  0.1733  0.8660
 3028TIP3    H133279   0.388   6.422  17.318 -0.5386  0.4597  1.7439
 3028TIP3    H233280   0.258   6.497  17.297 -0.0201  0.8548 -0.2126
 3029TIP3   OH233281   4.664   0.650  16.732  0.1796 -0.1877 -0.1625
 3029TIP3    H133282   4.664   0.567  16.780  0.7871  0.2458  0.6050
 3029TIP3    H233283   4.572   0.677  16.732  0.2591  0.2010  1.4772
 3030TIP3   OH233284   3.211   0.053  16.586  0.4551 -0.3202 -0.1278
 3030TIP3    H133285   3.270   0.046  16.511  0.3676 -1.0882 -0.1311
 3030TIP3    H233286   3.248  -0.006  16.652  0.5120  0.3246  0.4248
 3031TIP3   OH233287   1.564   0.434  17.419 -0.0514 -0.0039  0.4489
 3031TIP3    H133288   1.598   0.509  17.468 -0.0856 -0.1354  0.6712
 3031TIP3    H233289   1.519   0.381  17.484 -0.4512  0.0308  0.2025
 3032TIP3   OH233290   3.094   8.950  16.544  0.0514  0.1619 -0.0661
 3032TIP3    H133291   3.058   8.872  16.585  0.5906  1.1741  2.5449
 3032TIP3    H233292   3.149   8.917  16.472 -0.3988 -1.7782  0.4375
 3033TIP3   OH233293   7.928   6.451  17.050  0.2617  0.1370  0.1767
 3033TIP3    H133294   7.904   6.385  17.116 -0.4948  0.2586  0.0356
 3033TIP3    H233295   8.023   6.460  17.059  0.0693  0.8043  1.8587
 3034TIP3   OH233296   3.260   6.159  16.958  0.3535  0.0228 -0.4929
 3034TIP3    H133297   3.249   6.074  16.915  0.1405 -0.0536 -0.2872
 3034TIP3    H233298   3.298   6.215  16.890 -0.1177 -0.0569 -0.8338
 3035TIP3   OH233299   0.830   7.260  17.835  0.1284  0.0947  0.2631
 3035TIP3    H133300   0.868   7.236  17.920  0.0261  0.4178  0.4018
 3035TIP3    H233301   0.757   7.199  17.823 -1.8383  1.9974  1.8576
 3036TIP3   OH233302   1.761   1.804  15.920 -0.0803 -0.2594 -0.0791
 3036TIP3    H133303   1.752   1.887  15.967  2.8411  0.0412  0.1662
 3036TIP3    H233304   1.751   1.827  15.828 -1.1028  0.0079  0.0858
 3037TIP3   OH233305   3.787   8.805  17.234 -0.3742 -0.2603 -0.2752
 3037TIP3    H133306   3.817   8.891  17.204 -0.2994  0.5271  1.8641
 3037TIP3    H233307   3.789   8.811  17.329 -1.0556 -2.4216 -0.0678
 3038TIP3   OH233308   2.332   0.693  17.403  0.0594  0.0254 -0.5278
 3038TIP3    H133309   2.344   0.787  17.389 -1.0926 -0.0237 -2.1335
 3038TIP3    H233310   2.385   0.652  17.335  0.7319 -0.5234  0.3014
 3039TIP3   OH233311   0.645   6.571  17.557 -0.3983  0.1127 -0.4289
 3039TIP3    H133312   0.598   6.526  17.627 -0.8083  0.3140 -0.5699
 3039TIP3    H233313   0.608   6.660  17.556 -0.5400  0.0544 -1.0232
 3040TIP3   OH233314   0.904   7.205  16.104  0.4689  0.1702  0.1421
 3040TIP3    H133315   0.981   7.262  16.104  0.2731  0.4882 -1.7226
 3040TIP3    H233316   0.830   7.265  16.113  0.3805 -0.0791  1.2254
 3041TIP3   OH233317   5.367   6.584  16.123  0.3660 -0.2550  0.0320
 3041TIP3    H133318   5.440   6.545  16.074  1.2604  1.4842 -0.1047
 3041TIP3    H233319   5.380   6.554  16.213  3.1363  2.3963  0.6724
 3042TIP3   OH233320   2.929   7.617  16.350 -0.0000  0.2125  0.3312
 3042TIP3    H133321   2.889   7.558  16.413 -1.9292  0.5009 -0.5620
 3042TIP3    H233322   2.856   7.660  16.307  1.2278  0.2469 -1.9009
 3043TIP3   OH233323   6.465   1.055  17.462  0.2243  0.0253  0.2605
 3043TIP3    H133324   6.454   1.146  17.433  1.6952 -0.4352 -1.9592
 3043TIP3    H233325   6.557   1.036  17.446  0.3028 -1.4261  2.1408
 3044TIP3   OH233326   6.051   4.584  17.036  0.2481 -0.1283 -0.0203
 3044TIP3    H133327   6.075   4.646  16.968  1.9014  0.9704  1.4746
 3044TIP3    H233328   6.007   4.513  16.989 -0.5229  1.5226 -1.9459
 3045TIP3   OH233329   8.109   4.473  16.957 -0.2357  0.1348 -0.4473
 3045TIP3    H133330   8.087   4.484  16.865 -1.3727  0.2675 -0.1751
 3045TIP3    H233331   8.105   4.562  16.993 -5.7267 -0.2931  0.9558
 3046TIP3   OH233332   6.949   8.458  17.595 -0.2420 -0.1651 -0.7737
 3046TIP3    H133333   6.868   8.441  17.644  0.4162 -2.6828 -0.4278
 3046TIP3    H233334   6.924   8.444  17.504 -0.9296  2.3797 -1.0684
 3047TIP3   OH233335   1.098   2.959  16.433  0.0449  0.1987 -0.0953
 3047TIP3    H133336   1.117   2.884  16.377 -0.2169  0.9270 -1.1755
 3047TIP3    H233337   1.040   2.924  16.500  1.4275 -0.9970  0.5517
 3048TIP3   OH233338   6.956   2.997  16.745 -0.3288  0.0496  0.0424
 3048TIP3    H133339   6.883   3.039  16.700  0.2236 -0.0025 -0.9123
 3048TIP3    H233340   7.018   2.976  16.676 -0.0083 -1.1478  0.6810
 3049TIP3   OH233341   4.785   8.222  17.741  0.2925  0.0462 -0.6123
 3049TIP3    H133342   4.872   8.259  17.724  0.2328  0.3235 -0.3051
 3049TIP3    H233343   4.795   8.177  17.825  0.4894 -1.0280 -1.1886
 3050TIP3   OH233344   8.772   7.863  17.292  0.0418 -0.3226  0.0826
 3050TIP3    H133345   8.825   7.928  17.246 -0.3512 -0.5866 -0.7718
 3050TIP3    H233346   8.692   7.909  17.316 -0.2106 -0.4643 -0.4682
 3051TIP3   OH233347   6.154   6.493  16.905  0.3676  0.2552  0.0498
 3051TIP3    H133348   6.108   6.532  16.830  0.7125  0.9311  0.1793
 3051TIP3    H233349   6.235   6.544  16.912  2.1884 -2.1744 -1.4494
 3052TIP3   OH233350   7.741   0.120  17.392  0.0526 -0.0066 -0.2459
 3052TIP3    H133351   7.702   0.193  17.343 -0.2580 -0.0311 -0.0427
 3052TIP3    H233352   7.821   0.098  17.344  0.5517  0.9703  0.1289
 3053TIP3   OH233353   4.727   8.451  17.576 -0.4645  0.2799  0.1691
 3053TIP3    H133354   4.738   8.364  17.614 -0.9194 -0.5503 -1.4951
 3053TIP3    H233355   4.652   8.487  17.623 -1.4962 -1.0209 -0.3820
 3054TIP3   OH233356   5.906   4.107  16.972 -0.1573  0.1237  0.2688
 3054TIP3    H133357   5.855   4.028  16.989 -1.5001  0.7377 -0.7411
 3054TIP3    H233358   5.934   4.137  17.059  0.7662 -1.6903  0.6316
 3055TIP3   OH233359   3.750   4.682  17.257 -0.3582  0.3719  0.0801
 3055TIP3    H133360   3.761   4.619  17.329 -0.0497  0.0544 -0.2462
 3055TIP3    H233361   3.730   4.765  17.301 -1.5257 -0.1132  0.4857
 3056TIP3   OH233362   0.529   8.196  17.149  0.2462  0.3736  0.4851
 3056TIP3    H133363   0.609   8.247  17.140  1.1781 -0.8131  1.6712
 3056TIP3    H233364   0.518   8.152  17.064  0.7577  0.6767  0.2639
 3057TIP3   OH233365   7.067   6.376  17.106 -0.6179 -0.3013 -0.7423
 3057TIP3    H133366   7.162   6.377  17.117 -0.7020 -1.6171  0.4050
 3057TIP3    H233367   7.043   6.284  17.109 -1.9903  0.0345 -0.4658
 3058TIP3   OH233368   8.395   6.061  17.177  0.0520 -0.0926  0.3117
 3058TIP3    H133369   8.334   6.108  17.120  0.0512 -0.9189 -0.3896
 3058TIP3    H233370   8.366   6.081  17.266 -0.1514  0.9508  0.0286
 3059TIP3   OH233371   4.188   4.715  17.357 -0.0126  0.0859 -0.0651
 3059TIP3    H133372   4.226   4.784  17.301 -0.5724  0.5527  0.1239
 3059TIP3    H233373   4.141   4.658  17.297  1.6514 -0.9880 -0.4268
 3060TIP3   OH233374   5.240   2.463  17.304  0.1294  0.7535 -0.0826
 3060TIP3    H133375   5.329   2.437  17.278  0.3625  2.2440 -0.8929
 3060TIP3    H233376   5.191   2.380  17.308  1.7036 -0.1753  1.0815
 3061TIP3   OH233377   0.874   6.009  18.018 -0.1622  0.3520 -0.2804
 3061TIP3    H133378   0.897   6.089  17.971  0.4382 -0.0639 -0.7044
 3061TIP3    H233379   0.778   6.013  18.027 -0.2429  0.6093 -1.2083
 3062TIP3   OH233380   0.790   2.552  16.628 -0.2679  0.3469  0.1944
 3062TIP3    H133381   0.763   2.461  16.621 -0.1674  0.2479  0.9305
 3062TIP3    H233382   0.742   2.598  16.559  0.7775 -0.4973 -1.1164
 3063TIP3   OH233383   7.746   7.316  17.105 -0.1046 -0.6445 -0.0634
 3063TIP3    H133384   7.760   7.351  17.193  0.9870 -2.8291  0.7187
 3063TIP3    H233385   7.831   7.325  17.062  0.2675 -2.3588  0.2318
 3064TIP3   OH233386   6.311   7.261  17.417 -0.5355 -0.5803 -0.4767
 3064TIP3    H133387   6.241   7.208  17.456 -0.5061  0.0178  0.4274
 3064TIP3    H233388   6.376   7.197  17.389  0.1363 -1.0201  1.8557
 3065TIP3   OH233389   3.757   0.400  17.156 -0.4038  0.3050 -0.3511
 3065TIP3    H133390   3.757   0.341  17.082  0.2321  0.9573 -0.8895
 3065TIP3    H233391   3.830   0.460  17.139  0.1205  0.1054  1.0878
 3066TIP3   OH233392   4.755   1.025  16.764  0.4410 -0.0462 -0.5443
 3066TIP3    H133393   4.769   0.957  16.698 -0.0139 -1.9646  1.2590
 3066TIP3    H233394   4.843   1.056  16.785  0.6054  0.5109 -1.9001
 3067TIP3   OH233395   0.895   0.367  16.113 -0.5074 -0.2812  0.1597
 3067TIP3    H133396   0.841   0.300  16.071 -0.6002 -1.0803  1.5035
 3067TIP3    H233397   0.980   0.359  16.071 -1.1315  0.3437 -1.3064
 3068TIP3   OH233398   4.121   6.365  15.509  0.1237  0.6542 -0.0516
 3068TIP3    H133399   4.190   6.351  15.574  0.9928  1.5323 -0.7510
 3068TIP3    H233400   4.064   6.288  15.518 -0.4572  1.2824  2.5282
 3069TIP3   OH233401   3.344   2.127  17.565 -0.2410 -0.5749  0.0605
 3069TIP3    H133402   3.416   2.110  17.504 -1.4867 -0.3877 -1.5204
 3069TIP3    H233403   3.364   2.213  17.601  0.4992 -0.6662 -0.0956
 3070TIP3   OH233404   6.238   7.779  17.547 -0.4000  0.1641 -0.9858
 3070TIP3    H133405   6.209   7.785  17.456 -0.0046  0.2457 -1.1057
 3070TIP3    H233406   6.210   7.691  17.575  0.1175 -0.1427 -1.4096
 3071TIP3   OH233407   7.372   1.822  17.798 -0.3036 -0.8127 -0.5226
 3071TIP3    H133408   7.345   1.731  17.810  0.4143 -1.2715 -2.1372
 3071TIP3    H233409   7.449   1.817  17.742  1.5968  0.6109  1.7721
 3072TIP3   OH233410   1.401   3.807  16.254 -0.0924 -0.5148  0.0219
 3072TIP3    H133411   1.327   3.849  16.211 -0.8564 -1.3922  0.4659
 3072TIP3    H233412   1.467   3.876  16.261 -0.3092 -0.0929 -1.6739
 3073TIP3   OH233413   5.993   0.336  16.189  0.1706  0.5497  0.0072
 3073TIP3    H133414   6.067   0.304  16.241 -0.2171 -0.9605 -0.3461
 3073TIP3    H233415   6.024   0.334  16.099 -0.0864  0.5243 -0.0821
 3074TIP3   OH233416   0.186   2.609  16.615  0.1162 -0.7361  0.3245
 3074TIP3    H133417   0.243   2.551  16.665  2.2548  1.0152  0.0646
 3074TIP3    H233418   0.098   2.574  16.630  0.7374 -1.1503  4.1803
 3075TIP3   OH233419   7.444   2.144  17.845 -0.3955  0.2113  0.0502
 3075TIP3    H133420   7.432   2.051  17.866 -0.3084  0.1819 -0.0271
 3075TIP3    H233421   7.356   2.179  17.836 -0.4269  0.0952 -0.0970
 3076TIP3   OH233422   1.079   2.943  17.496  0.3746 -0.2326 -0.0017
 3076TIP3    H133423   1.106   2.851  17.495 -0.1337 -0.3835 -1.1231
 3076TIP3    H233424   1.132   2.984  17.428 -0.2245  0.0573 -0.2946
 3077TIP3   OH233425   3.358   4.838  16.625  0.3480 -0.0727  0.3322
 3077TIP3    H133426   3.384   4.895  16.553 -0.1887  0.1433  0.3010
 3077TIP3    H233427   3.434   4.835  16.682  0.2141  1.0797  0.5905
 3078TIP3   OH233428   0.980   9.196  17.866 -0.4707  0.6941 -0.3592
 3078TIP3    H133429   0.901   9.244  17.843 -1.5408 -1.3368 -1.2070
 3078TIP3    H233430   1.050   9.241  17.820 -1.2328  2.0813 -0.2170
 3079TIP3   OH233431   5.415   0.281  17.109 -0.3373 -0.2104  0.7621
 3079TIP3    H133432   5.451   0.324  17.186 -0.8468 -1.0641  1.5066
 3079TIP3    H233433   5.401   0.190  17.137 -2.0406 -0.1678  0.1787
 3080TIP3   OH233434   1.382   0.942  16.499 -0.0703  0.5800  0.2070
 3080TIP3    H133435   1.428   0.876  16.551  0.6577  0.0647 -1.0465
 3080TIP3    H233436   1.290   0.932  16.523  0.3358  1.1546  2.2408
 3081TIP3   OH233437   5.768   1.527  17.020  0.0639  0.0206  0.4391
 3081TIP3    H133438   5.674   1.546  17.029 -0.7272 -2.7411 -0.8269
 3081TIP3    H233439   5.774   1.479  16.938  2.8040  1.0236 -0.0276
 3082TIP3   OH233440   6.265   8.546  18.046 -0.2283  0.0803 -0.2045
 3082TIP3    H133441   6.185   8.567  17.998  0.4012  0.5586 -1.0739
 3082TIP3    H233442   6.234   8.519  18.133 -1.4082 -1.2271 -0.9929
 3083TIP3   OH233443   7.290   7.907  17.657  0.7164 -0.0820 -0.0919
 3083TIP3    H133444   7.252   7.839  17.602  1.8483  0.4602 -1.6009
 3083TIP3    H233445   7.380   7.879  17.673  0.3435 -0.3670  1.7693
 3084TIP3   OH233446   3.886   3.489  15.925 -0.3257 -0.1564  0.2593
 3084TIP3    H133447   3.815   3.425  15.927 -0.8486  0.4352  1.4940
 3084TIP3    H233448   3.966   3.437  15.932 -0.6135 -0.8360 -1.2075
 3085TIP3   OH233449   4.402   8.281  15.932 -0.1874  0.2210 -0.0211
 3085TIP3    H133450   4.418   8.223  16.006  1.4978 -0.5664 -0.9477
 3085TIP3    H233451   4.347   8.351  15.967  0.1385 -0.4168  1.8313
 3086TIP3   OH233452   7.633   0.198  16.196  0.4927 -0.4081  0.5033
 3086TIP3    H133453   7.713   0.250  16.196  0.0770  0.3478 -1.6217
 3086TIP3    H233454   7.562   0.262  16.200 -0.0324 -0.6508 -2.4405
 3087TIP3   OH233455   8.799   2.724  17.740 -0.0105  0.4182  0.0209
 3087TIP3    H133456   8.704   2.721  17.729 -0.0995 -1.3151  0.7913
 3087TIP3    H233457   8.814   2.679  17.824  1.3210  3.0259  1.3087
 3088TIP3   OH233458   9.118   6.499  17.292 -0.2731  0.6529 -0.2441
 3088TIP3    H133459   9.125   6.534  17.203 -0.3468  1.7663  0.1659
 3088TIP3    H233460   9.049   6.433  17.288  1.1836 -0.9023 -1.4787
 3089TIP3   OH233461   0.056   8.450  16.082 -0.0660 -0.1693  0.1449
 3089TIP3    H133462   0.118   8.446  16.009 -0.1375 -0.6346  0.1027
 3089TIP3    H233463  -0.028   8.425  16.044  0.0574 -1.2642  0.5427
 3090TIP3   OH233464   7.207   8.765  17.353  0.4057 -0.2826 -0.0634
 3090TIP3    H133465   7.121   8.781  17.392 -0.1079 -0.8636 -0.9194
 3090TIP3    H233466   7.264   8.745  17.427 -0.8352 -2.6271  0.3299
 3091TIP3   OH233467   5.107   1.068  16.026 -0.0696  0.0886  0.5895
 3091TIP3    H133468   5.196   1.045  15.999 -0.7896 -1.3398 -0.7125
 3091TIP3    H233469   5.081   1.136  15.964 -0.3349 -0.4383  0.1085
 3092TIP3   OH233470   7.265   3.935  16.352  0.3960 -0.5038  0.3726
 3092TIP3    H133471   7.357   3.911  16.343  0.2578 -0.4005 -1.7721
 3092TIP3    H233472   7.264   4.031  16.346  0.1581 -0.4915  0.5605
 3093TIP3   OH233473   5.973   8.066  16.518 -0.2723  0.0603 -0.0219
 3093TIP3    H133474   5.974   8.127  16.444  1.4223 -0.7589 -0.7297
 3093TIP3    H233475   6.058   8.078  16.560 -0.0285 -1.5586  0.0081
 3094TIP3   OH233476   0.471   5.604  16.158 -0.2726  0.2564  0.4313
 3094TIP3    H133477   0.432   5.595  16.245  0.0889 -0.3838  0.5322
 3094TIP3    H233478   0.512   5.519  16.141 -0.3657  0.3633 -0.3781
 3095TIP3   OH233479   8.629   6.249  17.484 -0.6492  0.6756  0.5989
 3095TIP3    H133480   8.699   6.201  17.441 -0.3571  0.4916  1.2578
 3095TIP3    H233481   8.588   6.300  17.415  0.6814  1.4449  0.3422
 3096TIP3   OH233482   0.865   7.008  17.574  0.1252  0.1518  0.4090
 3096TIP3    H133483   0.899   6.988  17.487  1.3313  1.4017  0.5504
 3096TIP3    H233484   0.937   6.985  17.634 -0.1015  0.7477  0.9242
 3097TIP3   OH233485   2.493   6.987  15.776  0.5659  0.0465  0.2227
 3097TIP3    H133486   2.486   6.905  15.825 -0.1951 -0.0383 -0.0218
 3097TIP3    H233487   2.408   7.029  15.787  1.0653  0.9803  0.6493
 3098TIP3   OH233488   8.961   6.944  17.535  0.3892 -0.0828  0.1521
 3098TIP3    H133489   8.939   6.852  17.519  2.7537 -0.8144  0.7383
 3098TIP3    H233490   8.950   6.955  17.630 -0.8524  0.5579 -0.0425
 3099TIP3   OH233491   1.714   6.660  17.621  0.1777 -0.3076 -0.0465
 3099TIP3    H133492   1.790   6.629  17.669  0.2943 -0.0739 -0.0766
 3099TIP3    H233493   1.745   6.740  17.577 -0.2975  0.2248  0.5684
 3100TIP3   OH233494   4.434   3.323  15.944  0.3160 -0.1837 -0.0639
 3100TIP3    H133495   4.452   3.366  16.027 -0.6878 -0.4021  0.2763
 3100TIP3    H233496   4.381   3.386  15.895  1.0888  0.0389 -0.6455
 3101TIP3   OH233497   9.067   0.659  16.281 -0.3880 -0.1008  0.3054
 3101TIP3    H133498   9.024   0.688  16.200  0.5659  0.4588 -0.0142
 3101TIP3    H233499   9.016   0.583  16.309  0.4667 -1.5816 -1.9291
 3102TIP3   OH233500   5.052   8.954  16.664  0.2572  0.3810  0.1610
 3102TIP3    H133501   5.010   8.987  16.585  1.0376  0.3378 -0.2835
 3102TIP3    H233502   5.063   8.860  16.649 -0.8894  0.1019  0.9318
 3103TIP3   OH233503   3.540   2.189  16.858 -0.3305  0.4005 -0.9162
 3103TIP3    H133504   3.555   2.276  16.895 -0.5433  0.1494 -0.2204
 3103TIP3    H233505   3.526   2.204  16.765 -1.2243  1.2117 -0.6684
 3104TIP3   OH233506   5.010   7.112  17.080  0.0942 -0.0432  0.0036
 3104TIP3    H133507   5.070   7.187  17.076  0.2312  0.0600  2.4098
 3104TIP3    H233508   4.966   7.112  16.996  2.5601  0.6418 -1.3807
 3105TIP3   OH233509   0.649   8.695  17.900 -0.0675  0.5723 -0.5053
 3105TIP3    H133510   0.557   8.670  17.886 -0.0173  0.2891 -0.3384
 3105TIP3    H233511   0.646   8.758  17.972 -0.3488  2.1865 -1.8717
 3106TIP3   OH233512   3.903   2.981  16.574  0.2821  0.5630  0.0013
 3106TIP3    H133513   3.911   2.984  16.479  0.0936  0.8046 -0.0072
 3106TIP3    H233514   3.979   2.930  16.602 -0.7287 -1.2691 -0.4105
 3107TIP3   OH233515   7.528   4.366  16.544 -0.3680 -0.0802 -0.0234
 3107TIP3    H133516   7.546   4.333  16.456  0.2941  2.0590 -0.7564
 3107TIP3    H233517   7.496   4.290  16.592 -1.7879 -1.1061 -2.3964
 3108TIP3   OH233518   4.614   3.117  16.796 -0.1560 -0.4315  0.6104
 3108TIP3    H133519   4.632   3.031  16.835  0.2858 -0.9474 -0.6629
 3108TIP3    H233520   4.699   3.160  16.792 -0.3266 -0.0613  0.9512
 3109TIP3   OH233521   6.752   2.085  16.379  0.1255 -0.2914  0.3074
 3109TIP3    H133522   6.804   2.166  16.378 -0.5206  0.1318 -0.0681
 3109TIP3    H233523   6.662   2.115  16.368 -0.0752 -1.0970 -0.3539
 3110TIP3   OH233524   1.972   0.817  16.379 -0.1509 -0.0944  0.3567
 3110TIP3    H133525   1.959   0.722  16.373 -0.4586  0.0351 -1.9742
 3110TIP3    H233526   2.062   0.827  16.412  1.2004 -1.3188 -2.6141
 3111TIP3   OH233527   7.997   5.931  16.593 -0.1037  0.5820  0.6462
 3111TIP3    H133528   7.952   6.015  16.590 -1.6686 -0.2385  0.0929
 3111TIP3    H233529   8.024   5.915  16.502 -0.3943  0.1876  0.6279
 3112TIP3   OH233530   5.628   2.892  17.358  0.0387 -0.0599 -0.1906
 3112TIP3    H133531   5.577   2.841  17.295 -0.3114 -1.6340  1.2928
 3112TIP3    H233532   5.578   2.886  17.440  2.0363 -0.7885  1.0593
 3113TIP3   OH233533   8.376   8.903  15.549 -0.0950  0.0568  0.6196
 3113TIP3    H133534   8.311   8.835  15.532 -0.9149  0.6480  1.2986
 3113TIP3    H233535   8.454   8.856  15.579 -0.0080 -0.6954 -0.7407
 3114TIP3   OH233536   9.216   8.268  17.312  0.5126 -0.5964  0.3453
 3114TIP3    H133537   9.258   8.206  17.372  0.1809 -0.1236  1.0922
 3114TIP3    H233538   9.279   8.340  17.305  0.3565 -0.4438  0.4956
 3115TIP3   OH233539   1.077   8.783  15.765  0.2963  0.2440 -0.0325
 3115TIP3    H133540   1.019   8.785  15.689 -0.9537  2.3434  0.8605
 3115TIP3    H233541   1.058   8.700  15.807 -0.5489 -0.0258 -0.8960
 3116TIP3   OH233542   6.906   8.481  16.194  0.0569  0.2287  0.0746
 3116TIP3    H133543   6.921   8.571  16.167 -0.1257  0.1630 -0.2534
 3116TIP3    H233544   6.837   8.488  16.261 -0.6587  0.2517 -0.6482
 3117TIP3   OH233545   7.252   7.358  16.150 -0.1609 -0.0282  0.2719
 3117TIP3    H133546   7.206   7.284  16.188  1.0026 -0.5429  0.7232
 3117TIP3    H233547   7.250   7.342  16.056 -2.0053  0.6323  0.1714
 3118TIP3   OH233548   3.860   6.400  16.693 -0.5477  0.0830  0.2438
 3118TIP3    H133549   3.867   6.305  16.687  1.1512  0.1766  0.3844
 3118TIP3    H233550   3.855   6.430  16.602 -0.3483 -0.0994  0.1735
 3119TIP3   OH233551   2.142   3.754  17.266  0.0577 -0.6765  0.2797
 3119TIP3    H133552   2.178   3.677  17.220  1.0180 -0.2017  0.2229
 3119TIP3    H233553   2.051   3.730  17.283 -0.0859 -1.2372 -1.0833
 3120TIP3   OH233554   7.228   6.954  16.958  0.5263  0.2051  0.1729
 3120TIP3    H133555   7.231   6.868  16.999  1.7884  1.2543  2.4688
 3120TIP3    H233556   7.317   6.989  16.969  0.0741  1.7553 -0.7985
 3121TIP3   OH233557   7.521   8.768  17.835 -0.2913  0.6411  0.3979
 3121TIP3    H133558   7.558   8.775  17.747 -1.6065  0.3756 -0.2068
 3121TIP3    H233559   7.555   8.686  17.870 -1.6586 -0.4766 -0.8201
 3122TIP3   OH233560   2.478   3.384  16.689  0.0146  0.2456  0.0385
 3122TIP3    H133561   2.546   3.318  16.675  1.1824  1.5671 -0.8110
 3122TIP3    H233562   2.396   3.336  16.680  0.7917 -0.7713 -2.6438
 3123TIP3   OH233563   1.205   1.501  16.582  0.1914 -0.4130  0.1559
 3123TIP3    H133564   1.287   1.512  16.630  0.0912  0.0526  0.2272
 3123TIP3    H233565   1.213   1.417  16.538  1.2627  0.2315 -0.9217
 3124TIP3   OH233566   8.979   2.436  17.947  0.2279  0.1264 -0.3824
 3124TIP3    H133567   8.889   2.459  17.967  0.2007  0.3385 -0.7405
 3124TIP3    H233568   8.973   2.358  17.891  0.3457 -1.3072  1.5090
 3125TIP3   OH233569   4.835   0.829  17.817  0.6466  0.3524  0.5036
 3125TIP3    H133570   4.827   0.923  17.803 -0.5080  0.2455  0.3890
 3125TIP3    H233571   4.928   0.811  17.803  1.4512  1.8913  3.1540
 3126TIP3   OH233572   2.893   2.886  16.943  0.4087 -0.6792  0.5859
 3126TIP3    H133573   2.889   2.795  16.969  2.6057 -0.4869  1.7959
 3126TIP3    H233574   2.977   2.895  16.898  0.4025  0.8272  0.8149
 3127TIP3   OH233575   5.652   6.834  15.758 -0.4131  0.3267  0.5523
 3127TIP3    H133576   5.604   6.756  15.729  0.2538  0.6675 -1.6527
 3127TIP3    H233577   5.583   6.897  15.780 -0.9664 -0.2014  0.3616
 3128TIP3   OH233578   0.469   6.390  17.013  0.2281  0.5220 -0.1858
 3128TIP3    H133579   0.436   6.301  17.002 -0.3331  0.6203  0.6620
 3128TIP3    H233580   0.429   6.421  17.094  0.1231  1.6809 -0.6610
 3129TIP3   OH233581   7.678   4.593  17.624  0.2130 -0.3308  0.2104
 3129TIP3    H133582   7.640   4.573  17.538 -0.4016  1.7569 -0.0563
 3129TIP3    H233583   7.625   4.543  17.686  0.0418 -1.1065 -0.5455
 3130TIP3   OH233584   5.918   5.612  15.922  0.2413 -0.1610 -0.3687
 3130TIP3    H133585   5.917   5.519  15.943 -0.1651 -0.2477 -0.7616
 3130TIP3    H233586   5.833   5.645  15.951 -0.1389 -0.1840 -1.3978
 3131TIP3   OH233587   1.054   1.923  16.709 -0.1174 -0.1233 -0.6960
 3131TIP3    H133588   1.107   1.955  16.782 -1.1621  0.2883 -0.0934
 3131TIP3    H233589   0.964   1.928  16.741 -0.4745 -1.6482 -1.3722
 3132TIP3   OH233590   7.867   9.155  16.623  0.1252  0.6452  0.0682
 3132TIP3    H133591   7.813   9.160  16.545 -0.1914 -0.4768  0.1988
 3132TIP3    H233592   7.934   9.090  16.602  0.7374  1.1899  0.3159
 3133TIP3   OH233593   4.742   4.457  17.022  0.0810 -0.2043 -0.4729
 3133TIP3    H133594   4.751   4.380  17.078 -0.5646  0.7886  1.0856
 3133TIP3    H233595   4.651   4.484  17.033  0.4800  1.2023 -0.3834
 3134TIP3   OH233596   8.004   3.153  17.738  0.0257 -0.1762  0.4562
 3134TIP3    H133597   7.936   3.088  17.722  1.2416 -1.8376  1.6652
 3134TIP3    H233598   8.067   3.140  17.667  0.6114 -0.8338  1.0781
 3135TIP3   OH233599   3.124   8.121  17.770 -0.5205  0.0981 -0.3248
 3135TIP3    H133600   3.122   8.045  17.827  0.4842  0.0790 -0.3051
 3135TIP3    H233601   3.212   8.122  17.733 -0.7746  0.7943 -0.9441
 3136TIP3   OH233602   8.831   8.225  16.575 -0.6775 -0.2363  0.2373
 3136TIP3    H133603   8.910   8.192  16.532  0.4354  0.9238  1.3000
 3136TIP3    H233604   8.844   8.204  16.668 -1.4443  0.3021  0.4776
 3137TIP3   OH233605   6.106   2.803  17.897 -0.0771  0.1296 -0.4013
 3137TIP3    H133606   6.058   2.787  17.979 -0.5481  1.7985 -0.3190
 3137TIP3    H233607   6.093   2.722  17.847 -4.4025  0.9874 -1.0500
 3138TIP3   OH233608   2.182   7.361  17.077 -0.2274  0.7338  0.0663
 3138TIP3    H133609   2.226   7.366  17.162  1.0730 -0.3845 -0.5040
 3138TIP3    H233610   2.181   7.451  17.045 -0.5067  1.1237  1.1545
 3139TIP3   OH233611   7.528   2.367  17.074 -0.3920 -0.3329 -0.4218
 3139TIP3    H133612   7.473   2.382  17.151  1.3204  1.3876  0.5758
 3139TIP3    H233613   7.603   2.318  17.108 -0.4038 -1.0223 -1.3558
 3140TIP3   OH233614   7.663   1.032  16.187 -0.0044 -0.3030 -0.7006
 3140TIP3    H133615   7.748   0.999  16.160  0.2696 -0.6219  0.4873
 3140TIP3    H233616   7.680   1.123  16.213  0.0902 -0.5342  0.0605
 3141TIP3   OH233617   7.837   8.856  15.682 -0.2206 -0.4939  0.3647
 3141TIP3    H133618   7.883   8.898  15.610 -0.3793  0.9629  1.0812
 3141TIP3    H233619   7.863   8.764  15.677 -0.6261 -0.5276 -1.8230
 3142TIP3   OH233620   5.356   3.944  17.329 -0.0402  0.2626 -0.1128
 3142TIP3    H133621   5.374   3.978  17.416  1.4797  1.0079 -0.6856
 3142TIP3    H233622   5.308   3.863  17.344 -0.6112  0.8487  1.3768
 3143TIP3   OH233623   2.788   5.998  15.836 -0.5402 -0.0141 -0.0968
 3143TIP3    H133624   2.734   5.919  15.827 -1.3367  0.2828  1.6599
 3143TIP3    H233625   2.813   5.999  15.928  1.4012  0.5836 -0.5797
 3144TIP3   OH233626   4.725   6.189  17.468 -0.1145  0.5849  0.1390
 3144TIP3    H133627   4.776   6.203  17.547  0.0186 -0.2857  0.2214
 3144TIP3    H233628   4.783   6.139  17.410 -0.9854 -0.7937  0.3968
 3145TIP3   OH233629   7.010   5.487  17.336  0.0980 -0.2274  0.0158
 3145TIP3    H133630   7.074   5.545  17.377  0.9106 -0.3891 -1.0113
 3145TIP3    H233631   6.983   5.532  17.256  0.2979 -0.9906 -0.4929
 3146TIP3   OH233632   4.542   0.443  17.351  0.2080  0.5085 -0.2416
 3146TIP3    H133633   4.561   0.476  17.263 -0.3606 -0.1581 -0.6288
 3146TIP3    H233634   4.623   0.401  17.380 -0.8005 -3.4250 -2.3677
 3147TIP3   OH233635   4.421   0.827  17.227 -0.1945 -1.3477  0.5369
 3147TIP3    H133636   4.513   0.831  17.253  0.7068  1.4755 -2.4256
 3147TIP3    H233637   4.423   0.821  17.132 -2.9009  2.5128 -0.0064
 3148TIP3   OH233638   8.264   6.874  17.586  0.1838  0.2978 -0.7409
 3148TIP3    H133639   8.172   6.862  17.562  0.3453  1.4760 -2.1301
 3148TIP3    H233640   8.310   6.806  17.537 -0.0258 -1.0304  0.8459
 3149TIP3   OH233641   8.608   1.384  17.783 -0.6693 -0.1335  0.4120
 3149TIP3    H133642   8.553   1.432  17.846 -1.6972  0.2355 -0.7343
 3149TIP3    H233643   8.559   1.304  17.765  0.5897 -1.2118  1.5773
 3150TIP3   OH233644   8.407   0.107  16.636  0.1590 -0.1171 -0.0947
 3150TIP3    H133645   8.402   0.135  16.728 -2.0340  0.3770 -0.3003
 3150TIP3    H233646   8.387   0.013  16.639 -1.1174  0.1279 -0.1225
 3151TIP3   OH233647   8.754   7.585  17.371  0.7578 -0.7868  0.1159
 3151TIP3    H133648   8.837   7.560  17.412  0.9646  0.8402  0.7502
 3151TIP3    H233649   8.764   7.677  17.349 -0.3702 -0.9339 -1.1342
 3152TIP3   OH233650   6.572   4.615  17.245 -0.0974  0.4059 -0.4371
 3152TIP3    H133651   6.520   4.659  17.312 -0.5021 -1.4977  0.5954
 3152TIP3    H233652   6.642   4.571  17.294  0.5047  0.1973 -1.4482
 3153TIP3   OH233653   8.254   7.558  17.855  0.0517 -0.0198  0.4465
 3153TIP3    H133654   8.226   7.475  17.892 -1.4934 -0.1379 -0.8669
 3153TIP3    H233655   8.337   7.539  17.812  0.4092 -0.5254  1.3288
 3154TIP3   OH233656   0.828   7.331  17.119 -0.0921  0.5054 -0.0501
 3154TIP3    H133657   0.819   7.360  17.209 -2.4109 -0.0861 -0.0402
 3154TIP3    H233658   0.742   7.297  17.095  1.0351 -1.4206 -1.7693
 3155TIP3   OH233659   2.578   7.351  16.645  0.3404  0.5714 -0.1334
 3155TIP3    H133660   2.591   7.260  16.673  1.3221  0.2996 -1.3561
 3155TIP3    H233661   2.484   7.359  16.630  0.3405 -0.4962 -0.7875
 3156TIP3   OH233662   8.479   8.674  16.943  0.5148 -0.4767 -0.0161
 3156TIP3    H133663   8.455   8.709  17.029  1.4520 -1.6839  0.7769
 3156TIP3    H233664   8.451   8.583  16.945  2.0335 -0.9766 -0.3508
 3157TIP3   OH233665   7.986   8.554  16.629 -0.1838  0.1513 -0.1573
 3157TIP3    H133666   8.050   8.483  16.635  0.3276  0.6624  0.6350
 3157TIP3    H233667   7.917   8.531  16.690 -0.1784  0.1725 -0.1419
 3158TIP3   OH233668   0.465   7.783  17.224  0.1170  0.2109 -0.1227
 3158TIP3    H133669   0.504   7.722  17.286  0.9170 -0.9641 -1.7035
 3158TIP3    H233670   0.539   7.828  17.184 -0.3645  0.8027 -0.3670
 3159TIP3   OH233671   5.593   5.664  16.991 -0.5610 -0.4815  0.0063
 3159TIP3    H133672   5.586   5.758  17.012 -1.2190 -0.5786  0.2256
 3159TIP3    H233673   5.679   5.656  16.950 -0.7243  0.3128 -0.5182
 3160TIP3   OH233674   0.185   4.546  17.075 -0.0380  0.2547 -0.3440
 3160TIP3    H133675   0.118   4.537  17.142 -1.0168 -3.3503 -1.5862
 3160TIP3    H233676   0.153   4.615  17.017 -0.9563  0.8959  0.8923
 3161TIP3   OH233677   6.040   3.605  17.388  0.2288 -0.2980  0.2122
 3161TIP3    H133678   6.114   3.617  17.447  1.1410 -1.7683 -0.5598
 3161TIP3    H233679   6.043   3.681  17.330  1.8041 -0.7993 -0.4436
 3162TIP3   OH233680   2.834   8.667  16.382 -0.4085  0.2818 -0.3242
 3162TIP3    H133681   2.816   8.638  16.292 -1.9620  0.9037 -0.2493
 3162TIP3    H233682   2.839   8.587  16.433 -1.9750 -0.0182 -0.5780
 3163TIP3   OH233683   8.470   6.959  16.571  0.6225 -0.0456  0.5176
 3163TIP3    H133684   8.484   6.871  16.604  0.8198 -0.3127 -0.2527
 3163TIP3    H233685   8.538   7.012  16.614  2.1890 -0.7682 -0.9282
 3164TIP3   OH233686   8.461   1.104  17.158 -0.3451  0.3418  0.5041
 3164TIP3    H133687   8.419   1.027  17.197 -0.5869  0.3795  0.3161
 3164TIP3    H233688   8.460   1.087  17.064  1.4569 -0.3859  0.5632
 3165TIP3   OH233689   7.422   3.847  16.762 -0.4284  0.3609  0.7371
 3165TIP3    H133690   7.487   3.793  16.716 -2.1379 -1.5222  0.4021
 3165TIP3    H233691   7.396   3.794  16.837 -1.5745  1.0661  0.8616
 3166TIP3   OH233692   3.371   0.899  16.004  0.1654 -0.4533  0.0172
 3166TIP3    H133693   3.328   0.815  15.995  0.7406 -0.5766 -2.7793
 3166TIP3    H233694   3.462   0.882  15.977  0.7648  0.7031  1.2060
 3167TIP3   OH233695   3.263   1.165  16.772 -0.2628  0.1868 -0.6865
 3167TIP3    H133696   3.270   1.189  16.865 -1.1935  2.5475 -1.1441
 3167TIP3    H233697   3.195   1.099  16.769  0.0795 -0.2322  0.3492
 3168TIP3   OH233698   3.843   4.324  16.225  0.5093 -0.1099 -0.1221
 3168TIP3    H133699   3.870   4.334  16.316 -0.2730  2.3695 -0.0863
 3168TIP3    H233700   3.750   4.301  16.230  0.3367  0.5324 -0.2739
 3169TIP3   OH233701   7.059   7.295  17.624  0.1552  0.1647 -0.5481
 3169TIP3    H133702   7.136   7.238  17.615 -1.1071 -2.0036  1.4194
 3169TIP3    H233703   7.053   7.313  17.717 -1.6515  0.3786 -0.6770
 3170TIP3   OH233704   4.619   2.844  17.437  0.7702  0.7815  0.0630
 3170TIP3    H133705   4.625   2.848  17.533 -0.1419 -1.5336  0.2756
 3170TIP3    H233706   4.652   2.757  17.415 -0.1303  0.8328 -1.6261
 3171TIP3   OH233707   8.691   5.907  16.294 -0.5511  0.8042 -0.1632
 3171TIP3    H133708   8.691   5.835  16.231 -1.4164  0.5036  0.1645
 3171TIP3    H233709   8.637   5.974  16.252  0.2760  1.2931 -0.4790
 3172TIP3   OH233710   5.243   8.023  17.827  0.5345 -0.6000  0.2600
 3172TIP3    H133711   5.171   7.981  17.781  0.5345 -1.5447  1.0773
 3172TIP3    H233712   5.268   7.959  17.895  2.5288 -0.5641 -0.3891
 3173TIP3   OH233713   2.074   6.813  18.217 -0.0619 -0.3112 -0.0955
 3173TIP3    H133714   2.138   6.865  18.167  1.6675  0.4958  2.7515
 3173TIP3    H233715   2.019   6.878  18.260 -2.3967 -1.0090 -1.8515
 3174TIP3   OH233716   7.209   5.597  17.495  0.3218  0.0497 -0.0463
 3174TIP3    H133717   7.303   5.590  17.510  0.9039  0.3476 -2.9439
 3174TIP3    H233718   7.199   5.679  17.446 -1.1846 -0.8072 -1.2738
 3175TIP3   OH233719   0.030   5.452  16.917 -0.5807 -0.2826 -0.4252
 3175TIP3    H133720  -0.053   5.405  16.912 -1.3149  1.0696 -3.1017
 3175TIP3    H233721   0.056   5.464  16.826  0.8055  2.2702  0.1922
 3176TIP3   OH233722   8.592   7.041  17.503  0.2380  0.4042  0.2648
 3176TIP3    H133723   8.643   7.051  17.422 -0.3793 -0.4362 -0.2444
 3176TIP3    H233724   8.569   6.948  17.506  1.6663  0.0613  2.3061
 3177TIP3   OH233725   5.025   8.455  16.276 -0.2008  0.2482  0.1484
 3177TIP3    H133726   4.944   8.407  16.294 -0.6684  0.8078 -0.4403
 3177TIP3    H233727   5.051   8.427  16.189 -0.1475  0.6062  0.0483
 3178TIP3   OH233728   4.430   7.641  15.983  0.2148 -0.0031  0.2041
 3178TIP3    H133729   4.439   7.666  16.075  0.2743 -0.7423  0.4030
 3178TIP3    H233730   4.345   7.677  15.956  0.2642  0.3352  0.5090
 3179TIP3   OH233731   5.299   9.019  17.514 -0.2869  0.1562  0.1430
 3179TIP3    H133732   5.335   9.107  17.525  0.5874 -0.1135 -0.4996
 3179TIP3    H233733   5.328   8.972  17.592 -0.6505  0.3859  0.4262
 3180TIP3   OH233734   0.649   6.339  17.960 -0.4781 -0.4641  0.5798
 3180TIP3    H133735   0.635   6.254  18.004  1.8670 -1.5396 -0.5901
 3180TIP3    H233736   0.744   6.352  17.963 -0.5660  0.9796 -1.3580
 3181TIP3   OH233737   1.389   4.713  16.637  0.5627  0.2279 -0.0691
 3181TIP3    H133738   1.384   4.784  16.573  1.4660 -0.0745 -0.4770
 3181TIP3    H233739   1.477   4.679  16.629 -0.2707 -1.8939 -0.8946
 3182TIP3   OH233740   3.601   3.423  17.573  0.1414 -0.3897 -0.1136
 3182TIP3    H133741   3.600   3.506  17.621  0.0040 -0.9261  0.8391
 3182TIP3    H233742   3.650   3.442  17.493  0.8077  0.4067  0.4607
 3183TIP3   OH233743   1.975   5.289  16.776  0.1750 -0.2106 -0.1776
 3183TIP3    H133744   1.945   5.219  16.717  2.1572 -0.9392 -0.3831
 3183TIP3    H233745   2.036   5.341  16.723  0.3258  0.4302  0.6011
 3184TIP3   OH233746   7.250   5.870  16.837  0.2472  0.5896  0.1944
 3184TIP3    H133747   7.264   5.783  16.875 -1.8328 -0.1183 -0.5087
 3184TIP3    H233748   7.326   5.885  16.781  0.9567 -0.4817  0.8398
 3185TIP3   OH233749   5.956   3.024  17.783  0.6213  0.4371  0.1929
 3185TIP3    H133750   5.991   2.935  17.776  0.7661  0.5487 -0.6072
 3185TIP3    H233751   6.030   3.078  17.810  0.6539  0.3954  0.1862
 3186TIP3   OH233752   4.832   5.534  17.597  0.2553  0.4924 -0.2655
 3186TIP3    H133753   4.873   5.564  17.677  0.5657 -0.7474  0.0590
 3186TIP3    H233754   4.811   5.615  17.549  2.1803  1.2075 -0.0149
 3187TIP3   OH233755   1.027   7.442  15.971 -0.2313  0.4041 -0.2834
 3187TIP3    H133756   1.078   7.498  15.912  1.8506  0.1661  1.1726
 3187TIP3    H233757   1.012   7.496  16.048  0.6011 -0.5650  0.5820
 3188TIP3   OH233758   5.985   3.189  17.209  0.0098 -0.1736 -0.0152
 3188TIP3    H133759   6.052   3.223  17.268 -0.7915  0.3341  0.6121
 3188TIP3    H233760   5.929   3.134  17.264 -0.3051 -0.3097 -0.4634
 3189TIP3   OH233761   3.078   5.099  15.777  0.2846 -0.0327 -0.0762
 3189TIP3    H133762   3.170   5.097  15.806  0.5177 -2.3707 -0.8505
 3189TIP3    H233763   3.079   5.061  15.690 -0.9725  3.3413 -1.7167
 3190TIP3   OH233764   4.704   4.247  17.401  0.4269  0.9589 -0.4403
 3190TIP3    H133765   4.755   4.182  17.449 -1.2439 -0.4183 -0.4198
 3190TIP3    H233766   4.613   4.230  17.426 -0.4855  0.6007 -3.5428
 3191TIP3   OH233767   0.910   1.558  17.855  0.2697 -0.7802 -0.2424
 3191TIP3    H133768   0.864   1.615  17.793 -0.5948 -1.0095  0.1833
 3191TIP3    H233769   0.967   1.617  17.904  0.5726 -0.5205 -0.8978
 3192TIP3   OH233770   6.530   5.617  17.072  0.2527  0.2272 -0.0100
 3192TIP3    H133771   6.540   5.703  17.031 -0.3152 -0.1017 -0.8603
 3192TIP3    H233772   6.560   5.555  17.007 -0.3569 -0.2839  0.1800
 3193TIP3   OH233773   7.467   5.947  16.665 -0.6232 -0.1925  0.0102
 3193TIP3    H133774   7.408   5.918  16.595 -1.0720  0.0468  0.2832
 3193TIP3    H233775   7.553   5.948  16.625 -0.8901  0.0277 -0.5655
 3194TIP3   OH233776   2.769   4.534  17.659 -0.4979  0.5078 -0.1636
 3194TIP3    H133777   2.827   4.466  17.626 -1.8969 -0.2716 -1.1087
 3194TIP3    H233778   2.796   4.547  17.750  0.6291 -0.3856 -0.3597
 3195TIP3   OH233779   3.063   1.575  16.551 -0.7119  0.6404  0.3826
 3195TIP3    H133780   3.061   1.615  16.638 -2.0370 -0.9677  1.1558
 3195TIP3    H233781   2.980   1.602  16.510 -0.3816  0.8792 -0.1329
 3196TIP3   OH233782   8.490   8.166  17.322 -0.1190 -0.2044  0.1993
 3196TIP3    H133783   8.438   8.216  17.385 -0.8540 -0.6294 -0.0531
 3196TIP3    H233784   8.479   8.075  17.350  1.9180 -0.2000  1.1965
 3197TIP3   OH233785   7.527   0.848  17.508 -0.2985  0.2550  1.2278
 3197TIP3    H133786   7.603   0.789  17.500  0.3386  0.7387  3.2320
 3197TIP3    H233787   7.556   0.930  17.468 -0.4518 -0.1330  0.3007
 3198TIP3   OH233788   6.660   6.985  17.003 -0.0128  0.3673 -0.1345
 3198TIP3    H133789   6.568   6.965  16.988  0.3561 -1.3345 -0.3571
 3198TIP3    H233790   6.694   6.908  17.049  1.6326  0.2839 -1.3913
 3199TIP3   OH233791   2.959   2.229  16.509 -0.3354 -0.6417  0.5299
 3199TIP3    H133792   3.000   2.166  16.568 -0.0851 -1.5945 -0.6305
 3199TIP3    H233793   3.017   2.233  16.434 -2.2918 -2.0189 -1.1544
 3200TIP3   OH233794   6.538   0.548  17.368  0.8780  0.3448  0.0368
 3200TIP3    H133795   6.585   0.550  17.451 -0.3700 -0.8316  0.8141
 3200TIP3    H233796   6.592   0.494  17.311  1.1223  0.1101  0.4866
 3201TIP3   OH233797   1.387   7.870  16.951 -0.4058 -0.1617 -0.0729
 3201TIP3    H133798   1.428   7.956  16.955 -0.0023 -0.3553  0.0952
 3201TIP3    H233799   1.329   7.874  16.876 -0.3707  0.2488 -0.0790
 3202TIP3   OH233800   6.616   0.030  17.493  0.0371  0.2633  0.4799
 3202TIP3    H133801   6.691   0.009  17.549  1.5528  0.9665 -1.2040
 3202TIP3    H233802   6.571   0.101  17.539  3.1648  3.2331 -0.6343
 3203TIP3   OH233803   7.228   5.419  16.855  0.4946 -0.1892 -0.3027
 3203TIP3    H133804   7.266   5.505  16.869 -2.6262  1.3686 -0.4797
 3203TIP3    H233805   7.200   5.419  16.764 -1.0636 -0.6673  0.1393
 3204TIP3   OH233806   3.137   4.656  17.397 -0.5641 -0.0448  0.1911
 3204TIP3    H133807   3.105   4.578  17.441  0.3254  1.4146  3.7221
 3204TIP3    H233808   3.136   4.633  17.304 -2.1514 -3.5112  0.9185
 3205TIP3   OH233809   5.483   1.568  17.020 -0.2974  0.0628 -0.1863
 3205TIP3    H133810   5.456   1.520  16.942 -2.0499  0.4501  0.1430
 3205TIP3    H233811   5.415   1.634  17.032  1.8150  2.3995 -0.3806
 3206TIP3   OH233812   7.929   3.068  17.325  0.3255  0.6862  0.3942
 3206TIP3    H133813   7.861   3.133  17.339 -0.0686  0.3814 -0.0958
 3206TIP3    H233814   7.906   2.997  17.385  0.3583  0.6918  0.4140
 3207TIP3   OH233815   0.589   3.053  17.933  0.0651 -0.2711  0.6676
 3207TIP3    H133816   0.573   2.993  18.006 -1.0231 -0.8097  0.0076
 3207TIP3    H233817   0.504   3.094  17.917 -0.0950 -1.2225 -1.2135
 3208TIP3   OH233818   9.153   5.205  16.133 -0.6865 -1.0571  0.4261
 3208TIP3    H133819   9.117   5.285  16.094  1.4104 -1.1260 -1.9924
 3208TIP3    H233820   9.248   5.221  16.134 -0.3470 -2.9406  1.3159
 3209TIP3   OH233821   4.039   7.542  16.381  0.2139 -0.5402 -0.1597
 3209TIP3    H133822   3.944   7.549  16.370  0.1136 -1.1945  0.1907
 3209TIP3    H233823   4.075   7.591  16.308 -0.3863  0.4103  0.1634
 3210TIP3   OH233824   2.254   5.304  16.713  0.0719  0.1886  0.4140
 3210TIP3    H133825   2.228   5.291  16.804 -1.5385  0.1777 -0.0235
 3210TIP3    H233826   2.322   5.372  16.718  1.4834 -1.2088  1.7705
 3211TIP3   OH233827   4.770   5.375  16.440  0.6029  0.0815 -0.2132
 3211TIP3    H133828   4.806   5.415  16.519  0.6451  1.3229 -0.8323
 3211TIP3    H233829   4.818   5.293  16.430  0.8607  0.0963  0.8351
 3212TIP3   OH233830   6.700   1.070  17.884  0.0702  0.2552 -0.1286
 3212TIP3    H133831   6.747   1.111  17.811  1.1732 -1.0789 -0.1898
 3212TIP3    H233832   6.762   1.071  17.956 -0.8430  1.1058  0.6773
 3213TIP3   OH233833   6.116   2.523  17.927 -0.1433 -0.4207 -0.2308
 3213TIP3    H133834   6.117   2.579  18.004  1.3242 -0.6679 -0.0398
 3213TIP3    H233835   6.051   2.456  17.947 -1.0885  0.5225  0.0128
 3214TIP3   OH233836   5.936   1.205  16.234 -0.0356  0.7562  0.2124
 3214TIP3    H133837   5.932   1.301  16.232  1.3885  0.8269 -1.1352
 3214TIP3    H233838   5.983   1.182  16.154  1.1052 -0.9914  1.3406
 3215TIP3   OH233839   0.920   6.969  18.056  0.1369 -0.1968  0.0421
 3215TIP3    H133840   0.827   6.948  18.063  0.3167 -2.0275 -2.0032
 3215TIP3    H233841   0.965   6.892  18.091  0.8531 -0.3099 -1.0628
 3216TIP3   OH233842   4.339   5.700  17.988  0.1584 -0.2195 -0.2615
 3216TIP3    H133843   4.388   5.661  17.916  0.8617 -1.0821  0.6502
 3216TIP3    H233844   4.358   5.793  17.982 -0.0001 -0.2486 -1.3386
 3217TIP3   OH233845   4.822   8.629  17.386 -0.2611 -0.4877  0.9769
 3217TIP3    H133846   4.836   8.714  17.429 -0.3821 -0.6438  1.3273
 3217TIP3    H233847   4.786   8.573  17.455 -1.8503 -0.3336  0.3286
 3218TIP3   OH233848   5.526   4.786  16.304  0.1062  0.3267  0.2995
 3218TIP3    H133849   5.561   4.747  16.224 -1.6662 -0.6044 -0.0598
 3218TIP3    H233850   5.503   4.711  16.359 -1.6330  0.8810  0.3673
 3219TIP3   OH233851   7.027   3.949  16.202  0.1466  0.6379 -0.2575
 3219TIP3    H133852   7.084   3.925  16.276 -0.5373  0.5751  0.2583
 3219TIP3    H233853   7.078   4.012  16.152  0.2965  1.3122  0.7258
 3220TIP3   OH233854   2.462   3.558  17.313  0.3877  0.6111  0.1234
 3220TIP3    H133855   2.518   3.497  17.361 -0.0638  1.0533  1.2441
 3220TIP3    H233856   2.385   3.570  17.369 -0.1930  1.0873 -0.7491
 3221TIP3   OH233857   2.808   8.845  17.008 -0.5290 -0.1093 -0.3746
 3221TIP3    H133858   2.716   8.870  17.010 -0.7357 -0.6826 -1.5466
 3221TIP3    H233859   2.807   8.750  17.007  0.0771 -0.1197 -0.3278
 3222TIP3   OH233860   6.002   6.877  16.689 -0.1317  0.2420  0.1278
 3222TIP3    H133861   6.007   6.873  16.593  2.3556  2.4870  0.0358
 3222TIP3    H233862   5.942   6.807  16.713 -0.9615 -0.3056 -3.0733
 3223TIP3   OH233863   4.223   8.676  17.714  0.5050  0.6760 -0.0991
 3223TIP3    H133864   4.244   8.762  17.677 -1.0191  0.4239 -1.6819
 3223TIP3    H233865   4.150   8.644  17.661  0.8509 -1.4943  0.6248
 3224TIP3   OH233866   5.661   1.294  17.360  0.5162  0.2829  0.1851
 3224TIP3    H133867   5.626   1.284  17.272  4.0594 -0.9043 -1.2873
 3224TIP3    H233868   5.655   1.207  17.399  0.7196  0.3394  0.3483
 3225TIP3   OH233869   5.889   7.994  16.179 -0.0122  0.1974 -0.0944
 3225TIP3    H133870   5.894   7.907  16.139  0.6132  0.2275 -0.0910
 3225TIP3    H233871   5.881   8.054  16.105 -1.8403  0.0640 -0.0556
 3226TIP3   OH233872   3.271   5.324  17.262  0.2181 -0.0787 -0.4009
 3226TIP3    H133873   3.339   5.387  17.237 -0.6348  1.4187  0.8290
 3226TIP3    H233874   3.207   5.329  17.190  0.1925  0.4198 -0.3482
 3227TIP3   OH233875   6.418   5.648  16.589 -0.1983 -0.3776  0.0236
 3227TIP3    H133876   6.384   5.597  16.516  0.6176  0.2894 -0.8569
 3227TIP3    H233877   6.380   5.735  16.578 -0.4678 -0.4050  0.6930
 3228TIP3   OH233878   8.239   3.630  18.035 -0.9704  0.1438  0.8467
 3228TIP3    H133879   8.318   3.578  18.051 -1.0872 -1.0208 -1.7911
 3228TIP3    H233880   8.267   3.721  18.043  0.1921 -0.2688  1.6916
 3229TIP3   OH233881   8.016   2.101  17.807 -0.3518 -0.0505 -0.1116
 3229TIP3    H133882   8.030   2.009  17.831 -0.4460  0.0857  0.4838
 3229TIP3    H233883   7.999   2.145  17.890  2.0861  0.9509 -0.0495
 3230TIP3   OH233884   1.397   2.175  17.071  0.2779 -0.0580 -0.2900
 3230TIP3    H133885   1.411   2.265  17.101 -0.8680  0.3343 -0.8825
 3230TIP3    H233886   1.476   2.154  17.021  0.1418  0.9752 -0.9736
 3231TIP3   OH233887   6.505   2.533  16.633  0.3118 -0.6180 -0.1788
 3231TIP3    H133888   6.556   2.599  16.680 -0.4441  1.6714 -2.2973
 3231TIP3    H233889   6.539   2.536  16.543 -2.1536 -0.3700 -1.1986
 3232TIP3   OH233890   1.357   7.331  17.101  0.4927 -0.4433 -0.1415
 3232TIP3    H133891   1.378   7.279  17.023  1.5896  1.2340 -1.0214
 3232TIP3    H233892   1.330   7.416  17.066  0.9904  0.3406  1.3145
 3233TIP3   OH233893   0.138   3.992  16.908  0.1469  0.2094 -0.4417
 3233TIP3    H133894   0.075   4.061  16.927 -1.3979 -1.2506  0.0108
 3233TIP3    H233895   0.193   4.028  16.838 -0.0508  2.1780  0.3436
 3234TIP3   OH233896   7.788   1.171  17.388  0.4474 -0.1839  0.3503
 3234TIP3    H133897   7.828   1.137  17.308  1.3970  0.6361  0.4650
 3234TIP3    H233898   7.699   1.136  17.386  0.3434  0.0866 -1.2344
 3235TIP3   OH233899   1.022   0.127  16.331 -0.2868 -0.0033  0.5229
 3235TIP3    H133900   0.929   0.146  16.320  0.0334  0.3443 -2.2534
 3235TIP3    H233901   1.066   0.209  16.308  0.7644 -0.7116 -0.0251
 3236TIP3   OH233902   5.853   7.093  16.194 -0.6612 -0.2514  0.1622
 3236TIP3    H133903   5.805   7.018  16.228 -1.0119  0.2350  0.7592
 3236TIP3    H233904   5.926   7.055  16.145 -1.5065 -0.9958 -0.5502
 3237TIP3   OH233905   6.301   5.395  16.701 -0.1779  0.2471  0.1444
 3237TIP3    H133906   6.274   5.487  16.703  0.9374  0.7082 -2.4406
 3237TIP3    H233907   6.386   5.395  16.743  0.3416  0.6359 -0.8767
 3238TIP3   OH233908   1.260   3.567  16.310 -0.1031 -0.2823  0.4175
 3238TIP3    H133909   1.291   3.657  16.302 -0.5397  0.2551  3.5087
 3238TIP3    H233910   1.338   3.514  16.299  0.5241  0.5961  0.5210
 3239TIP3   OH233911   9.081   8.916  16.587  0.3234  0.0132  0.4738
 3239TIP3    H133912   9.042   8.839  16.546  0.2376  0.6812 -0.7656
 3239TIP3    H233913   9.090   8.893  16.679  1.4687 -1.9588 -0.0623
 3240TIP3   OH233914   3.681   3.317  16.779  0.3761  0.1339 -0.2501
 3240TIP3    H133915   3.656   3.409  16.769 -0.8594 -0.2479 -0.8818
 3240TIP3    H233916   3.685   3.304  16.874 -0.1379  0.6638 -0.1422
 3241TIP3   OH233917   8.901   6.260  16.720 -0.1314 -0.4984 -0.3146
 3241TIP3    H133918   8.984   6.233  16.680  0.4445 -1.5984  1.5404
 3241TIP3    H233919   8.912   6.243  16.813 -1.7232  1.2409  0.2595
 3242TIP3   OH233920   0.947   7.603  17.679 -0.0467  0.4059  0.1584
 3242TIP3    H133921   0.911   7.688  17.703  0.0426 -0.0054  1.8758
 3242TIP3    H233922   0.875   7.542  17.694  0.0575  0.1059 -0.5435
 3243TIP3   OH233923   2.427   6.125  17.548  0.0431 -0.5829 -0.3260
 3243TIP3    H133924   2.386   6.156  17.629  1.2083  0.3637 -0.0710
 3243TIP3    H233925   2.355   6.122  17.484 -0.7333 -0.5657  0.5248
 3244TIP3   OH233926   4.844   2.886  17.081  0.4004 -0.1092  0.0301
 3244TIP3    H133927   4.799   2.949  17.137  2.3660  1.0725  0.3795
 3244TIP3    H233928   4.833   2.802  17.125 -1.0571  0.2191  0.3108
 3245TIP3   OH233929   3.727   1.700  16.058  0.5755 -0.2277  0.0271
 3245TIP3    H133930   3.785   1.625  16.068  0.8785  0.1222  1.0263
 3245TIP3    H233931   3.734   1.747  16.141  0.2263  0.7902 -0.5011
 3246TIP3   OH233932   4.410   6.733  16.641 -0.4714 -0.3043 -0.0621
 3246TIP3    H133933   4.401   6.768  16.552  1.3279  0.7565  0.1223
 3246TIP3    H233934   4.464   6.655  16.630  1.2675  0.8063  0.2453
 3247TIP3   OH233935   1.132   7.884  17.756 -0.0712  0.3585  0.5456
 3247TIP3    H133936   1.073   7.959  17.753 -0.7399 -0.1465  0.8760
 3247TIP3    H233937   1.127   7.846  17.669  0.9853  1.2185  0.0760
 3248TIP3   OH233938   6.345   9.030  16.351  0.1307  0.1583  0.1189
 3248TIP3    H133939   6.261   9.071  16.372  0.0324  0.9728 -1.6708
 3248TIP3    H233940   6.322   8.951  16.302  0.4080 -0.0612  0.3352
 3249TIP3   OH233941   4.711   8.847  16.783  0.3566  0.1772 -0.2042
 3249TIP3    H133942   4.640   8.893  16.828  1.2275  0.9769  0.4081
 3249TIP3    H233943   4.668   8.801  16.711 -0.9485 -0.3492  0.8581
 3250TIP3   OH233944   4.453   1.139  17.509 -0.4891  0.4186  0.3570
 3250TIP3    H133945   4.438   1.131  17.414 -1.5488  1.3096  0.4292
 3250TIP3    H233946   4.548   1.149  17.517 -0.3204 -0.2454 -0.5611
 3251TIP3   OH233947   1.753   2.068  17.379  0.2588 -0.0418 -0.5824
 3251TIP3    H133948   1.660   2.053  17.391 -0.3291  3.1756 -0.1708
 3251TIP3    H233949   1.771   2.040  17.289 -1.4210  0.4527 -1.0999
 3252TIP3   OH233950   1.306   8.729  15.895  0.0769  0.0966 -0.2848
 3252TIP3    H133951   1.234   8.779  15.856 -0.3053  0.3452  0.7157
 3252TIP3    H233952   1.283   8.721  15.987  2.0456  1.4571  0.3819
 3253TIP3   OH233953   8.006   1.562  16.857 -0.9615  0.1566  0.1187
 3253TIP3    H133954   7.970   1.611  16.782  0.9932 -0.6131 -1.4310
 3253TIP3    H233955   7.985   1.471  16.838 -1.1917  0.0250  0.9748
 3254TIP3   OH233956   5.257   5.347  16.096 -0.0087  0.4288 -0.0407
 3254TIP3    H133957   5.234   5.314  16.183 -0.3895  1.5580  0.3096
 3254TIP3    H233958   5.192   5.416  16.079 -0.5323 -0.4146 -1.6402
 3255TIP3   OH233959   8.020   4.861  17.605  0.2336  0.6309 -0.3434
 3255TIP3    H133960   8.080   4.930  17.633 -0.5002  1.1103  0.0692
 3255TIP3    H233961   8.029   4.793  17.672  1.2553  0.1265 -0.9622
 3256TIP3   OH233962   6.392   2.845  17.626 -0.0933  0.3778  0.1096
 3256TIP3    H133963   6.368   2.915  17.686 -0.3709 -1.4246  2.2374
 3256TIP3    H233964   6.333   2.773  17.649  0.5610 -0.7565 -1.5842
 3257TIP3   OH233965   0.859   8.981  16.845  0.3469 -0.0652 -0.2895
 3257TIP3    H133966   0.770   8.947  16.852  0.1526  0.5494  0.3121
 3257TIP3    H233967   0.854   9.048  16.777  0.3641 -0.0827 -0.3068
 3258TIP3   OH233968   7.606   5.044  16.629 -0.1146 -0.4383 -0.3328
 3258TIP3    H133969   7.573   4.968  16.580  1.2658 -1.2002 -0.1226
 3258TIP3    H233970   7.692   5.017  16.659 -0.3506  0.5510  1.3161
 3259TIP3   OH233971   1.438   3.183  16.505  0.6658  0.4955  0.3562
 3259TIP3    H133972   1.344   3.190  16.485 -0.1068 -2.3374  2.3811
 3259TIP3    H233973   1.459   3.267  16.547 -0.8725  1.2777 -0.3246
 3260TIP3   OH233974   8.443   8.554  16.478 -0.2792  0.0266 -0.3463
 3260TIP3    H133975   8.475   8.478  16.526 -1.6147  0.7018  1.7325
 3260TIP3    H233976   8.502   8.562  16.403  0.4664 -2.4639 -0.1098
 3261TIP3   OH233977   4.943   5.733  17.767  0.0705  0.3272  0.0966
 3261TIP3    H133978   5.038   5.741  17.773 -0.0740  1.2298  1.3652
 3261TIP3    H233979   4.921   5.778  17.685  0.6928  0.4734  0.0008
 3262TIP3   OH233980   8.963   3.538  17.824 -0.1726 -0.0256 -0.3488
 3262TIP3    H133981   8.967   3.627  17.858 -1.3720 -0.2335  0.3800
 3262TIP3    H233982   8.997   3.544  17.735 -0.6056  1.2211 -0.4383
 3263TIP3   OH233983   0.491   7.998  16.425 -0.0586 -0.3848 -0.2327
 3263TIP3    H133984   0.553   8.056  16.469  0.4937 -0.6387 -0.6617
 3263TIP3    H233985   0.540   7.963  16.350 -0.8785 -0.1985 -0.8686
 3264TIP3   OH233986   4.622   5.238  17.597 -0.6745  0.0029 -0.2926
 3264TIP3    H133987   4.655   5.285  17.674 -0.3402  0.8723 -0.9561
 3264TIP3    H233988   4.673   5.157  17.595  0.0932  0.4766 -0.2262
 3265TIP3   OH233989   3.756   7.111  17.431  0.0161 -0.6447 -0.2618
 3265TIP3    H133990   3.795   7.186  17.386  0.9032 -0.4175  0.8134
 3265TIP3    H233991   3.691   7.076  17.370 -1.5455  1.9283 -0.2106
 3266TIP3   OH233992   2.040   2.409  16.783  0.2678 -0.3186 -0.3828
 3266TIP3    H133993   2.129   2.403  16.819  1.0308 -2.4037 -2.4144
 3266TIP3    H233994   2.052   2.452  16.698 -0.4630 -1.7050 -1.2132
 3267TIP3   OH233995   6.829   4.121  17.182 -0.0486 -0.2051  0.6128
 3267TIP3    H133996   6.830   4.031  17.214 -1.2786 -0.1768  0.7884
 3267TIP3    H233997   6.808   4.174  17.260 -0.4675  0.1119  0.2933
 3268TIP3   OH233998   7.146   8.077  17.342 -0.0130 -0.1553 -0.5315
 3268TIP3    H133999   7.216   8.121  17.391  1.7640 -0.7695 -2.3914
 3268TIP3    H234000   7.176   7.987  17.333 -2.7774 -1.4500  1.6557
 3269TIP3   OH234001   6.558   7.187  16.238 -0.0933  0.0312  0.3762
 3269TIP3    H134002   6.575   7.207  16.146 -0.2554  0.0699  0.3528
 3269TIP3    H234003   6.614   7.112  16.258  0.8081  0.7331  0.5663
 3270TIP3   OH234004   4.432   2.273  16.456 -0.1261 -0.1100  0.3080
 3270TIP3    H134005   4.439   2.181  16.432 -1.5528 -0.0214 -0.5836
 3270TIP3    H234006   4.461   2.320  16.378 -1.6224  0.1753 -0.1079
 3271TIP3   OH234007   5.414   7.539  16.894  0.5141  0.5459  0.3644
 3271TIP3    H134008   5.399   7.596  16.969 -1.3460  1.7612 -0.8386
 3271TIP3    H234009   5.405   7.597  16.818  0.4891 -1.0001 -0.8568
 3272TIP3   OH234010   4.534   7.201  15.891 -0.0086 -0.1590  0.2372
 3272TIP3    H134011   4.503   7.127  15.943  0.2408 -0.3394  0.1317
 3272TIP3    H234012   4.566   7.161  15.810  0.9302 -0.0280  0.5253
 3273TIP3   OH234013   8.006   7.232  16.815  0.2241  0.0012 -0.1135
 3273TIP3    H134014   7.988   7.138  16.805  0.5193 -0.0416 -0.2484
 3273TIP3    H234015   8.034   7.260  16.728  0.1471  0.2137 -0.0706
 3274TIP3   OH234016   0.511   1.645  17.805  0.5121 -0.4304 -0.5795
 3274TIP3    H134017   0.513   1.551  17.788  0.5786 -0.4503 -0.4591
 3274TIP3    H234018   0.426   1.674  17.772  0.5414 -0.5111 -0.7292
 3275TIP3   OH234019   4.710   4.253  15.717 -0.2788  0.9203  0.5655
 3275TIP3    H134020   4.718   4.279  15.625 -2.3684 -0.3018 -0.0255
 3275TIP3    H234021   4.800   4.258  15.751  1.1705 -1.5319 -2.3718
 3276TIP3   OH234022   3.480   3.015  16.337 -0.5973  0.5939  0.1139
 3276TIP3    H134023   3.519   3.098  16.365 -0.8005  0.0834  2.0481
 3276TIP3    H234024   3.473   3.023  16.241  0.2081  2.4272  0.1632
 3277TIP3   OH234025   2.776   2.999  16.599  0.3657  0.1269  0.2298
 3277TIP3    H134026   2.860   3.041  16.615 -0.7299  2.3475  0.5435
 3277TIP3    H234027   2.780   2.973  16.507  1.0939  0.9660  0.0101
 3278TIP3   OH234028   4.285   5.629  16.429 -0.0510  0.2099  0.1661
 3278TIP3    H134029   4.238   5.593  16.504 -0.6665  2.6887  1.0709
 3278TIP3    H234030   4.367   5.579  16.425 -0.8040 -1.1812  1.3376
 3279TIP3   OH234031   6.217   1.693  17.442 -0.1356  0.1022 -0.5357
 3279TIP3    H134032   6.303   1.657  17.421 -0.6380 -1.3678 -0.1349
 3279TIP3    H234033   6.163   1.617  17.463 -1.0889  1.1217  0.8546
 3280TIP3   OH234034   1.961   7.538  16.902  0.2695 -0.0658 -0.0441
 3280TIP3    H134035   2.057   7.535  16.909  0.2298 -2.1716  0.0264
 3280TIP3    H234036   1.936   7.613  16.956  1.8337  0.1035  0.4986
 3281TIP3   OH234037   4.518   1.720  17.676  0.1710 -0.5520  0.4360
 3281TIP3    H134038   4.528   1.762  17.761  0.8199 -0.4494  0.3206
 3281TIP3    H234039   4.540   1.629  17.691 -1.6553 -0.9748  0.7739
 3282TIP3   OH234040   4.135   9.158  17.818 -0.8752  0.0546 -0.5035
 3282TIP3    H134041   4.066   9.208  17.861 -0.2688 -0.1411  0.7469
 3282TIP3    H234042   4.216   9.204  17.841 -0.5765  0.2352 -1.8778
 3283TIP3   OH234043   7.059   7.414  17.211  0.0614  0.2028  0.2214
 3283TIP3    H134044   7.138   7.383  17.167  0.0078  0.8588 -0.3455
 3283TIP3    H234045   7.087   7.430  17.302  0.3697 -0.3680  0.2297
 3284TIP3   OH234046   4.854   0.130  17.934  0.5449  0.3634 -0.1201
 3284TIP3    H134047   4.866   0.102  18.025 -1.4426  1.0868  0.4171
 3284TIP3    H234048   4.804   0.212  17.941  0.5466  0.5441 -1.8639
 3285TIP3   OH234049   2.424   3.167  16.481 -0.0029  0.0954  0.0163
 3285TIP3    H134050   2.456   3.127  16.400  0.6291  0.6460 -0.0084
 3285TIP3    H234051   2.430   3.261  16.466  0.0360  0.2014  0.6768
 3286TIP3   OH234052   5.089   2.536  17.784  0.1007  0.6456 -0.0608
 3286TIP3    H134053   5.155   2.605  17.782  2.7938 -1.7615 -1.6743
 3286TIP3    H234054   5.139   2.454  17.785 -2.8684 -1.3584 -0.6626
 3287TIP3   OH234055   0.852   2.704  17.691  0.2488  0.3926  0.0641
 3287TIP3    H134056   0.788   2.668  17.631 -0.4908  1.6701  0.0399
 3287TIP3    H234057   0.800   2.756  17.754  1.1142  0.1442  1.0143
 3288TIP3   OH234058   5.785   7.317  17.267 -0.4965 -0.8113  0.0487
 3288TIP3    H134059   5.697   7.281  17.260 -0.5471 -0.7904  0.5625
 3288TIP3    H234060   5.773   7.402  17.309 -0.5523  0.5318 -2.4544
 3289TIP3   OH234061   2.409   8.784  16.683 -0.1614 -0.1032 -0.2809
 3289TIP3    H134062   2.327   8.757  16.642 -0.0329  0.5435 -0.9794
 3289TIP3    H234063   2.475   8.726  16.646 -0.1368  0.0959 -0.5528
 3290TIP3   OH234064   3.954   0.076  17.567  0.1332  0.1682 -0.4046
 3290TIP3    H134065   3.912   0.107  17.487 -1.1122  0.3918  0.3200
 3290TIP3    H234066   3.886   0.026  17.612  1.2652 -1.2184 -0.1879
 3291TIP3   OH234067   9.196   8.768  17.345 -0.0124 -0.3376 -0.0014
 3291TIP3    H134068   9.153   8.752  17.429 -0.2606  0.8874  0.1242
 3291TIP3    H234069   9.247   8.689  17.328  0.9780 -0.1334  1.8737
 3292TIP3   OH234070   8.264   0.011  16.887 -0.1337 -0.0971 -0.4781
 3292TIP3    H134071   8.321  -0.028  16.953  1.6457 -0.0231 -1.9093
 3292TIP3    H234072   8.219  -0.063  16.847  0.3624 -0.3406 -0.5930
 3293TIP3   OH234073   3.648   5.667  16.108  0.7139 -0.2238 -0.1613
 3293TIP3    H134074   3.563   5.665  16.152 -0.5728  0.5149 -2.3998
 3293TIP3    H234075   3.648   5.589  16.053  1.3082 -0.0223 -0.4521
 3294TIP3   OH234076   1.740   3.143  17.013 -0.4006  0.2874 -0.4540
 3294TIP3    H134077   1.769   3.052  17.017 -1.3508 -0.0111  0.1474
 3294TIP3    H234078   1.715   3.157  16.922  1.2609  0.4524 -0.9041
 3295TIP3   OH234079   6.320   0.683  17.211 -0.6904  0.6437 -0.2793
 3295TIP3    H134080   6.296   0.739  17.284 -3.9618 -0.1312 -0.6227
 3295TIP3    H234081   6.391   0.628  17.245 -0.5891  1.8071  1.5208
 3296TIP3   OH234082   7.701   8.181  17.221 -0.1572 -0.6135 -0.1267
 3296TIP3    H134083   7.695   8.224  17.307 -2.0744  2.1253 -1.4460
 3296TIP3    H234084   7.626   8.122  17.219 -1.0696  0.5021 -0.4088
 3297TIP3   OH234085   6.695   4.832  16.676 -0.2395  0.2570  0.0257
 3297TIP3    H134086   6.635   4.812  16.748  1.2050 -2.1805  0.6891
 3297TIP3    H234087   6.667   4.775  16.604 -0.9366  1.8152 -1.0016
 3298TIP3   OH234088   4.763   7.079  16.364 -0.3085  0.3154 -0.3790
 3298TIP3    H134089   4.698   7.009  16.372  1.0866 -0.9729  0.0720
 3298TIP3    H234090   4.812   7.058  16.285  0.4636  0.4976  0.0460
 3299TIP3   OH234091   5.120   5.998  16.551 -0.3540 -0.4718 -0.2734
 3299TIP3    H134092   5.025   6.008  16.555 -0.5065 -1.0541 -1.7423
 3299TIP3    H234093   5.139   5.989  16.457  1.5719  3.4095 -0.4468
 3300TIP3   OH234094   3.014   7.418  17.468  0.1181  0.0208  0.1772
 3300TIP3    H134095   3.102   7.431  17.504  0.5898 -3.0738  0.4745
 3300TIP3    H234096   2.955   7.432  17.542  0.3550  1.6597  0.0896
 3301TIP3   OH234097   5.366   8.850  16.724 -0.1129  0.3416 -0.4304
 3301TIP3    H134098   5.302   8.811  16.664  1.0607  0.3663 -1.7562
 3301TIP3    H234099   5.431   8.781  16.738 -0.0384  0.5565  0.3359
 3302TIP3   OH234100   6.829   6.508  17.049 -0.8505 -0.0925  0.0588
 3302TIP3    H134101   6.840   6.467  16.963  2.2371  0.8581 -0.1151
 3302TIP3    H234102   6.906   6.481  17.099 -2.6561 -0.8042  2.7021
 3303TIP3   OH234103   7.878   1.892  17.135  0.7901 -0.2528  0.3211
 3303TIP3    H134104   7.875   1.797  17.124  0.6707 -0.2280  0.1405
 3303TIP3    H234105   7.929   1.905  17.216  1.3811 -0.4472 -0.0118
 3304TIP3   OH234106   0.168   3.380  16.691  0.0281 -0.6559  0.4685
 3304TIP3    H134107   0.153   3.334  16.608  1.3927  3.2136 -2.2429
 3304TIP3    H234108   0.085   3.423  16.710  0.2119 -0.1075  0.0585
 3305TIP3   OH234109   1.907   2.693  17.177 -0.3547 -0.1830  0.1369
 3305TIP3    H134110   1.870   2.660  17.095 -1.0318  0.5239  0.1520
 3305TIP3    H234111   1.984   2.638  17.191 -0.3136 -0.4218 -0.8906
 3306TIP3   OH234112   2.840   4.596  16.452 -0.0441  0.6035  0.2152
 3306TIP3    H134113   2.831   4.583  16.357  2.7892  0.0025 -0.0629
 3306TIP3    H234114   2.764   4.553  16.489 -1.0384  0.5331 -1.7639
 3307TIP3   OH234115   9.210   1.430  17.035  0.1224  0.0162  0.1780
 3307TIP3    H134116   9.249   1.396  16.954  2.1404  0.6917  0.7888
 3307TIP3    H234117   9.285   1.439  17.095 -1.1706  0.4561  1.7920
 3308TIP3   OH234118   4.224   5.248  17.381 -0.1282  0.2679 -0.2172
 3308TIP3    H134119   4.317   5.260  17.362 -0.2254 -2.6885 -3.7323
 3308TIP3    H234120   4.184   5.331  17.358  1.5770  1.6922  1.6383
 3309TIP3   OH234121   4.337   8.546  16.073 -0.6315 -0.1008  0.1953
 3309TIP3    H134122   4.359   8.637  16.093 -0.5248 -0.1588  0.3520
 3309TIP3    H234123   4.245   8.547  16.047 -0.6354  0.0483  0.2188
 3310TIP3   OH234124   1.657   3.499  17.321 -0.6269 -0.5920 -0.6795
 3310TIP3    H134125   1.654   3.592  17.343 -1.7551 -0.7937  0.0790
 3310TIP3    H234126   1.583   3.460  17.368 -2.6882 -1.2335 -4.0706
 3311TIP3   OH234127   0.955   8.083  17.769  0.4331  0.1942  0.1180
 3311TIP3    H134128   0.874   8.131  17.782  0.4225  0.2765 -0.2424
 3311TIP3    H234129   1.020   8.150  17.747  0.9992  0.3254  2.0581
 3312TIP3   OH234130   3.709   0.735  16.920  0.4923  0.2161  1.0175
 3312TIP3    H134131   3.624   0.717  16.879  1.0482 -2.5741  0.9382
 3312TIP3    H234132   3.688   0.745  17.013  0.0647 -0.7072  1.0350
 3313TIP3   OH234133   6.114   0.438  17.988 -0.8037 -0.7262  0.7104
 3313TIP3    H134134   6.104   0.385  18.067 -1.6051 -1.5395  0.0876
 3313TIP3    H234135   6.180   0.391  17.936 -0.4957 -0.3501  0.7510
 3314TIP3   OH234136   3.678   0.557  17.681  0.2770 -0.2027 -0.1453
 3314TIP3    H134137   3.611   0.508  17.729  0.7354  0.6400  1.4151
 3314TIP3    H234138   3.632   0.634  17.648  0.0923 -0.4919 -0.5687
 3315TIP3   OH234139   0.963   0.586  17.779 -0.4203 -0.1810 -0.3436
 3315TIP3    H134140   1.048   0.542  17.775 -0.7442 -0.9118  0.3957
 3315TIP3    H234141   0.909   0.529  17.835 -0.9906  0.9386  0.2876
 3316TIP3   OH234142   8.751   5.306  16.543  0.2933  0.8199 -0.1557
 3316TIP3    H134143   8.661   5.275  16.531  0.7032  0.5069 -3.5347
 3316TIP3    H234144   8.750   5.395  16.506  1.3169  0.9340  0.0792
 3317TIP3   OH234145   8.826   3.758  17.473 -1.1905  0.2187 -0.2809
 3317TIP3    H134146   8.857   3.676  17.512  1.2960  1.6692  1.0594
 3317TIP3    H234147   8.827   3.742  17.379  1.8291 -0.5451 -0.2278
 3318TIP3   OH234148   8.544   0.700  16.707  0.4995 -0.1707 -0.0307
 3318TIP3    H134149   8.573   0.708  16.798  0.0533  0.1847  0.0834
 3318TIP3    H234150   8.585   0.774  16.662  0.4728 -0.1666 -0.0494
 3319TIP3   OH234151   3.948   5.983  15.791 -0.7028  0.3137 -0.4013
 3319TIP3    H134152   3.940   6.075  15.818  2.1686  0.5503 -0.0535
 3319TIP3    H234153   3.879   5.938  15.840 -2.2812  2.2395 -0.6761
 3320TIP3   OH234154   5.500   6.292  16.077 -0.0424 -0.0086 -0.0412
 3320TIP3    H134155   5.579   6.246  16.048 -0.7226 -0.5022 -1.1288
 3320TIP3    H234156   5.499   6.279  16.172  1.8894  1.1271  0.1863
 3321TIP3   OH234157   8.539   7.427  16.309 -0.1656 -0.2237  0.1548
 3321TIP3    H134158   8.499   7.449  16.225 -0.5283  0.3174  0.4645
 3321TIP3    H234159   8.621   7.383  16.286 -0.5537 -0.6182 -0.4803
 3322TIP3   OH234160   7.643   3.637  17.003  0.1806 -0.4674 -0.2120
 3322TIP3    H134161   7.620   3.546  16.988 -0.5681 -0.6983  1.9291
 3322TIP3    H234162   7.561   3.685  16.991 -0.0291 -0.4436  1.1651
 3323TIP3   OH234163   2.611   4.235  17.406 -0.0919 -0.3094  0.5479
 3323TIP3    H134164   2.643   4.293  17.337  0.1593  0.4100  1.2441
 3323TIP3    H234165   2.557   4.170  17.361  0.2790 -0.0098 -0.3442
 3324TIP3   OH234166   2.496   7.655  15.866 -0.0948  0.1701  0.0601
 3324TIP3    H134167   2.492   7.742  15.826  1.7687 -0.1855 -1.0484
 3324TIP3    H234168   2.410   7.616  15.847 -1.0441  1.8214  0.7830
 3325TIP3   OH234169   0.404   0.985  16.998 -0.6373 -0.6870 -0.0472
 3325TIP3    H134170   0.386   0.931  16.921  2.2981  0.6922 -1.8495
 3325TIP3    H234171   0.331   1.046  17.001 -2.0355 -2.2655 -0.2326
 3326TIP3   OH234172   4.428   0.328  15.882 -0.3540 -0.2335  0.3492
 3326TIP3    H134173   4.452   0.251  15.832  2.5808  0.8445 -0.0649
 3326TIP3    H234174   4.335   0.315  15.903 -0.2269 -3.3050 -0.6001
 3327TIP3   OH234175   5.384   7.893  16.871  0.1209  0.0334 -0.2487
 3327TIP3    H134176   5.379   7.825  16.804 -0.8280  1.2646 -1.5161
 3327TIP3    H234177   5.414   7.971  16.824  0.8982  0.5807  1.0897
 3328TIP3   OH234178   0.230   7.443  16.528  0.1443  0.2533  0.0985
 3328TIP3    H134179   0.278   7.390  16.465  1.6789  1.3660  0.2857
 3328TIP3    H234180   0.288   7.449  16.604  0.6617  3.3099 -0.4395
 3329TIP3   OH234181   9.027   3.783  17.238 -0.0777  0.2245  0.0098
 3329TIP3    H134182   9.058   3.793  17.328  0.7586  0.5741 -0.3097
 3329TIP3    H234183   9.049   3.866  17.195  0.2652 -0.2324 -0.7251
 3330TIP3   OH234184   8.174   8.681  15.601 -0.0965 -0.1312 -0.0300
 3330TIP3    H134185   8.079   8.688  15.590 -0.2391 -1.2401  0.3849
 3330TIP3    H234186   8.185   8.621  15.674  0.9342 -0.1551 -0.1937
 3331TIP3   OH234187   6.609   1.638  17.127  0.0282  0.4799  0.4824
 3331TIP3    H134188   6.544   1.707  17.113 -1.5781 -0.9654  0.4697
 3331TIP3    H234189   6.624   1.602  17.040 -1.3703 -1.0483  0.8166
 3332TIP3   OH234190   1.858   5.604  17.618 -0.1991  0.5858  0.3373
 3332TIP3    H134191   1.822   5.517  17.633 -0.9942  0.7430 -0.5675
 3332TIP3    H234192   1.899   5.628  17.701  0.1777 -0.7158  0.5464
 3333TIP3   OH234193   3.586   8.164  17.428  0.3740 -0.2381 -0.5898
 3333TIP3    H134194   3.668   8.169  17.378 -0.5108  1.0913 -1.9633
 3333TIP3    H234195   3.606   8.208  17.511  0.5821  1.7434 -1.6352
 3334TIP3   OH234196   4.648   0.447  16.009 -0.2291  0.1614  0.0120
 3334TIP3    H134197   4.574   0.404  15.967 -0.0573 -0.6137  0.4758
 3334TIP3    H234198   4.721   0.432  15.949 -0.1593 -0.2382  0.1953
 3335TIP3   OH234199   0.096   5.374  17.800  0.0650 -0.0208 -0.1819
 3335TIP3    H134200   0.012   5.420  17.802  0.3922  0.5986 -0.6154
 3335TIP3    H234201   0.075   5.289  17.762 -0.4130  0.0295 -0.0427
 3336TIP3   OH234202   0.961   4.285  17.682 -0.7534  0.5883 -0.2894
 3336TIP3    H134203   1.052   4.265  17.662 -0.3176  1.3057  0.8538
 3336TIP3    H234204   0.961   4.378  17.705 -2.0574  0.9816 -1.7682
 3337TIP3   OH234205   3.802   5.614  16.472 -0.0417 -0.1724 -0.0414
 3337TIP3    H134206   3.886   5.620  16.427 -0.7408 -4.4616 -2.4234
 3337TIP3    H234207   3.818   5.555  16.545 -0.9660 -1.2380 -0.6668
 3338TIP3   OH234208   0.127   1.957  17.687 -0.1720  0.0974 -0.6085
 3338TIP3    H134209   0.133   1.982  17.595  1.0083 -0.7245 -0.7706
 3338TIP3    H234210   0.187   1.883  17.696  0.9274  1.1401  1.1466
 3339TIP3   OH234211   2.333   4.345  17.227  0.5066 -0.0182  0.2775
 3339TIP3    H134212   2.343   4.395  17.307  0.2498 -0.8234  0.8230
 3339TIP3    H234213   2.363   4.257  17.250 -0.9717 -0.6411 -0.0767
 3340TIP3   OH234214   8.670   2.900  16.307 -0.7216  0.6678 -0.1267
 3340TIP3    H134215   8.759   2.869  16.287 -1.0896  0.1094 -0.9579
 3340TIP3    H234216   8.617   2.821  16.311 -1.1816  0.9928  0.4313
 3341TIP3   OH234217   5.940   3.624  16.752  0.3726 -0.2569 -0.1659
 3341TIP3    H134218   5.866   3.627  16.691  1.2784  1.4462 -1.2816
 3341TIP3    H234219   5.914   3.682  16.823  0.5495  0.2341 -0.4909
 3342TIP3   OH234220   1.655   8.085  17.109 -0.6503 -0.3276  0.2618
 3342TIP3    H134221   1.698   8.100  17.193  2.9973 -1.9067 -1.0998
 3342TIP3    H234222   1.703   8.140  17.047 -1.1923 -1.4715 -1.2355
 3343TIP3   OH234223   9.052   1.649  16.976  0.7345 -0.2039 -0.2542
 3343TIP3    H134224   8.991   1.635  17.049  1.4522 -0.2389  0.3474
 3343TIP3    H234225   9.134   1.611  17.006  1.1548  0.1622 -0.9223
 3344TIP3   OH234226   0.407   3.283  17.304 -0.2500 -0.3476  0.6146
 3344TIP3    H134227   0.448   3.218  17.246  1.0889  1.4469 -0.5315
 3344TIP3    H234228   0.480   3.322  17.351 -1.0781  0.0749  1.5893
 3345TIP3   OH234229   4.696   6.244  16.476  0.7556  0.1044 -0.3651
 3345TIP3    H134230   4.667   6.253  16.567  2.1600  2.3242 -0.0780
 3345TIP3    H234231   4.617   6.218  16.428 -0.8188  2.1309  0.9666
 3346TIP3   OH234232   8.533   5.275  17.334 -0.2385  0.1138 -0.1105
 3346TIP3    H134233   8.516   5.268  17.240 -2.3693  1.7095  0.0789
 3346TIP3    H234234   8.446   5.283  17.373  0.6934  2.2359  1.7167
 3347TIP3   OH234235   2.176   4.456  16.190  0.1367 -0.0772 -0.9384
 3347TIP3    H134236   2.262   4.417  16.205 -0.4502 -0.5953  1.6299
 3347TIP3    H234237   2.118   4.382  16.174 -0.3294 -0.0338  0.3705
 3348TIP3   OH234238   4.363   4.323  16.556  0.0572  0.4987  0.3098
 3348TIP3    H134239   4.276   4.363  16.559  0.0446  0.4359  1.0534
 3348TIP3    H234240   4.360   4.265  16.480 -0.1837  1.3192 -0.3234
 3349TIP3   OH234241   0.120   2.910  16.663 -0.1234  0.2758 -0.0271
 3349TIP3    H134242   0.062   2.880  16.594 -0.2874 -1.4855  0.8022
 3349TIP3    H234243   0.198   2.854  16.655  1.3073  2.2831 -0.8368
 3350TIP3   OH234244   0.352   0.027  17.352 -0.0878  0.0049 -0.3442
 3350TIP3    H134245   0.341  -0.063  17.320  0.0696 -0.1214 -0.0507
 3350TIP3    H234246   0.291   0.079  17.300 -0.7172 -0.3880 -0.0092
 3351TIP3   OH234247   7.700   0.628  17.283 -0.1962  0.2603  0.0327
 3351TIP3    H134248   7.613   0.586  17.278  1.1713 -2.7323 -1.1515
 3351TIP3    H234249   7.757   0.559  17.317  1.6828  2.3151  1.2531
 3352TIP3   OH234250   8.182   0.610  16.329 -0.5490  0.3365  0.1654
 3352TIP3    H134251   8.194   0.575  16.241 -0.9161  1.5061 -0.3794
 3352TIP3    H234252   8.089   0.597  16.348 -0.4662  0.0646  0.4006
 3353TIP3   OH234253   2.438   8.594  16.139  0.3865  0.6292 -0.4008
 3353TIP3    H134254   2.522   8.640  16.142  0.7653 -0.0253 -0.7428
 3353TIP3    H234255   2.388   8.639  16.070 -0.3223  2.2701  1.0840
 3354TIP3   OH234256   5.150   1.482  17.656 -0.6298 -0.1505  0.1233
 3354TIP3    H134257   5.086   1.482  17.727 -1.0202 -0.3462 -0.2269
 3354TIP3    H234258   5.146   1.571  17.620  0.8158  0.5020  1.4487
 3355TIP3   OH234259   7.800   6.072  17.030 -0.0134  0.3590 -0.7407
 3355TIP3    H134260   7.830   5.985  17.057  1.5993  0.8243 -0.9369
 3355TIP3    H234261   7.708   6.075  17.058  0.6631 -0.3613  1.8185
 3356TIP3   OH234262   3.639   2.831  15.941 -0.6721  0.1901  0.3512
 3356TIP3    H134263   3.587   2.768  15.890  0.7808 -0.8713  0.0996
 3356TIP3    H234264   3.660   2.784  16.022 -1.1238  1.0646  0.9864
 3357TIP3   OH234265   5.224   5.763  17.740 -0.1533 -0.4066 -0.5087
 3357TIP3    H134266   5.295   5.698  17.742  0.1021 -0.1273 -0.2849
 3357TIP3    H234267   5.195   5.766  17.649 -0.0415 -0.7015 -0.5531
 3358TIP3   OH234268   8.508   5.730  17.770  0.4182 -0.4554 -0.6445
 3358TIP3    H134269   8.422   5.731  17.729  0.5868  1.2931 -1.0515
 3358TIP3    H234270   8.519   5.641  17.803 -0.8724 -1.1367 -1.9760
 3359TIP3   OH234271   9.093   6.555  16.897  0.1073  0.3262 -0.4426
 3359TIP3    H134272   9.120   6.544  16.806  0.1136 -0.3595 -0.3709
 3359TIP3    H234273   9.015   6.501  16.906  1.2821 -1.3571  0.4564
 3360TIP3   OH234274   7.317   6.754  16.056  0.1163  0.1437 -0.5318
 3360TIP3    H134275   7.383   6.727  15.992 -0.1689  0.3722 -0.9193
 3360TIP3    H234276   7.302   6.847  16.039 -0.7004 -0.0313 -0.7955
 3361TIP3   OH234277   4.365   4.898  16.961  0.1284 -0.5542  0.3005
 3361TIP3    H134278   4.305   4.841  16.912  1.0330 -1.1568 -0.1246
 3361TIP3    H234279   4.413   4.838  17.018  0.4702 -0.0977  0.4956
 3362TIP3   OH234280   2.378   5.290  17.660 -0.0680  0.2023  0.3718
 3362TIP3    H134281   2.339   5.274  17.746 -0.6812 -1.0671 -0.1069
 3362TIP3    H234282   2.380   5.203  17.619  2.0922  0.4378 -0.1254
 3363TIP3   OH234283   4.283   8.277  16.960  0.0373  0.0379  0.0367
 3363TIP3    H134284   4.355   8.326  17.000 -0.5664  0.2689  0.8638
 3363TIP3    H234285   4.292   8.189  16.995  1.9348 -0.8899 -2.4822
 3364TIP3   OH234286   4.598   5.865  16.981 -0.3571 -0.3492  0.3515
 3364TIP3    H134287   4.684   5.905  16.988 -0.3181 -0.2651 -0.5038
 3364TIP3    H234288   4.537   5.932  17.012 -0.1093 -0.4790  1.1400
 3365TIP3   OH234289   4.134   2.969  16.734 -0.2503  0.9140 -0.5275
 3365TIP3    H134290   4.187   2.896  16.766 -0.0652  0.0756 -2.5345
 3365TIP3    H234291   4.097   3.009  16.812  0.2717 -0.8569  0.6853
 3366TIP3   OH234292   3.343   1.669  16.683 -0.1635  0.1742 -0.2053
 3366TIP3    H134293   3.255   1.679  16.720 -0.3662 -0.1954 -0.5769
 3366TIP3    H234294   3.373   1.584  16.716  0.3371  0.6075  0.4853
 3367TIP3   OH234295   8.692   4.030  17.357 -0.0027  0.8390 -0.5985
 3367TIP3    H134296   8.632   4.084  17.305 -1.2164 -0.4006 -0.5522
 3367TIP3    H234297   8.709   3.954  17.302  0.8336  0.7564 -0.2350
 3368TIP3   OH234298   6.386   7.374  16.124  0.4503 -0.2033 -0.1465
 3368TIP3    H134299   6.374   7.292  16.076  3.8757 -0.7585 -0.3207
 3368TIP3    H234300   6.419   7.347  16.210 -1.1182  0.9713  0.8923
 3369TIP3   OH234301   5.294   2.495  16.415 -0.2470 -0.0919 -0.1297
 3369TIP3    H134302   5.226   2.529  16.358 -0.4853 -0.4001 -0.0323
 3369TIP3    H234303   5.302   2.559  16.486  1.1165  1.0968 -1.2838
 3370TIP3   OH234304   6.106   4.920  16.987  0.2488  0.3959 -0.5612
 3370TIP3    H134305   6.045   4.921  17.060  1.3539 -0.5489  0.4124
 3370TIP3    H234306   6.192   4.935  17.027  1.0957 -1.8075 -1.3942
 3371TIP3   OH234307   8.180   3.165  17.526  0.1986 -0.7390  0.4699
 3371TIP3    H134308   8.181   3.230  17.597 -3.1068 -0.3371  0.3346
 3371TIP3    H234309   8.219   3.210  17.451  0.3261  0.1648  1.0633
 3372TIP3   OH234310   0.058   7.377  17.393  0.4877 -0.4350 -0.0513
 3372TIP3    H134311   0.123   7.420  17.449 -1.1283  0.8829  0.9298
 3372TIP3    H234312   0.068   7.284  17.412  0.2103 -0.0609  2.2576
 3373TIP3   OH234313   7.793   7.760  17.055 -0.6805 -0.2044  0.4681
 3373TIP3    H134314   7.714   7.800  17.019  0.2641  2.0280  0.7078
 3373TIP3    H234315   7.851   7.750  16.980 -0.3212  0.4026  0.6573
 3374TIP3   OH234316   0.277   4.617  17.453 -0.4181  0.0286  0.0932
 3374TIP3    H134317   0.325   4.537  17.429 -0.3817  0.0840 -0.0218
 3374TIP3    H234318   0.209   4.587  17.513  1.6667  0.3288  2.8124
 3375TIP3   OH234319   4.591   6.323  15.689 -0.1514 -0.1608  0.3374
 3375TIP3    H134320   4.576   6.246  15.634 -1.7776 -0.1985  0.8064
 3375TIP3    H234321   4.669   6.301  15.740 -0.5949 -1.4992  0.4688
 3376TIP3   OH234322   1.749   4.127  16.793 -0.0547 -0.2838 -0.0342
 3376TIP3    H134323   1.664   4.120  16.838 -0.1852  0.1879 -0.2015
 3376TIP3    H234324   1.749   4.053  16.731 -1.5164  1.1914 -1.9514
 3377TIP3   OH234325   9.002   3.402  16.090  0.4136  0.5085 -0.4133
 3377TIP3    H134326   9.086   3.396  16.044 -0.1819  0.5807 -1.5495
 3377TIP3    H234327   9.024   3.385  16.181  1.9677  2.4215 -0.3566
 3378TIP3   OH234328   6.022   1.326  17.098  0.0493 -0.2233  0.0992
 3378TIP3    H134329   5.953   1.391  17.081  0.2483 -0.2330 -0.7705
 3378TIP3    H234330   6.013   1.262  17.028 -0.3709 -1.3518  1.1502
 3379TIP3   OH234331   7.800   5.454  17.015 -0.8138 -0.4967  0.5091
 3379TIP3    H134332   7.806   5.398  17.092 -1.4996 -2.9227 -1.0782
 3379TIP3    H234333   7.882   5.502  17.013  1.0074 -3.3969  0.5996
 3380TIP3   OH234334   0.368   2.585  17.410  0.1384  0.5552  0.0506
 3380TIP3    H134335   0.363   2.674  17.374  0.8414  0.3532 -0.5824
 3380TIP3    H234336   0.282   2.548  17.394 -0.2881  1.2451  0.6718
 3381TIP3   OH234337   6.458   6.827  17.889 -0.1622 -0.2661  0.1209
 3381TIP3    H134338   6.393   6.847  17.957 -1.3667 -1.5601 -0.5997
 3381TIP3    H234339   6.425   6.871  17.811 -0.7699 -1.7964 -0.5109
 3382TIP3   OH234340   6.263   8.439  17.402 -0.2682 -0.3457 -0.5946
 3382TIP3    H134341   6.222   8.404  17.481 -2.3333  1.0810 -0.9577
 3382TIP3    H234342   6.353   8.459  17.428 -0.2930 -1.8342  0.7749
 3383TIP3   OH234343   4.004   0.272  16.526  0.4678 -0.1984  0.7195
 3383TIP3    H134344   4.070   0.230  16.472 -0.7434 -0.7451 -0.4048
 3383TIP3    H234345   3.959   0.332  16.467 -1.1415 -1.0937  0.9631
 3384TIP3   OH234346   7.940   6.586  17.326  0.2386 -0.1862  0.7075
 3384TIP3    H134347   7.959   6.676  17.354  2.0159  0.2713 -1.6058
 3384TIP3    H234348   7.913   6.595  17.235  2.0697 -2.0774 -0.1017
 3385TIP3   OH234349   2.801   1.152  17.679  0.0509  0.2363 -0.3433
 3385TIP3    H134350   2.830   1.060  17.672 -1.8849 -0.3719 -0.9538
 3385TIP3    H234351   2.829   1.179  17.766  2.7950 -0.1262 -1.0228
 3386TIP3   OH234352   5.808   0.275  17.110  0.0047 -0.1409 -0.0115
 3386TIP3    H134353   5.864   0.281  17.033  0.0490 -2.0612 -0.1926
 3386TIP3    H234354   5.762   0.358  17.114 -0.8927 -0.4090 -2.8268
 3387TIP3   OH234355   1.199   1.315  16.284 -0.4403  0.1441  0.2665
 3387TIP3    H134356   1.247   1.297  16.203  0.3236  2.6080  0.0828
 3387TIP3    H234357   1.107   1.311  16.258 -0.2262 -0.0367 -0.5104
 3388TIP3   OH234358   0.806   7.875  16.464  0.1317  0.2726  0.2855
 3388TIP3    H134359   0.884   7.841  16.421  2.1258  1.3941  2.7493
 3388TIP3    H234360   0.740   7.808  16.451  1.4944 -0.7472 -1.8629
 3389TIP3   OH234361   7.381   6.753  16.607  0.0088 -0.6486  1.1406
 3389TIP3    H134362   7.355   6.661  16.616 -0.8188 -0.7811 -1.5234
 3389TIP3    H234363   7.364   6.773  16.515  1.1453  1.8999  1.4023
 3390TIP3   OH234364   7.661   7.717  16.100 -0.0171  0.5943  0.2581
 3390TIP3    H134365   7.659   7.792  16.160  0.0900  0.3544  0.5645
 3390TIP3    H234366   7.570   7.702  16.077  0.0865  1.8416 -1.1030
 3391TIP3   OH234367   8.130   0.156  16.632 -0.1962 -0.0493  0.2133
 3391TIP3    H134368   8.223   0.131  16.636 -0.1649  0.2610  2.1937
 3391TIP3    H234369   8.083   0.073  16.636 -0.0499 -0.2521 -1.3584
 3392TIP3   OH234370   0.983   0.355  18.115 -0.2870  0.2763 -0.6701
 3392TIP3    H134371   1.038   0.278  18.105  2.3411  1.5856  2.0114
 3392TIP3    H234372   0.912   0.327  18.172  0.2914 -0.3858 -0.2563
 3393TIP3   OH234373   3.513   0.686  16.716 -0.4757  0.3341 -0.0582
 3393TIP3    H134374   3.566   0.743  16.660  1.1072  0.0821  1.1027
 3393TIP3    H234375   3.423   0.701  16.688  0.0367  2.2459 -0.8162
 3394TIP3   OH234376   8.205   8.207  16.849 -0.0374 -0.0025  0.0051
 3394TIP3    H134377   8.284   8.194  16.902  0.3465  0.0718 -0.5420
 3394TIP3    H234378   8.177   8.119  16.825  1.0929  0.0070 -1.5427
 3395TIP3   OH234379   4.064   9.012  16.765  0.0800 -0.1202 -0.3164
 3395TIP3    H134380   4.071   9.023  16.670 -2.0853 -1.6367 -0.7101
 3395TIP3    H234381   4.139   8.957  16.788  1.8307  1.9419 -0.7487
 3396TIP3   OH234382   0.893   6.793  17.079  0.0065  0.3928  0.3940
 3396TIP3    H134383   0.818   6.734  17.083 -0.4330  0.6611 -2.1373
 3396TIP3    H234384   0.888   6.845  17.159 -2.5478  0.4362  0.2709
 3397TIP3   OH234385   0.653   1.920  17.532  0.4290  0.9580  0.0639
 3397TIP3    H134386   0.679   2.002  17.489 -1.2784  1.4492 -0.0926
 3397TIP3    H234387   0.597   1.876  17.469  3.2025 -1.5809 -0.8584
 3398TIP3   OH234388   1.257   5.239  17.350 -0.3022  0.4671 -0.0721
 3398TIP3    H134389   1.271   5.309  17.287  0.8856  0.7974  0.5328
 3398TIP3    H234390   1.324   5.174  17.330 -0.9893 -0.2243 -0.2140
 3399TIP3   OH234391   6.792   6.026  16.414 -0.3592  0.4886  0.2570
 3399TIP3    H134392   6.820   6.117  16.406  3.2554 -0.4385  0.4986
 3399TIP3    H234393   6.822   5.999  16.501 -2.0526 -0.7634  0.4997
 3400TIP3   OH234394   6.029   5.972  17.206 -0.4434 -0.5481  0.2167
 3400TIP3    H134395   6.063   5.908  17.268  2.3578  1.2943  0.7902
 3400TIP3    H234396   5.957   6.014  17.252 -2.0835 -2.9230 -0.0305
 3401TIP3   OH234397   5.456   1.887  16.620 -0.3106 -0.3109  0.0085
 3401TIP3    H134398   5.511   1.937  16.559  1.3438 -0.3641  1.3839
 3401TIP3    H234399   5.474   1.796  16.600 -0.4348 -0.3391  0.0217
 3402TIP3   OH234400   6.206   3.556  17.604  0.1079 -0.3885  0.6598
 3402TIP3    H134401   6.123   3.550  17.652  0.0256 -0.3354  0.5250
 3402TIP3    H234402   6.235   3.465  17.597 -0.2502 -0.4668  0.1581
 3403TIP3   OH234403   0.580   2.449  17.040 -0.3151 -0.0886 -0.0578
 3403TIP3    H134404   0.572   2.389  16.966 -3.6159  0.1329 -0.0588
 3403TIP3    H234405   0.585   2.536  16.999 -0.7298 -0.0640 -0.0680
 3404TIP3   OH234406   2.010   7.812  17.644 -0.1243 -0.3732 -0.1306
 3404TIP3    H134407   2.065   7.879  17.603  0.0281 -0.7939 -0.6202
 3404TIP3    H234408   2.018   7.736  17.586 -0.3318 -0.7990  0.3940
 3405TIP3   OH234409   0.455   2.386  16.373 -0.4312 -0.2091  0.4848
 3405TIP3    H134410   0.545   2.371  16.344 -0.5761 -1.6437  0.7342
 3405TIP3    H234411   0.419   2.448  16.308  0.7423  0.4452  0.4343
 3406TIP3   OH234412   8.667   2.276  17.441  0.1236 -0.0691  0.2463
 3406TIP3    H134413   8.712   2.343  17.493 -0.4043 -0.0704  0.7159
 3406TIP3    H234414   8.592   2.321  17.404  0.2057 -0.2046 -0.0836
 3407TIP3   OH234415   8.663   1.999  16.478  0.0770  0.3015 -0.3389
 3407TIP3    H134416   8.727   2.040  16.420  1.0153  0.4409  0.7709
 3407TIP3    H234417   8.673   2.044  16.562  1.0408 -2.0213  0.8849
 3408TIP3   OH234418   3.741   4.413  16.731  0.3160 -0.1972 -0.1089
 3408TIP3    H134419   3.683   4.391  16.658  2.0550 -2.3393 -0.9677
 3408TIP3    H234420   3.682   4.429  16.804 -1.4124 -1.7445 -1.0577
 3409TIP3   OH234421   8.882   1.379  17.758 -0.3993  0.1175 -0.4968
 3409TIP3    H134422   8.789   1.360  17.772 -0.4892  0.2626 -0.9006
 3409TIP3    H234423   8.913   1.307  17.703  0.2158 -1.0562  1.2924
 3410TIP3   OH234424   8.090   6.338  16.598  0.2203  0.3497  0.3308
 3410TIP3    H134425   8.155   6.363  16.532 -0.8755 -1.4925 -1.5572
 3410TIP3    H234426   8.137   6.276  16.655  0.5486  0.2049 -0.0887
 3411TIP3   OH234427   0.634   2.961  17.673  0.2872 -0.4891 -0.1865
 3411TIP3    H134428   0.614   2.880  17.719  0.1518 -0.4524 -0.1789
 3411TIP3    H234429   0.668   3.020  17.741  1.2298 -0.8300 -0.3534
 3412TIP3   OH234430   7.351   1.149  16.464  0.0879  0.3575 -0.1515
 3412TIP3    H134431   7.425   1.112  16.415 -0.4527 -0.9706 -0.0083
 3412TIP3    H234432   7.305   1.073  16.499 -0.6663  1.2117  0.7795
 3413TIP3   OH234433   2.084   9.153  17.603  0.0587 -0.0118 -0.1513
 3413TIP3    H134434   2.026   9.184  17.533  0.7840 -1.0243 -1.2401
 3413TIP3    H234435   2.033   9.084  17.646 -0.2564  0.3746  0.1000
 3414TIP3   OH234436   0.239   8.775  16.771 -0.1404 -0.2278 -0.5088
 3414TIP3    H134437   0.323   8.817  16.750  0.4341 -0.6332  0.8594
 3414TIP3    H234438   0.192   8.772  16.688  0.7572  0.9971 -1.0865
 3415TIP3   OH234439   9.071   7.725  16.668  0.5589 -0.1213  0.0127
 3415TIP3    H134440   9.166   7.728  16.680  0.4193 -2.2324  2.8926
 3415TIP3    H234441   9.036   7.785  16.734 -0.1151 -0.6046  0.1098
 3416TIP3   OH234442   5.201   0.803  16.309 -0.3166  0.8435  0.2487
 3416TIP3    H134443   5.240   0.843  16.231 -0.2428  0.5496  0.1326
 3416TIP3    H234444   5.249   0.721  16.320 -0.3724  0.8554  0.5675
 3417TIP3   OH234445   0.301   3.611  16.611  0.3069 -0.0192 -0.0865
 3417TIP3    H134446   0.336   3.579  16.528  2.3321 -0.2782  0.8111
 3417TIP3    H234447   0.262   3.534  16.652  2.0159 -0.6189  0.4980
 3418TIP3   OH234448   5.786   6.334  18.146 -0.4318 -0.0146 -0.0890
 3418TIP3    H134449   5.821   6.273  18.081 -1.1245  0.2254 -0.7034
 3418TIP3    H234450   5.808   6.294  18.230 -1.5229 -1.4942 -0.4653
 3419TIP3   OH234451   1.211   7.017  17.536 -0.1040  0.0534  0.1578
 3419TIP3    H134452   1.235   7.057  17.620  0.5051 -1.8348  0.9493
 3419TIP3    H234453   1.260   7.068  17.471  0.2886  0.8639  1.0547
 3420TIP3   OH234454   4.075   2.591  15.702  0.2268 -0.3220  0.5433
 3420TIP3    H134455   4.017   2.522  15.667  0.5119 -0.7372  0.8760
 3420TIP3    H234456   4.150   2.543  15.738  0.7883  0.2046  0.1115
 3421TIP3   OH234457   8.261   6.764  16.113  0.2232  0.2737  0.4222
 3421TIP3    H134458   8.294   6.684  16.071 -0.8516 -0.3216  0.6514
 3421TIP3    H234459   8.217   6.811  16.043  0.2653  0.3201  0.4279
 3422TIP3   OH234460   8.042   1.942  18.214  0.2944 -0.8052  0.2561
 3422TIP3    H134461   7.979   1.871  18.227  0.8962 -1.6209 -1.0460
 3422TIP3    H234462   8.081   1.923  18.128  1.4772  0.3240  0.5265
 3423TIP3   OH234463   8.963   4.595  17.069 -0.2901 -0.8029  0.5944
 3423TIP3    H134464   8.870   4.610  17.060 -0.4036 -1.6983  0.0731
 3423TIP3    H234465   8.981   4.521  17.010  0.3789 -1.9164  2.1130
 3424TIP3   OH234466   2.633   6.562  16.210  0.4805 -0.1406 -0.6265
 3424TIP3    H134467   2.552   6.512  16.210  0.8168 -0.7293  0.5703
 3424TIP3    H234468   2.673   6.543  16.295  1.9011  0.0906 -1.2159
 3425TIP3   OH234469   2.455   7.711  17.901  0.3805  0.5417 -0.9585
 3425TIP3    H134470   2.515   7.670  17.839  0.7625  0.5596 -0.6091
 3425TIP3    H234471   2.368   7.681  17.874  0.6648 -0.7265 -0.5495
 3426TIP3   OH234472   8.264   1.703  16.611 -0.0383 -0.3310 -0.0869
 3426TIP3    H134473   8.183   1.682  16.565 -0.0309  0.4602 -0.4787
 3426TIP3    H234474   8.324   1.732  16.543  0.9104 -1.8271  0.0718
 3427TIP3   OH234475   8.032   8.809  17.347  0.1696  0.0646  0.0998
 3427TIP3    H134476   7.978   8.829  17.271 -0.2585  1.1528  0.6646
 3427TIP3    H234477   8.033   8.891  17.397  0.5982 -0.5788  1.1642
 3428TIP3   OH234478   3.925   0.858  16.829  0.2994  0.2897 -0.5455
 3428TIP3    H134479   3.880   0.943  16.828  0.8442  0.5823 -1.2016
 3428TIP3    H234480   3.865   0.800  16.875 -0.6173  0.7415 -1.1421
 3429TIP3   OH234481   5.890   7.529  16.477 -0.2897  0.2273 -0.7295
 3429TIP3    H134482   5.874   7.622  16.489 -0.8562 -0.0889  1.5966
 3429TIP3    H234483   5.953   7.506  16.546 -0.0636 -1.0773 -1.3356
 3430TIP3   OH234484   8.182   6.183  17.041 -0.4764  0.1603 -0.8623
 3430TIP3    H134485   8.162   6.255  17.101  0.4931 -0.1721 -0.1093
 3430TIP3    H234486   8.099   6.162  17.000 -1.2297  0.2009  0.5890
 3431TIP3   OH234487   2.431   6.652  16.709 -0.3317  0.1476 -0.1875
 3431TIP3    H134488   2.432   6.744  16.683 -0.5475 -0.4268 -2.4460
 3431TIP3    H234489   2.346   6.640  16.752 -1.1456  0.6337 -1.5633
 3432TIP3   OH234490   0.166   5.863  17.780  0.1384 -0.0105  0.0022
 3432TIP3    H134491   0.137   5.936  17.725 -0.7718  0.1785  0.7067
 3432TIP3    H234492   0.086   5.830  17.820  0.5725 -1.2742 -0.1378
 3433TIP3   OH234493   1.801   2.032  16.167 -0.6661  0.3016  0.2260
 3433TIP3    H134494   1.868   2.040  16.235 -0.4410 -0.0865  0.0536
 3433TIP3    H234495   1.723   2.002  16.214 -0.0681 -1.6047  0.1026
 3434TIP3   OH234496   4.337   0.291  17.064 -0.2306  0.2800 -0.8910
 3434TIP3    H134497   4.292   0.224  17.115 -1.5430 -0.4832 -2.9080
 3434TIP3    H234498   4.275   0.364  17.061  0.3864  0.8372 -0.3250
 3435TIP3   OH234499   8.017   8.738  16.420  0.2493  0.5187 -0.4401
 3435TIP3    H134500   8.004   8.678  16.494  0.6218 -1.0060 -1.5475
 3435TIP3    H234501   8.111   8.738  16.405  0.0243 -1.0746 -2.3262
 3436TIP3   OH234502   3.410   1.566  17.362  0.1979 -0.5035  0.2479
 3436TIP3    H134503   3.362   1.648  17.359  0.0266 -0.6314 -1.5158
 3436TIP3    H234504   3.497   1.588  17.329  0.3456 -0.9144  0.3597
 3437TIP3   OH234505   2.935   5.808  16.443 -0.0701 -0.1163  0.1143
 3437TIP3    H134506   2.860   5.752  16.423  0.3927 -0.5271 -0.5052
 3437TIP3    H234507   2.901   5.897  16.434 -0.9608 -0.2668  1.6581
 3438TIP3   OH234508   5.125   0.131  17.846 -0.2002  0.0301 -0.0063
 3438TIP3    H134509   5.143   0.142  17.939 -0.3227 -1.5795  0.2328
 3438TIP3    H234510   5.030   0.143  17.838  0.0819  2.7113 -0.3714
 3439TIP3   OH234511   1.611   2.305  16.133 -0.3982 -0.2336  0.3890
 3439TIP3    H134512   1.534   2.333  16.183  0.8676  2.0310  1.2086
 3439TIP3    H234513   1.612   2.362  16.057  0.0949 -0.7200  0.0262
 3440TIP3   OH234514   2.764   3.127  17.026 -0.2118 -0.4287  0.2537
 3440TIP3    H134515   2.750   3.103  17.118 -0.0739 -2.0674 -0.1097
 3440TIP3    H234516   2.820   3.057  16.992 -0.2665  0.1541 -1.0821
 3441TIP3   OH234517   7.364   2.383  17.310  0.0885  0.2486 -0.4948
 3441TIP3    H134518   7.393   2.327  17.382  0.0500  0.8362 -0.0145
 3441TIP3    H234519   7.334   2.463  17.352  1.3856  1.1703 -1.2405
 3442TIP3   OH234520   1.919   0.211  16.836  0.5874  0.3827 -0.1907
 3442TIP3    H134521   1.961   0.297  16.827  1.4529  0.0394  0.4604
 3442TIP3    H234522   1.832   0.224  16.799  1.0995  1.2362 -1.1789
 3443TIP3   OH234523   3.593   2.083  17.428 -0.2421  0.4721 -0.4302
 3443TIP3    H134524   3.591   2.143  17.354 -0.4190  0.3903 -0.4923
 3443TIP3    H234525   3.674   2.104  17.474  0.1362  0.1641 -0.9389
 3444TIP3   OH234526   8.869   8.507  17.364  0.3191  0.4700 -0.0355
 3444TIP3    H134527   8.910   8.522  17.449 -0.7964 -0.9454  0.8102
 3444TIP3    H234528   8.778   8.536  17.376 -0.8159 -2.8635  0.4375
 3445TIP3   OH234529   8.066   3.434  16.777  0.0394 -0.4125  0.0086
 3445TIP3    H134530   8.144   3.441  16.721 -0.3243 -0.4161 -0.5026
 3445TIP3    H234531   8.047   3.340  16.782  0.2919 -0.4423  0.4493
 3446TIP3   OH234532   5.917   1.685  16.786  0.6690  0.0673 -0.2952
 3446TIP3    H134533   5.872   1.647  16.710  1.8442  0.8626 -1.4284
 3446TIP3    H234534   6.002   1.642  16.787  1.2709  1.2253 -0.4142
 3447TIP3   OH234535   3.593   1.486  16.921  0.3955 -0.0295 -0.8267
 3447TIP3    H134536   3.681   1.521  16.912  1.1471 -1.6554 -0.0377
 3447TIP3    H234537   3.556   1.532  16.997  2.3278 -2.6689  1.9236
 3448TIP3   OH234538   4.954   5.703  17.279  0.1506  0.0815 -0.0721
 3448TIP3    H134539   5.017   5.747  17.222 -0.5457 -0.0523 -0.9684
 3448TIP3    H234540   4.935   5.621  17.235 -1.1049  0.3834 -0.1334
 3449TIP3   OH234541   5.088   4.822  15.877  1.3206 -0.1973 -0.4531
 3449TIP3    H134542   5.168   4.838  15.827  1.2988  2.5655  0.2307
 3449TIP3    H234543   5.068   4.907  15.917  0.0136 -1.6839  2.3031
 3450TIP3   OH234544   5.566   7.105  16.937 -0.5242  0.3350 -0.2728
 3450TIP3    H134545   5.476   7.137  16.928 -0.1632  1.5150  0.0975
 3450TIP3    H234546   5.619   7.184  16.932  0.3800 -0.1219  1.3988
 3451TIP3   OH234547   5.353   6.355  15.843  0.7632 -0.1247 -0.0227
 3451TIP3    H134548   5.306   6.291  15.791  2.7279  1.0282 -3.5477
 3451TIP3    H234549   5.422   6.304  15.887 -0.6131 -1.0408  1.1528
 3452TIP3   OH234550   0.228   6.885  17.461  0.0815  0.3533 -0.3606
 3452TIP3    H134551   0.286   6.885  17.537  0.3999 -0.1894 -0.5980
 3452TIP3    H234552   0.196   6.794  17.455 -1.1410  0.7410  0.0275
 3453TIP3   OH234553   0.707   7.930  17.090 -0.1285 -0.1548 -0.2871
 3453TIP3    H134554   0.675   7.984  17.018  0.6394 -2.8283 -2.8619
 3453TIP3    H234555   0.799   7.915  17.069  0.2005 -0.7947  1.4603
 3454TIP3   OH234556   2.599   3.966  16.986 -0.1659 -0.2251 -0.3693
 3454TIP3    H134557   2.673   4.006  17.032 -1.9723  2.2260  0.6422
 3454TIP3    H234558   2.620   3.976  16.893  0.4442  1.1376 -0.1067
 3455TIP3   OH234559   4.101   3.669  17.612  0.6375  0.0609 -0.5145
 3455TIP3    H134560   4.185   3.631  17.587  0.6401  0.5199 -1.2238
 3455TIP3    H234561   4.122   3.759  17.637  0.3643  0.1553 -0.6236
 3456TIP3   OH234562   5.546   0.028  17.774  0.3497 -0.5005  0.2637
 3456TIP3    H134563   5.522   0.095  17.838  0.4838  0.9938 -1.1810
 3456TIP3    H234564   5.560  -0.052  17.826  1.4400  0.8783  2.2136
 3457TIP3   OH234565   5.595   0.181  16.936  0.0348  0.4299 -0.0223
 3457TIP3    H134566   5.535   0.209  17.006  1.2209  0.2627  1.1052
 3457TIP3    H234567   5.679   0.169  16.981  0.8716  0.5010 -1.5279
 3458TIP3   OH234568   1.855   6.747  16.915  0.0376  0.2594 -0.5100
 3458TIP3    H134569   1.836   6.663  16.957  2.7404 -1.1487 -1.8377
 3458TIP3    H234570   1.796   6.750  16.840 -1.7013  0.7201  0.8066
 3459TIP3   OH234571   1.345   9.098  17.710  0.1817 -0.2011  0.1240
 3459TIP3    H134572   1.424   9.044  17.704  0.1031 -0.2999 -0.0242
 3459TIP3    H234573   1.280   9.041  17.750 -0.2997 -0.6654 -1.2917
 3460TIP3   OH234574   1.502   8.952  16.361 -0.2037  0.0380  0.5270
 3460TIP3    H134575   1.541   8.946  16.273 -0.7461 -0.2039  0.2982
 3460TIP3    H234576   1.475   8.863  16.381  2.4221 -0.4904  2.1250
 3461TIP3   OH234577   4.074   0.638  16.264 -0.2852 -0.1324 -0.3927
 3461TIP3    H134578   4.140   0.584  16.219  2.2155 -0.2158  2.9504
 3461TIP3    H234579   4.024   0.576  16.317  1.0313  0.4076  1.6301
 3462TIP3   OH234580   7.545   9.147  16.951 -0.8380 -0.3752 -0.2105
 3462TIP3    H134581   7.583   9.128  17.037 -0.2610 -0.6817 -0.5200
 3462TIP3    H234582   7.597   9.093  16.891 -0.6930  0.4657 -0.8438
 3463TIP3   OH234583   0.484   1.144  16.385 -0.3443  0.2239 -0.1202
 3463TIP3    H134584   0.499   1.207  16.315  0.7004 -0.7639 -0.8284
 3463TIP3    H234585   0.492   1.058  16.342  1.9316 -0.4472  1.4563
 3464TIP3   OH234586   2.477   5.769  17.684  0.4791 -0.3194 -0.2238
 3464TIP3    H134587   2.517   5.855  17.696 -1.1892  0.5795 -0.6430
 3464TIP3    H234588   2.398   5.772  17.738  1.4092 -2.3727  1.3603
 3465TIP3   OH234589   5.324   2.025  17.389 -0.0252 -0.0761  0.1160
 3465TIP3    H134590   5.406   1.977  17.377  0.3223  0.3250  0.7606
 3465TIP3    H234591   5.340   2.079  17.467 -0.3475  1.1690 -0.6429
 3466TIP3   OH234592   2.739   3.086  17.381 -0.5122 -0.4251 -0.1075
 3466TIP3    H134593   2.829   3.085  17.351  0.1096  0.7277  1.5526
 3466TIP3    H234594   2.709   2.995  17.372  0.2543 -0.5047 -2.1671
 3467TIP3   OH234595   7.981   7.451  16.988  0.6619 -0.3601 -0.1211
 3467TIP3    H134596   7.961   7.531  16.940  0.4200 -1.1948 -1.4619
 3467TIP3    H234597   7.985   7.383  16.921 -0.4719 -1.7269  1.1169
 3468TIP3   OH234598   3.887   6.292  15.832 -0.2782 -0.4812 -0.4464
 3468TIP3    H134599   3.853   6.266  15.746  0.7764  1.5002 -1.5432
 3468TIP3    H234600   3.836   6.370  15.855  0.3667 -0.2109  0.0872
 3469TIP3   OH234601   0.552   0.843  16.200 -0.1101 -0.7437 -0.2096
 3469TIP3    H134602   0.507   0.762  16.176 -0.7969 -0.6199  0.5936
 3469TIP3    H234603   0.640   0.816  16.224  0.8662 -0.8076 -3.3561
 3470TIP3   OH234604   5.295   2.281  16.595  0.2423  0.0901  0.9906
 3470TIP3    H134605   5.386   2.307  16.610  0.6152 -1.2230  1.1475
 3470TIP3    H234606   5.261   2.346  16.535  0.9069  1.3140  1.8985
 3471TIP3   OH234607   1.280   7.967  17.464 -0.2107  0.8266  0.5576
 3471TIP3    H134608   1.234   7.888  17.495  0.5026 -0.6850 -1.9205
 3471TIP3    H234609   1.339   7.990  17.535 -0.9633 -0.4389  1.6408
 3472TIP3   OH234610   5.778   3.254  16.312  0.0221 -0.1249 -0.6538
 3472TIP3    H134611   5.796   3.348  16.306  0.0524 -0.0480  0.3688
 3472TIP3    H234612   5.696   3.241  16.265 -0.4625  0.5763 -0.0205
 3473TIP3   OH234613   2.786   2.263  17.655  0.4795  0.3051 -0.0894
 3473TIP3    H134614   2.693   2.265  17.680  0.7803  1.9914  1.0624
 3473TIP3    H234615   2.801   2.350  17.616  2.1733  1.1241  2.1961
 3474TIP3   OH234616   5.286   7.614  16.275 -0.0545 -0.1201  0.3757
 3474TIP3    H134617   5.296   7.528  16.235  1.1887  0.4303 -0.5616
 3474TIP3    H234618   5.193   7.621  16.294 -0.2100 -1.5762  0.2565
 3475TIP3   OH234619   4.325   4.527  17.095 -0.4599  0.7549  0.7317
 3475TIP3    H134620   4.231   4.538  17.108 -0.4940 -0.8864  2.1421
 3475TIP3    H234621   4.332   4.459  17.027 -0.2633  1.9737 -0.5061
 3476TIP3   OH234622   8.696   0.055  18.004 -0.0693  0.1621 -0.0436
 3476TIP3    H134623   8.622   0.013  17.959 -1.3516  1.8801  0.3524
 3476TIP3    H234624   8.710   0.002  18.082 -0.4547 -0.5560 -0.4467
 3477TIP3   OH234625   1.836   1.111  17.752 -0.5908  0.3146 -0.3376
 3477TIP3    H134626   1.816   1.204  17.758 -1.6454  0.1107 -0.5116
 3477TIP3    H234627   1.757   1.067  17.784 -0.1048 -0.5247 -0.2440
 3478TIP3   OH234628   3.733   5.633  17.339 -0.5658  0.4067  0.2802
 3478TIP3    H134629   3.795   5.652  17.410 -1.0880  0.7877  0.6440
 3478TIP3    H234630   3.768   5.682  17.264  0.8391 -1.2187 -0.1866
 3479TIP3   OH234631   1.755   8.103  17.368  0.0767  0.0026 -0.4405
 3479TIP3    H134632   1.843   8.112  17.406 -0.9056  2.4073  1.5405
 3479TIP3    H234633   1.725   8.017  17.398  0.2754  0.8293  2.4325
 3480TIP3   OH234634   5.455   8.811  17.707 -0.2240 -0.2436 -0.6739
 3480TIP3    H134635   5.468   8.717  17.699 -0.4147 -0.1086 -4.0520
 3480TIP3    H234636   5.415   8.823  17.793 -3.2402 -3.6658 -1.3443
 3481TIP3   OH234637   1.690   4.744  16.815  0.2976  0.9485 -0.0110
 3481TIP3    H134638   1.684   4.723  16.722 -0.4985  1.3638 -0.0594
 3481TIP3    H234639   1.634   4.820  16.826 -1.8616 -0.7140  1.2961
 3482TIP3   OH234640   6.162   5.011  16.083  0.1129 -0.3939  0.2677
 3482TIP3    H134641   6.186   4.967  16.001 -0.0383 -0.6020  0.3366
 3482TIP3    H234642   6.082   5.059  16.061  0.9101  0.8248 -0.1485
 3483TIP3   OH234643   6.700   2.727  16.652 -0.1590  0.1834  0.6540
 3483TIP3    H134644   6.715   2.783  16.576 -1.1904  0.9579  0.9967
 3483TIP3    H234645   6.784   2.686  16.669  0.6209  1.6203  0.3718
 3484TIP3   OH234646   5.301   4.150  16.634  0.0083  0.5813 -0.3316
 3484TIP3    H134647   5.226   4.203  16.658  1.0463  2.0611 -0.2577
 3484TIP3    H234648   5.263   4.074  16.590 -1.4743  1.7917 -1.2452
 3485TIP3   OH234649   4.018   3.000  17.007 -0.0101 -0.1551 -0.4210
 3485TIP3    H134650   3.941   3.013  16.952 -0.7134  1.6215  0.8707
 3485TIP3    H234651   4.002   2.917  17.052  0.0200 -1.0185 -1.9553
 3486TIP3   OH234652   7.020   0.133  17.519  0.0728 -0.4383  0.2573
 3486TIP3    H134653   6.970   0.175  17.589 -0.8851  0.7661 -1.0636
 3486TIP3    H234654   6.990   0.042  17.519  0.6363 -0.6432  1.8507
 3487TIP3   OH234655   8.738   1.543  17.015 -0.3918  0.8255  0.2392
 3487TIP3    H134656   8.679   1.498  16.955 -0.8224  1.4465  0.1756
 3487TIP3    H234657   8.700   1.527  17.102  0.9854 -1.2189  0.5270
 3488TIP3   OH234658   2.363   2.273  17.253 -0.2776  0.3778  0.2877
 3488TIP3    H134659   2.289   2.247  17.199  0.6206  0.5161 -1.0720
 3488TIP3    H234660   2.351   2.225  17.335 -1.8450  0.3966  0.0994
 3489TIP3   OH234661   6.471   7.558  17.754  0.1843  0.1945 -0.3291
 3489TIP3    H134662   6.390   7.606  17.770 -0.2663 -0.4872 -0.5285
 3489TIP3    H234663   6.444   7.467  17.746  0.7049  0.1775 -2.4351
 3490TIP3   OH234664   1.768   3.786  17.396  0.0379 -0.5708  0.0470
 3490TIP3    H134665   1.829   3.760  17.327 -1.3568  0.4527 -1.6615
 3490TIP3    H234666   1.796   3.875  17.421  0.4513 -0.8826  0.7181
 3491TIP3   OH234667   1.071   3.402  16.184 -0.1335 -0.2334  0.4833
 3491TIP3    H134668   1.127   3.373  16.113 -1.0048 -1.0614  0.1143
 3491TIP3    H234669   1.129   3.452  16.242  0.7752 -0.3214 -0.3310
 3492TIP3   OH234670   7.909   1.734  16.655  0.0370  0.2169  0.4890
 3492TIP3    H134671   7.818   1.708  16.639  0.1261  0.3573 -0.2882
 3492TIP3    H234672   7.952   1.722  16.571  0.0047  3.1926 -0.0845
 3493TIP3   OH234673   6.075   6.894  16.106  0.3212 -0.1153  0.1478
 3493TIP3    H134674   6.121   6.811  16.095  1.8151  0.7621 -0.5699
 3493TIP3    H234675   6.033   6.910  16.022 -1.0741 -0.7387  0.6892
 3494TIP3   OH234676   6.513   6.398  17.128 -0.2218  0.2377 -0.0914
 3494TIP3    H134677   6.552   6.461  17.189  0.9033 -0.6220  0.0957
 3494TIP3    H234678   6.421   6.394  17.154 -0.4020  2.0115 -0.2959
 3495TIP3   OH234679   6.800   7.677  16.798 -0.0451  0.0902  0.3609
 3495TIP3    H134680   6.722   7.696  16.850  0.3018 -0.9689  1.3076
 3495TIP3    H234681   6.786   7.722  16.715 -2.0155 -0.7061  0.2190
 3496TIP3   OH234682   3.302   2.979  16.574  0.3351  0.7402 -0.0125
 3496TIP3    H134683   3.335   3.018  16.655  0.5296  0.7929 -0.1170
 3496TIP3    H234684   3.379   2.972  16.518 -0.0611  2.1566 -0.7866
 3497TIP3   OH234685   8.474   1.134  17.786 -0.1221  0.0393 -0.3348
 3497TIP3    H134686   8.531   1.062  17.757 -0.7039 -1.0187  1.0539
 3497TIP3    H234687   8.418   1.095  17.853 -0.4481  1.8026  0.4688
 3498TIP3   OH234688   7.162   2.085  17.555  0.2632 -0.1453 -0.4190
 3498TIP3    H134689   7.107   2.009  17.573  0.4511 -0.5364 -1.3988
 3498TIP3    H234690   7.100   2.154  17.531  0.1111 -0.0678  0.1762
 3499TIP3   OH234691   1.931   1.252  16.661 -0.4429  0.1320  0.6945
 3499TIP3    H134692   1.917   1.347  16.662 -0.3052  0.1504  1.0310
 3499TIP3    H234693   1.850   1.216  16.698 -0.6833  0.0925  0.1341
 3500TIP3   OH234694   7.545   0.922  16.407  0.0641 -0.2657  0.1809
 3500TIP3    H134695   7.554   0.837  16.364 -0.5041 -0.1987 -0.0862
 3500TIP3    H234696   7.567   0.986  16.339  1.0928 -0.2044  0.5488
 3501TIP3   OH234697   6.756   8.987  16.870 -0.2151  0.5409 -0.2729
 3501TIP3    H134698   6.831   9.047  16.874 -0.0619  0.3812 -0.6801
 3501TIP3    H234699   6.769   8.938  16.789 -1.0601  0.9012 -0.6322
 3502TIP3   OH234700   6.606   9.132  17.243 -0.1943  0.1786 -0.1317
 3502TIP3    H134701   6.615   9.170  17.330  1.8057  0.7903 -0.5528
 3502TIP3    H234702   6.695   9.105  17.219 -0.7925 -0.4756 -1.7700
 3503TIP3   OH234703   2.521   3.704  17.014  0.1235  0.2314  0.0012
 3503TIP3    H134704   2.531   3.799  17.021 -0.3480  0.4086 -1.3796
 3503TIP3    H234705   2.588   3.668  17.072  0.4918  1.4040  0.3179
 3504TIP3   OH234706   5.948   5.503  17.637 -0.4218  0.3563  0.4610
 3504TIP3    H134707   5.889   5.524  17.565  1.2144  2.5596 -0.3392
 3504TIP3    H234708   5.979   5.588  17.668  4.3241 -0.6297 -0.8724
 3505TIP3   OH234709   3.786   3.626  16.675  0.2077  0.2353  0.0609
 3505TIP3    H134710   3.733   3.695  16.634  0.0147 -0.0631 -0.1973
 3505TIP3    H234711   3.876   3.658  16.669  0.1901  0.1743 -0.6516
 3506TIP3   OH234712   7.019   7.184  16.709 -0.0468  0.4456  0.3702
 3506TIP3    H134713   7.046   7.275  16.709  1.2858  0.1080  2.2682
 3506TIP3    H234714   7.062   7.146  16.632 -0.9465  1.4501 -0.6716
 3507TIP3   OH234715   3.130   1.287  15.965  0.1916 -0.4206  0.2954
 3507TIP3    H134716   3.225   1.281  15.975  0.2643 -0.1075 -0.1664
 3507TIP3    H234717   3.110   1.233  15.888  0.2529  1.0999 -0.8400
 3508TIP3   OH234718   7.612   1.909  17.294 -0.2513  0.0963  0.7330
 3508TIP3    H134719   7.669   1.836  17.318 -0.8464 -1.0738 -1.1767
 3508TIP3    H234720   7.528   1.888  17.333 -0.5455 -0.5339 -0.1812
 3509TIP3   OH234721   3.691   1.458  17.304  0.0915 -0.1015 -0.2244
 3509TIP3    H134722   3.720   1.383  17.356 -0.1596 -0.0352  0.0099
 3509TIP3    H234723   3.771   1.491  17.263  0.0319 -1.2978 -1.3882
 3510TIP3   OH234724   8.893   0.375  15.765  0.1344  0.1072  0.1198
 3510TIP3    H134725   8.814   0.330  15.796  0.6141 -1.1615 -0.4322
 3510TIP3    H234726   8.883   0.465  15.797 -1.7068  0.0842 -0.2369
 3511TIP3   OH234727   8.974   0.199  17.097 -0.0089  0.4178 -0.5854
 3511TIP3    H134728   8.936   0.174  17.012  0.3393  1.4583 -1.0660
 3511TIP3    H234729   9.001   0.116  17.136 -0.3958 -0.1052 -1.3825
 3512TIP3   OH234730   0.386   5.537  16.417 -0.6792 -0.5518 -0.3899
 3512TIP3    H134731   0.291   5.528  16.414 -0.6493 -0.7508 -0.8133
 3512TIP3    H234732   0.417   5.455  16.456 -0.8937  0.9714  3.4518
 3513TIP3   OH234733   5.421   6.947  17.537  0.2106  0.6182 -0.2866
 3513TIP3    H134734   5.515   6.938  17.523  0.1374  0.0323 -0.4532
 3513TIP3    H234735   5.384   6.957  17.449  0.0367 -0.0799 -0.3026
 3514TIP3   OH234736   5.603   2.399  17.443  0.0091 -0.2527  0.0293
 3514TIP3    H134737   5.666   2.424  17.511  0.8683 -1.2406 -0.3710
 3514TIP3    H234738   5.639   2.435  17.362  0.4206 -1.3340 -0.2972
 3515TIP3   OH234739   3.925   2.077  16.348  0.1631  0.1918  0.5080
 3515TIP3    H134740   3.976   2.068  16.268  0.2792 -0.9323  0.6870
 3515TIP3    H234741   3.894   2.168  16.347 -0.7596 -0.0944 -1.3744
 3516TIP3   OH234742   2.355   0.661  17.121 -0.0195  0.5212  0.1152
 3516TIP3    H134743   2.424   0.597  17.105 -0.5020 -0.2095  0.8339
 3516TIP3    H234744   2.371   0.731  17.058  0.8196 -0.0762 -0.3490
 3517TIP3   OH234745   5.059   4.230  16.166 -0.3388 -0.0259  0.1819
 3517TIP3    H134746   5.076   4.151  16.218 -0.1644 -1.4565 -1.9079
 3517TIP3    H234747   4.992   4.203  16.103  0.8313  1.0192 -1.5799
 3518TIP3   OH234748   4.050   9.139  16.522 -0.8390 -0.2218  0.3064
 3518TIP3    H134749   4.099   9.217  16.545  0.9380 -1.6836  1.8424
 3518TIP3    H234750   3.968   9.171  16.485 -0.3067  2.3342  1.1785
 3519TIP3   OH234751   7.148   7.115  16.482  0.2166  0.2698 -0.0761
 3519TIP3    H134752   7.186   7.028  16.493  1.4756  0.9702  1.5278
 3519TIP3    H234753   7.223   7.173  16.470 -0.5136  1.3093  0.2586
 3520TIP3   OH234754   8.242   4.191  17.108 -0.2194 -0.3274  0.3817
 3520TIP3    H134755   8.174   4.248  17.143  0.8101  1.1976 -0.0273
 3520TIP3    H234756   8.321   4.212  17.159  0.2822 -1.0618 -0.0735
 3521TIP3   OH234757   0.956   1.065  17.573  0.0085 -0.4122 -0.4254
 3521TIP3    H134758   1.038   1.108  17.595 -1.1132  1.4179  0.4423
 3521TIP3    H234759   0.933   1.015  17.651 -0.7869  0.9484  0.2716
 3522TIP3   OH234760   1.893   8.501  17.778  0.4008 -0.0178 -0.1978
 3522TIP3    H134761   1.927   8.483  17.691  0.8607  1.3617 -0.3306
 3522TIP3    H234762   1.944   8.445  17.836  0.8841 -0.1075 -0.6965
 3523TIP3   OH234763   5.310   8.490  16.328  0.8658 -0.3209 -0.6541
 3523TIP3    H134764   5.360   8.493  16.246 -1.2208  2.3518 -2.0225
 3523TIP3    H234765   5.222   8.463  16.300  0.0526  0.8899  0.6343
 3524TIP3   OH234766   7.912   1.809  17.741 -0.1142 -0.3315  0.1019
 3524TIP3    H134767   7.853   1.735  17.735 -1.1385  0.5252 -0.6926
 3524TIP3    H234768   7.858   1.885  17.722  0.6586  0.7541  1.9294
 3525TIP3   OH234769   8.805   8.903  17.510  0.0620  0.0065  0.0968
 3525TIP3    H134770   8.732   8.911  17.570  0.9526  0.4349  1.1561
 3525TIP3    H234771   8.852   8.986  17.517  1.0437 -0.5186 -0.0219
 3526TIP3   OH234772   3.687   7.701  17.662  0.2978  0.2218 -0.3140
 3526TIP3    H134773   3.644   7.622  17.631 -1.4004  0.2423  1.7187
 3526TIP3    H234774   3.715   7.680  17.751  0.3662  1.7166  0.0517
 3527TIP3   OH234775   2.508   1.578  16.324  0.4026 -0.3504 -0.5284
 3527TIP3    H134776   2.604   1.577  16.318  0.3202 -0.4253 -2.8078
 3527TIP3    H234777   2.479   1.528  16.247 -1.4763 -1.6956  0.9561
 3528TIP3   OH234778   5.125   1.143  17.485 -0.2725 -0.0037 -0.2910
 3528TIP3    H134779   5.040   1.111  17.515 -1.3286  0.6970 -2.2886
 3528TIP3    H234780   5.164   1.067  17.440 -0.5185  0.0795 -0.6513
 3529TIP3   OH234781   8.136   6.708  15.693  0.4893  0.0800 -0.2705
 3529TIP3    H134782   8.091   6.635  15.735  1.5558  0.7936  2.2843
 3529TIP3    H234783   8.211   6.669  15.650  0.7985 -0.4118  0.6960
 3530TIP3   OH234784   4.767   7.271  17.312  0.1440  0.3830 -0.1921
 3530TIP3    H134785   4.698   7.263  17.246 -0.8157  0.5105  0.7790
 3530TIP3    H234786   4.798   7.181  17.323 -0.2837  0.2308 -0.1953
 3531TIP3   OH234787   7.451   4.857  16.468 -0.2304  0.0474 -0.5675
 3531TIP3    H134788   7.409   4.920  16.410 -0.2262 -1.6395 -2.5320
 3531TIP3    H234789   7.387   4.841  16.537  0.0890  2.7182  0.4652
 3532TIP3   OH234790   7.932   8.575  17.729 -0.2251 -0.6832  0.4527
 3532TIP3    H134791   7.917   8.588  17.636  0.0081  0.5155  0.5616
 3532TIP3    H234792   7.947   8.481  17.739  1.7417 -0.5613 -0.9901
 3533TIP3   OH234793   3.576   0.814  17.657 -0.4912  0.4269  0.2732
 3533TIP3    H134794   3.644   0.861  17.705  0.0314  2.3474 -2.1511
 3533TIP3    H234795   3.527   0.882  17.611 -1.2380 -1.2317 -1.5512
 3534TIP3   OH234796   6.996   6.742  17.300 -0.5581 -0.0141  0.3627
 3534TIP3    H134797   7.010   6.715  17.390 -0.5653  0.6913  0.5871
 3534TIP3    H234798   7.010   6.837  17.301 -1.6612  0.1698 -0.1531
 3535TIP3   OH234799   6.666   9.103  16.214  0.3984  0.6245 -0.2624
 3535TIP3    H134800   6.719   9.163  16.162  0.3754  0.6767 -0.2259
 3535TIP3    H234801   6.719   9.023  16.219 -0.0125  0.2701 -1.2001
 3536TIP3   OH234802   6.637   8.212  16.945  0.1473 -0.1238  0.1084
 3536TIP3    H134803   6.723   8.169  16.941  0.0703 -0.6196  2.4920
 3536TIP3    H234804   6.580   8.147  16.986 -0.8187  1.0090  0.5945
 3537TIP3   OH234805   7.123   0.213  15.814  0.5690 -0.1186  0.1327
 3537TIP3    H134806   7.041   0.165  15.800  1.2120 -1.2789  0.1898
 3537TIP3    H234807   7.170   0.206  15.731  0.4417  0.8990 -0.0357
 3538TIP3   OH234808   5.163   6.795  17.197 -0.0584 -0.5405  0.0431
 3538TIP3    H134809   5.113   6.760  17.123 -1.5100 -1.2966  1.3278
 3538TIP3    H234810   5.104   6.787  17.272  2.1414 -1.9258  1.7564
 3539TIP3   OH234811   0.880   5.274  16.522  0.1006  0.4770 -0.6874
 3539TIP3    H134812   0.970   5.299  16.543  0.7471 -1.0210 -1.5257
 3539TIP3    H234813   0.867   5.304  16.432  0.3481 -0.7288 -1.1443
 3540TIP3   OH234814   2.460   8.170  16.851  0.8330 -0.1045 -0.4472
 3540TIP3    H134815   2.447   8.151  16.758  0.7537  2.3274 -1.0224
 3540TIP3    H234816   2.398   8.241  16.869  1.7739  0.3734  1.1078
 3541TIP3   OH234817   9.211   0.215  16.620  0.4147 -0.9786  0.2249
 3541TIP3    H134818   9.218   0.121  16.609  0.9622 -0.9007 -0.1047
 3541TIP3    H234819   9.208   0.249  16.530 -0.5888 -0.7391  0.3355
 3542TIP3   OH234820   2.490   3.972  16.509  0.1546 -0.3848 -0.1542
 3542TIP3    H134821   2.499   3.877  16.496 -0.7512 -0.9059  2.3624
 3542TIP3    H234822   2.563   3.995  16.565  0.1371  0.3452 -0.4279
 3543TIP3   OH234823   8.545   5.515  17.518  0.3498  0.0602  0.1088
 3543TIP3    H134824   8.453   5.513  17.492  0.2565 -3.3694  0.3451
 3543TIP3    H234825   8.543   5.504  17.613  0.9816 -2.1989 -0.0930
 3544TIP3   OH234826   5.024   4.546  17.336 -0.5663 -0.2359  0.0104
 3544TIP3    H134827   5.053   4.627  17.293 -1.1032 -0.5680 -1.0010
 3544TIP3    H234828   5.103   4.512  17.378 -0.2623  0.6465  0.1774
 3545TIP3   OH234829   1.395   7.974  17.706  0.6867  0.2104  0.0189
 3545TIP3    H134830   1.327   7.976  17.774  0.8143  0.7316  0.1357
 3545TIP3    H234831   1.450   8.050  17.725  0.7124  0.3692 -0.6752
 3546TIP3   OH234832   4.102   6.290  16.371 -0.1645  0.6029  0.1442
 3546TIP3    H134833   4.098   6.262  16.280  1.3886  1.7564 -0.3303
 3546TIP3    H234834   4.010   6.304  16.396 -0.5625  1.4989 -1.6490
 3547TIP3   OH234835   8.325   9.120  17.659  0.1399 -0.4320  0.1934
 3547TIP3    H134836   8.256   9.080  17.607  1.5683 -1.5797 -0.8880
 3547TIP3    H234837   8.384   9.161  17.595  0.3424  0.7638  1.1021
 3548TIP3   OH234838   6.528   6.624  17.722 -0.3750  0.0669 -0.4102
 3548TIP3    H134839   6.528   6.684  17.796 -2.1066 -0.6997  0.2608
 3548TIP3    H234840   6.499   6.540  17.759  1.4511 -1.0918 -1.4210
 3549TIP3   OH234841   2.255   7.121  15.835  0.0685  0.0712  0.3769
 3549TIP3    H134842   2.247   7.170  15.753 -0.7846  0.4810  0.6927
 3549TIP3    H234843   2.165   7.097  15.857  0.3407 -0.4246  0.9660
 3550TIP3   OH234844   4.111   3.308  15.977 -0.2334 -0.0674 -0.1797
 3550TIP3    H134845   4.170   3.237  16.002 -2.2441 -2.0032 -0.5693
 3550TIP3    H234846   4.168   3.377  15.943  1.7743 -1.7878 -0.4873
 3551TIP3   OH234847   1.795   5.046  16.774 -0.3265  0.2011  0.0060
 3551TIP3    H134848   1.855   5.007  16.710 -1.9991  1.5699 -2.6339
 3551TIP3    H234849   1.713   4.998  16.762 -1.9435  3.1291 -2.1660
 3552TIP3   OH234850   3.991   2.669  17.241 -0.1942 -0.2914 -0.1296
 3552TIP3    H134851   3.932   2.689  17.168 -0.4673  2.3765  0.7095
 3552TIP3    H234852   3.940   2.612  17.299 -1.0550  0.0010 -0.5899
 3553TIP3   OH234853   4.569   4.265  17.688 -0.2132  0.0476  0.0976
 3553TIP3    H134854   4.502   4.328  17.717 -1.0024 -1.0872  0.8428
 3553TIP3    H234855   4.652   4.307  17.709 -0.7325  0.4644  1.4941
 3554TIP3   OH234856   2.372   7.472  16.179  0.1928 -0.3935  0.0046
 3554TIP3    H134857   2.401   7.412  16.247  2.7624 -0.4082 -0.9964
 3554TIP3    H234858   2.383   7.424  16.098 -0.1873  0.5609 -0.6359
 3555TIP3   OH234859   1.555   8.955  15.687  0.3116  0.4230  0.3893
 3555TIP3    H134860   1.507   8.990  15.613 -1.4776  0.1312  1.3578
 3555TIP3    H234861   1.516   8.998  15.764  2.6037  1.2837  1.1610
 3556TIP3   OH234862   0.925   3.984  17.302 -0.1959 -0.1982 -0.0865
 3556TIP3    H134863   0.963   4.064  17.267  1.0633 -0.6313  0.2501
 3556TIP3    H234864   0.965   3.975  17.389 -1.7426 -0.2054  0.6734
 3557TIP3   OH234865   5.114   2.622  16.248 -0.2201  0.3335  0.1362
 3557TIP3    H134866   5.189   2.682  16.255  0.3585 -0.4576  0.9486
 3557TIP3    H234867   5.057   2.663  16.182  1.6280  0.2056 -1.6630
 3558TIP3   OH234868   6.170   8.628  16.534 -0.0643  0.0708 -0.4109
 3558TIP3    H134869   6.164   8.714  16.574 -2.0767 -0.2720  0.1185
 3558TIP3    H234870   6.132   8.568  16.598  2.3007 -1.4345 -0.2738
 3559TIP3   OH234871   7.462   2.069  16.887 -0.1425  0.4482 -0.4085
 3559TIP3    H134872   7.385   2.100  16.935 -2.8349 -2.0235 -2.7549
 3559TIP3    H234873   7.467   2.126  16.810 -0.9609 -0.6220 -1.2871
 3560TIP3   OH234874   5.484   3.727  16.314  1.0972 -0.2193 -0.3485
 3560TIP3    H134875   5.394   3.754  16.333 -0.2213 -3.0243 -2.0375
 3560TIP3    H234876   5.519   3.798  16.260 -0.0740  0.9161  0.3248
 3561TIP3   OH234877   8.319   7.018  16.880  0.0570  0.4588 -0.1951
 3561TIP3    H134878   8.386   6.952  16.896  0.6320  1.2935  1.0106
 3561TIP3    H234879   8.242   6.969  16.850  0.7677 -0.6389 -0.2641
 3562TIP3   OH234880   6.001   4.416  15.853  0.0541 -0.1151  0.1837
 3562TIP3    H134881   5.954   4.491  15.888 -0.1122  0.0653 -0.4092
 3562TIP3    H234882   5.935   4.347  15.844  0.0533 -0.0959  0.0373
 3563TIP3   OH234883   5.417   1.116  17.495 -0.1606  0.1710  0.1961
 3563TIP3    H134884   5.448   1.097  17.584 -1.8991 -2.3296  0.3499
 3563TIP3    H234885   5.472   1.063  17.438 -0.2647  0.3353 -0.0592
 3564TIP3   OH234886   3.716   9.060  16.651 -0.0580  0.3992 -0.1822
 3564TIP3    H134887   3.638   9.048  16.597 -0.7836  0.9563  0.7007
 3564TIP3    H234888   3.770   8.983  16.633 -0.7494  0.0629 -0.9022
 3565TIP3   OH234889   2.156   8.004  17.482  0.4008 -0.3765 -0.0263
 3565TIP3    H134890   2.199   8.060  17.547  0.9878 -0.2479 -0.5111
 3565TIP3    H234891   2.218   7.933  17.467 -0.3829 -1.2077  0.6505
 3566TIP3   OH234892   3.543   6.535  16.795  0.0263 -0.0236 -0.5719
 3566TIP3    H134893   3.510   6.452  16.761 -1.6580  0.2042  0.3546
 3566TIP3    H234894   3.558   6.518  16.888  2.4322 -0.0399 -0.9018
 3567TIP3   OH234895   6.551   0.878  17.111  0.5227  0.1744  0.6785
 3567TIP3    H134896   6.524   0.968  17.093  1.2338  0.7106  2.0776
 3567TIP3    H234897   6.469   0.830  17.124  0.1475  0.7698  0.5477
 3568TIP3   OH234898   8.748   2.378  16.709  0.5003  0.6931 -0.9657
 3568TIP3    H134899   8.709   2.377  16.621 -2.1655  0.0339  0.1196
 3568TIP3    H234900   8.681   2.420  16.764  0.9860 -1.1921  1.1945
 3569TIP3   OH234901   2.988   8.157  16.553 -0.1266 -0.5789  0.0933
 3569TIP3    H134902   3.025   8.211  16.483  1.3400 -0.5470  0.8569
 3569TIP3    H234903   3.025   8.070  16.538  1.4556 -0.2314  1.6807
 3570TIP3   OH234904   3.034   7.818  17.867  0.2768  0.1627  0.8145
 3570TIP3    H134905   2.943   7.829  17.840  0.5694 -1.1722 -0.8930
 3570TIP3    H234906   3.032   7.744  17.928  0.2990 -0.4166  0.1280
 3571TIP3   OH234907   2.377   4.488  16.707 -0.1415  0.0901 -0.6511
 3571TIP3    H134908   2.400   4.502  16.799 -0.3861 -0.2477 -0.5375
 3571TIP3    H234909   2.360   4.394  16.701  1.1497 -0.1254 -1.3232
 3572TIP3   OH234910   5.596   1.534  17.652 -0.0606  0.3605 -0.3621
 3572TIP3    H134911   5.690   1.547  17.640  0.1242  0.1341  0.6849
 3572TIP3    H234912   5.560   1.622  17.651  0.1089  0.4242 -1.1616
 3573TIP3   OH234913   0.866   7.257  16.767  0.4053  0.1433 -0.1490
 3573TIP3    H134914   0.838   7.199  16.838 -0.4897  3.7840  2.8050
 3573TIP3    H234915   0.961   7.261  16.774  0.5175 -1.1288 -0.6417
 3574TIP3   OH234916   4.907   7.049  17.330 -0.1088 -0.4346 -0.0155
 3574TIP3    H134917   4.918   6.954  17.321 -0.8226 -0.5349  0.1583
 3574TIP3    H234918   4.942   7.084  17.248 -1.3574 -0.9699 -0.7982
 3575TIP3   OH234919   2.186   8.746  17.766 -0.0044 -0.3617  0.3489
 3575TIP3    H134920   2.215   8.682  17.701  0.7045 -0.7683  1.0577
 3575TIP3    H234921   2.222   8.715  17.849  0.8426  1.2453  0.6306
 3576TIP3   OH234922   7.888   6.195  16.479 -0.2093 -0.0838 -0.1038
 3576TIP3    H134923   7.965   6.236  16.518 -0.9528  1.2944 -0.0155
 3576TIP3    H234924   7.861   6.255  16.410  0.1931 -1.7424 -1.7932
 3577TIP3   OH234925   7.787   1.739  17.444  0.0331  0.1303 -0.2378
 3577TIP3    H134926   7.864   1.795  17.449  0.2315 -0.2487  1.0610
 3577TIP3    H234927   7.814   1.655  17.480 -0.8845 -0.1247 -0.1049
 3578TIP3   OH234928   0.204   3.033  17.571  0.2761  0.2757  0.1287
 3578TIP3    H134929   0.112   3.017  17.592  0.4842 -0.3837  0.5514
 3578TIP3    H234930   0.201   3.098  17.501 -0.6106 -1.8145 -1.8963
 3579TIP3   OH234931   7.037   7.679  16.679  0.1493  0.5260 -0.2580
 3579TIP3    H134932   6.972   7.723  16.624 -0.9052  0.9260  1.2456
 3579TIP3    H234933   6.995   7.671  16.764  1.5716 -0.4669  0.3926
 3580TIP3   OH234934   4.035   3.036  17.439 -0.0322 -0.0387  0.1846
 3580TIP3    H134935   4.066   2.952  17.473 -1.2592  0.2925  2.2578
 3580TIP3    H234936   4.107   3.097  17.456 -0.3427 -0.0362  1.6058
 3581TIP3   OH234937   2.091   6.843  16.805 -0.7859 -0.0980  0.3313
 3581TIP3    H134938   2.010   6.795  16.826  0.5908 -1.8653  2.0823
 3581TIP3    H234939   2.132   6.858  16.890  1.0746  0.0754 -0.5470
 3582TIP3   OH234940   1.226   1.265  16.841  0.3119  0.6393  0.1149
 3582TIP3    H134941   1.210   1.246  16.748  0.2195  3.0920 -0.4495
 3582TIP3    H234942   1.140   1.255  16.882  0.1631  0.4503 -0.2334
 3583TIP3   OH234943   1.596   5.382  17.922  0.6848  0.4518  0.0567
 3583TIP3    H134944   1.637   5.363  18.007  0.9514 -0.6817 -0.2959
 3583TIP3    H234945   1.558   5.469  17.932 -0.2555 -0.1131  1.7151
 3584TIP3   OH234946   6.266   7.929  17.799  0.0783  0.7641 -0.0914
 3584TIP3    H134947   6.253   7.923  17.705  0.6178  1.0870 -0.1911
 3584TIP3    H234948   6.361   7.922  17.811 -0.1224 -2.8710  0.6961
 3585TIP3   OH234949   0.578   2.393  18.021 -0.7610 -0.7028 -0.3444
 3585TIP3    H134950   0.626   2.334  18.079 -0.9832  0.2972  0.8803
 3585TIP3    H234951   0.586   2.352  17.935  0.7536 -1.4938  0.1291
 3586TIP3   OH234952   3.047   5.517  16.441 -0.4697  0.0472 -0.3460
 3586TIP3    H134953   2.998   5.577  16.385  0.6835  0.7955 -0.5734
 3586TIP3    H234954   3.135   5.553  16.444 -0.1859 -0.6917  0.9132
 3587TIP3   OH234955   4.206   2.314  16.623  0.1064  0.4568  0.4032
 3587TIP3    H134956   4.281   2.299  16.566 -0.0818  2.4852 -0.4398
 3587TIP3    H234957   4.166   2.227  16.634  1.9131 -0.4591 -0.0257
 3588TIP3   OH234958   2.635   7.456  16.069  0.7398 -0.1826  0.0994
 3588TIP3    H134959   2.594   7.393  16.127 -0.2345 -0.3769 -0.7683
 3588TIP3    H234960   2.562   7.501  16.027  1.4167  1.3421  0.4931
 3589TIP3   OH234961   0.373   7.276  16.353 -0.2778 -0.0952  0.4048
 3589TIP3    H134962   0.373   7.215  16.279  0.6296  1.4622 -0.9400
 3589TIP3    H234963   0.447   7.247  16.408  0.2396 -0.1294 -0.2943
 3590TIP3   OH234964   2.202   0.221  16.139 -0.2104  0.9292  0.0087
 3590TIP3    H134965   2.177   0.142  16.092  0.9028  1.0311 -0.7879
 3590TIP3    H234966   2.253   0.189  16.214 -1.7231  0.7864  1.0259
 3591TIP3   OH234967   6.383   3.757  17.614  0.4715 -0.4693  0.0107
 3591TIP3    H134968   6.300   3.713  17.629  1.1162 -2.4482 -1.8351
 3591TIP3    H234969   6.359   3.838  17.568 -0.3676 -2.1465 -2.7156
 3592TIP3   OH234970   0.178   0.778  16.678 -0.7914 -0.2735 -0.2463
 3592TIP3    H134971   0.254   0.835  16.671 -1.4756  0.5870 -0.8278
 3592TIP3    H234972   0.181   0.746  16.768  0.3840 -0.4516 -0.3250
 3593TIP3   OH234973   7.179   6.714  17.093 -0.5326 -0.4714  0.3090
 3593TIP3    H134974   7.115   6.717  17.163 -0.3787 -1.3860  0.5095
 3593TIP3    H234975   7.135   6.666  17.022 -0.7742  0.6473 -0.3224
 3594TIP3   OH234976   4.574   0.552  17.077 -0.1280  0.2719 -0.1060
 3594TIP3    H134977   4.583   0.634  17.027 -0.4195 -0.1095 -0.7866
 3594TIP3    H234978   4.480   0.541  17.088 -0.2304 -1.1497 -2.0068
 3595TIP3   OH234979   5.359   0.932  17.109  0.1106 -0.3444 -0.0640
 3595TIP3    H134980   5.406   0.929  17.026 -0.0476  0.5426 -0.1893
 3595TIP3    H234981   5.427   0.922  17.175  0.7017  2.3091 -0.1928
 3596TIP3   OH234982   0.541   5.666  17.313  0.0426 -0.1134  0.2808
 3596TIP3    H134983   0.632   5.667  17.343  0.0349  0.2644  0.2916
 3596TIP3    H234984   0.536   5.589  17.256  0.2132 -0.4811  0.7558
 3597TIP3   OH234985   4.732   3.474  16.530  0.4449 -0.5478 -0.6491
 3597TIP3    H134986   4.798   3.475  16.461  0.3137 -0.4770 -0.7743
 3597TIP3    H234987   4.673   3.546  16.507  1.2413  0.4582  0.3566
 3598TIP3   OH234988   2.919   3.557  17.008  0.0562  0.4706 -0.0748
 3598TIP3    H134989   2.869   3.566  17.089  1.3831  1.6435  0.6569
 3598TIP3    H234990   3.010   3.577  17.033  0.3292  2.1486 -2.0539
 3599TIP3   OH234991   2.094   2.132  16.866  0.3011 -0.3110 -0.3253
 3599TIP3    H134992   2.055   2.201  16.813 -1.0763 -0.0032  1.0102
 3599TIP3    H234993   2.103   2.171  16.953 -0.4598 -1.7747  0.4548
 3600TIP3   OH234994   0.194   5.892  16.428 -0.5702 -0.4306  0.3549
 3600TIP3    H134995   0.159   5.899  16.517  1.1093 -2.9298  1.3203
 3600TIP3    H234996   0.124   5.850  16.378 -1.8079  1.6445  0.2204
 3601TIP3   OH234997   9.175   5.627  17.140 -0.2930  0.2471  0.2620
 3601TIP3    H134998   9.248   5.687  17.151  0.0466 -0.4253  2.0156
 3601TIP3    H234999   9.209   5.558  17.082  0.3226  0.1824  0.6887
 3602TIP3   OH235000   6.319   4.885  16.568  0.3190  0.0419  0.3485
 3602TIP3    H135001   6.294   4.953  16.631 -0.3111 -0.2388  0.4142
 3602TIP3    H235002   6.318   4.930  16.483 -2.3150 -0.3329  0.0756
 3603TIP3   OH235003   5.788   4.984  17.004  0.0470  0.6343 -0.2082
 3603TIP3    H135004   5.730   5.059  16.994  1.2727  1.6531  0.0875
 3603TIP3    H235005   5.832   4.976  16.919 -1.0055 -0.5872 -0.6765
 3604TIP3   OH235006   5.654   5.679  15.748 -0.0756 -0.0014 -0.2294
 3604TIP3    H135007   5.615   5.703  15.832 -0.2426 -0.7533 -0.0852
 3604TIP3    H235008   5.604   5.603  15.720  0.4931 -0.2293 -0.6362
 3605TIP3   OH235009   8.204   8.351  16.635  0.2174 -0.2706  0.0926
 3605TIP3    H135010   8.293   8.379  16.657 -0.0853  0.9467 -0.2010
 3605TIP3    H235011   8.181   8.290  16.705  2.1484 -2.5390 -1.0788
 3606TIP3   OH235012   0.067   4.952  17.045 -0.3185 -0.2503 -0.3394
 3606TIP3    H135013  -0.021   4.923  17.020 -1.4660  1.8612  0.8781
 3606TIP3    H235014   0.051   5.026  17.104  2.2694 -1.4965  2.1411
 3607TIP3   OH235015   5.333   0.468  17.948  0.0314 -0.2127 -0.3223
 3607TIP3    H135016   5.312   0.546  17.896 -0.5063 -0.2861 -0.2258
 3607TIP3    H235017   5.368   0.405  17.885  1.6576  0.5329 -0.2095
 3608TIP3   OH235018   2.449   6.644  18.093  0.0863 -0.4595  0.2906
 3608TIP3    H135019   2.467   6.667  18.185  1.2173 -0.5216  0.1035
 3608TIP3    H235020   2.535   6.647  18.051 -0.5245  0.2817 -0.9356
 3609TIP3   OH235021   5.035   7.933  17.422  0.0930 -0.1930  0.3092
 3609TIP3    H135022   4.960   7.917  17.365  0.7879  0.3348 -0.7792
 3609TIP3    H235023   5.034   8.027  17.438  0.8400 -0.1012 -0.1640
 3610TIP3   OH235024   4.659   5.340  17.831 -0.4800 -0.3293  0.2641
 3610TIP3    H135025   4.653   5.297  17.917 -0.4662 -0.7830  0.0401
 3610TIP3    H235026   4.689   5.428  17.851  1.0217 -0.8890  0.5979
 3611TIP3   OH235027   5.344   7.297  16.613 -0.0572 -0.0036 -0.3164
 3611TIP3    H135028   5.420   7.333  16.659 -0.3759  1.2409 -0.7185
 3611TIP3    H235029   5.270   7.321  16.670 -0.1049 -1.9554  0.5167
 3612TIP3   OH235030   9.206   1.547  17.309  0.1633 -0.0723  0.0687
 3612TIP3    H135031   9.276   1.604  17.277 -0.7508  0.9514 -0.1834
 3612TIP3    H235032   9.129   1.572  17.258 -0.6041 -0.5510  0.9457
 3613TIP3   OH235033   9.163   8.862  16.108 -0.2982 -0.4274  0.3834
 3613TIP3    H135034   9.212   8.877  16.027 -0.4477 -0.2549  0.3251
 3613TIP3    H235035   9.071   8.855  16.079 -0.6953  2.1293  0.8031
 3614TIP3   OH235036   6.295   4.688  17.489 -0.0970 -0.0231  0.1496
 3614TIP3    H135037   6.316   4.595  17.481 -1.1079 -0.4634  1.9280
 3614TIP3    H235038   6.264   4.714  17.402 -1.8086 -1.9213  0.1189
 3615TIP3   OH235039   7.687   4.253  17.564  0.4129  0.3098 -0.5445
 3615TIP3    H135040   7.594   4.269  17.581  0.1673 -1.9325  0.5774
 3615TIP3    H235041   7.692   4.236  17.470  0.0407  2.2736 -0.9697
 3616TIP3   OH235042   8.784   6.653  16.243 -0.1932 -0.2174 -0.1336
 3616TIP3    H135043   8.849   6.718  16.214 -0.5237 -1.6493 -4.8303
 3616TIP3    H235044   8.706   6.705  16.261  0.0363  0.9495 -2.1262
 3617TIP3   OH235045   8.827   7.847  16.047 -0.5980 -0.5742  0.7067
 3617TIP3    H135046   8.823   7.761  16.005  0.1532 -0.4874  0.4563
 3617TIP3    H235047   8.852   7.907  15.978  1.0078 -0.4891  1.3280
 3618TIP3   OH235048   1.573   4.695  17.637  0.3365 -0.2930  0.4153
 3618TIP3    H135049   1.629   4.672  17.564 -1.7648  0.4984 -1.5514
 3618TIP3    H235050   1.503   4.629  17.636 -1.2608  1.3221 -0.1358
 3619TIP3   OH235051   0.690   1.522  16.760  0.5448  0.0035  0.1281
 3619TIP3    H135052   0.667   1.602  16.807 -0.3565  0.5742 -1.2569
 3619TIP3    H235053   0.748   1.551  16.690  0.3226 -0.5706 -0.3007
 3620TIP3   OH235054   6.265   6.939  17.663  0.3957  0.4091  0.5328
 3620TIP3    H135055   6.209   6.863  17.650  0.2384  0.1906  2.2625
 3620TIP3    H235056   6.204   7.012  17.673  0.4047  0.2595  1.8604
 3621TIP3   OH235057   2.150   1.402  17.472  0.2914  0.3532 -0.1947
 3621TIP3    H135058   2.058   1.392  17.498 -0.1073 -2.0523 -2.1606
 3621TIP3    H235059   2.199   1.388  17.553 -1.0191  3.6124  1.3151
 3622TIP3   OH235060   2.648   4.575  17.068  0.0159  0.8851  0.1339
 3622TIP3    H135061   2.735   4.573  17.028  0.0270  0.3647  0.1832
 3622TIP3    H235062   2.651   4.651  17.127  1.6194 -1.0707  2.7728
 3623TIP3   OH235063   3.628   6.074  17.241 -0.4934 -0.5712 -0.2265
 3623TIP3    H135064   3.581   6.144  17.286  2.3200  2.1533 -1.1620
 3623TIP3    H235065   3.641   6.007  17.308 -2.0111  0.4515  1.1534
 3624TIP3   OH235066   3.667   1.833  16.279  0.3667  0.6541  0.0539
 3624TIP3    H135067   3.717   1.880  16.346  1.9659 -0.5261 -0.2487
 3624TIP3    H235068   3.607   1.778  16.329  0.9835  0.3807  0.5161
 3625TIP3   OH235069   6.710   0.504  17.580 -0.0039 -0.0206  0.0181
 3625TIP3    H135070   6.739   0.426  17.626 -1.0667 -0.3098  0.2208
 3625TIP3    H235071   6.788   0.560  17.576  0.0915  0.0670  2.2883
 3626TIP3   OH235072   1.924   8.846  17.696  0.0289 -0.0281 -0.0653
 3626TIP3    H135073   2.008   8.805  17.715 -0.7791 -1.0173  1.5649
 3626TIP3    H235074   1.892   8.800  17.619  1.4784  1.1860 -1.4770
 3627TIP3   OH235075   3.619   0.477  17.381 -0.2807  0.4665 -1.1568
 3627TIP3    H135076   3.659   0.472  17.294  2.7186 -1.3741  0.1733
 3627TIP3    H235077   3.663   0.550  17.424  0.5939 -0.5641 -0.2171
 3628TIP3   OH235078   5.610   1.331  17.894 -0.4010  0.2245  0.1599
 3628TIP3    H135079   5.693   1.287  17.876 -1.0422 -0.6031 -0.8734
 3628TIP3    H235080   5.588   1.376  17.812 -1.8590 -1.0639 -0.1950
 3629TIP3   OH235081   6.656   2.674  17.698 -0.1887 -0.4096 -0.6392
 3629TIP3    H135082   6.584   2.735  17.713  0.9338  1.1304 -1.3195
 3629TIP3    H235083   6.686   2.693  17.609  2.4541  0.5335  0.3481
 3630TIP3   OH235084   2.894   2.670  16.631  0.3164 -0.5455  0.4779
 3630TIP3    H135085   2.909   2.711  16.716  0.0194  0.6595 -0.0329
 3630TIP3    H235086   2.939   2.726  16.568 -2.1959  0.4873 -0.5343
 3631TIP3   OH235087   8.709   2.444  17.934  0.0397  0.4587  0.2602
 3631TIP3    H135088   8.652   2.383  17.886 -0.3072  0.9531  0.0319
 3631TIP3    H235089   8.667   2.454  18.019  1.1480 -1.1409  1.0457
 3632TIP3   OH235090   6.342   8.872  17.724 -0.1318  0.5965 -0.5207
 3632TIP3    H135091   6.376   8.824  17.801  0.9344  2.0450 -0.0521
 3632TIP3    H235092   6.381   8.827  17.649  0.2814  0.2731 -0.1209
 3633TIP3   OH235093   3.466   8.659  17.716 -0.8641 -0.0521  0.2126
 3633TIP3    H135094   3.455   8.724  17.647  1.2232 -1.6724 -1.8137
 3633TIP3    H235095   3.450   8.575  17.673  0.3052 -1.1125  1.7125
 3634TIP3   OH235096   3.018   0.941  17.344  0.1984  0.2549  0.2362
 3634TIP3    H135097   3.003   0.846  17.342 -1.8740  0.5483  0.1582
 3634TIP3    H235098   3.026   0.966  17.252  1.5392  0.0774  0.2814
 3635TIP3   OH235099   3.570   4.466  16.495 -0.1474  0.7394 -0.1219
 3635TIP3    H135100   3.492   4.411  16.507 -1.0149  1.9968  0.2272
 3635TIP3    H235101   3.568   4.491  16.403  0.8399 -0.6402 -0.5439
 3636TIP3   OH235102   2.219   7.085  16.399  0.3351 -0.0897  0.3687
 3636TIP3    H135103   2.277   7.030  16.346 -0.2389 -1.7212  1.3383
 3636TIP3    H235104   2.184   7.149  16.337  1.5985 -0.3492 -0.6600
 3637TIP3   OH235105   1.581   8.527  17.785  0.2701  0.1941 -0.8229
 3637TIP3    H135106   1.666   8.511  17.826  1.1416  2.4044 -1.5961
 3637TIP3    H235107   1.545   8.601  17.834 -1.7656 -1.3943  0.2026
 3638TIP3   OH235108   4.243   0.066  17.247  0.2389  0.4612  0.4508
 3638TIP3    H135109   4.249   0.039  17.338 -2.6959  1.7876  1.1446
 3638TIP3    H235110   4.150   0.061  17.226  0.7117  1.0730 -2.1996
 3639TIP3   OH235111   8.289   7.145  17.289 -0.4653  0.2830 -0.2603
 3639TIP3    H135112   8.308   7.150  17.196 -0.4613  1.2934 -0.2139
 3639TIP3    H235113   8.194   7.137  17.294 -0.6026  1.6005 -0.3350
 3640TIP3   OH235114   1.626   5.985  15.979  0.0293  0.0284 -0.3651
 3640TIP3    H135115   1.648   6.054  16.041  2.1959 -0.9628  0.0746
 3640TIP3    H235116   1.551   5.941  16.018  1.1468 -0.3782  1.4666
 3641TIP3   OH235117   3.350   3.504  16.924  0.0093 -0.2859  0.2760
 3641TIP3    H135118   3.332   3.410  16.924  0.7563 -0.4547 -1.2589
 3641TIP3    H235119   3.263   3.545  16.926 -0.3566 -1.0166 -0.3864
 3642TIP3   OH235120   6.960   0.524  17.871 -0.9575 -0.3097 -0.0208
 3642TIP3    H135121   6.995   0.604  17.832 -0.9012 -0.3396 -0.0331
 3642TIP3    H235122   7.011   0.513  17.952 -0.0929 -1.0210 -0.6444
 3643TIP3   OH235123   3.016   7.441  16.777 -0.2351 -0.5743 -0.7179
 3643TIP3    H135124   3.049   7.382  16.845 -0.7660 -0.5854 -0.4634
 3643TIP3    H235125   2.977   7.514  16.826  2.0280  0.9501 -1.0120
 3644TIP3   OH235126   4.842   3.863  16.133  0.2829 -0.3729 -0.1401
 3644TIP3    H135127   4.862   3.771  16.114  1.5622  0.1872 -1.7199
 3644TIP3    H235128   4.922   3.896  16.174 -0.6754 -0.2794  1.7735
 3645TIP3   OH235129   3.532   7.397  17.255  0.6276  0.9760  0.0223
 3645TIP3    H135130   3.548   7.490  17.243  1.0231  0.9201  0.1247
 3645TIP3    H235131   3.567   7.356  17.176  0.9831  0.8549  0.2421
 3646TIP3   OH235132   1.557   8.163  17.816 -0.0430 -0.0241  0.0947
 3646TIP3    H135133   1.488   8.167  17.882  0.8591  0.2297  1.0375
 3646TIP3    H235134   1.568   8.254  17.788 -1.1675 -0.2537 -1.2316
 3647TIP3   OH235135   0.825   6.156  17.667 -0.2424  0.1599 -0.2785
 3647TIP3    H135136   0.888   6.173  17.738  0.0623  0.1574 -0.5426
 3647TIP3    H235137   0.844   6.225  17.603  0.1607 -0.4301 -0.8016
 3648TIP3   OH235138   2.096   7.007  17.774  0.2943  0.0137 -0.7379
 3648TIP3    H135139   2.015   7.051  17.752  0.1603  0.6738  0.9136
 3648TIP3    H235140   2.073   6.914  17.776 -0.2527  0.1422 -0.9533
 3649TIP3   OH235141   5.751   7.742  17.036  0.9622  0.0469  1.0508
 3649TIP3    H135142   5.706   7.658  17.051 -1.9282  1.3145  0.2794
 3649TIP3    H235143   5.778   7.738  16.944  0.9255 -0.0986  1.0466
 3650TIP3   OH235144   4.542   6.055  15.553  0.0440  0.1691 -0.3880
 3650TIP3    H135145   4.459   6.076  15.511  0.0333  0.1532 -0.3745
 3650TIP3    H235146   4.521   5.984  15.614 -0.0721  0.6333  0.1247
 3651TIP3   OH235147   8.590   5.479  17.805 -0.6060  0.4132 -0.5161
 3651TIP3    H135148   8.538   5.403  17.832 -1.4765  0.6243 -1.5069
 3651TIP3    H235149   8.661   5.442  17.752 -1.3146  0.2982 -1.4184
 3652TIP3   OH235150   7.079   6.111  16.217  0.5042  0.2515 -0.0990
 3652TIP3    H135151   7.074   6.182  16.153 -0.4063  0.4173  0.1514
 3652TIP3    H235152   7.007   6.052  16.194  0.0910  0.3721  0.8391
 3653TIP3   OH235153   9.059   3.940  17.522 -0.0369  0.1816 -0.1166
 3653TIP3    H135154   8.973   3.899  17.512 -0.4571  0.4634  1.9759
 3653TIP3    H235155   9.062   4.006  17.452 -1.0379 -0.5816 -0.9134
 3654TIP3   OH235156   3.220   1.891  17.368  0.4054  0.1971 -0.1064
 3654TIP3    H135157   3.316   1.889  17.373  0.3676  0.4561  1.2611
 3654TIP3    H235158   3.199   1.853  17.283  1.7120 -0.2001 -0.2697
 3655TIP3   OH235159   4.023   5.930  16.598 -0.0659 -0.2899  0.4154
 3655TIP3    H135160   4.059   5.912  16.511 -4.1838 -2.6396 -1.0556
 3655TIP3    H235161   4.034   5.848  16.646  0.6921  0.4769  1.6211
 3656TIP3   OH235162   8.599   8.434  17.105  0.5086  0.0002 -0.1683
 3656TIP3    H135163   8.543   8.390  17.042  0.0530 -0.8751  0.8195
 3656TIP3    H235164   8.544   8.444  17.183  1.4588 -0.1015  0.5277
 3657TIP3   OH235165   2.117   2.112  15.834 -0.5031 -0.1554  0.5498
 3657TIP3    H135166   2.150   2.093  15.922  0.0919 -0.7911  0.2072
 3657TIP3    H235167   2.022   2.101  15.841 -0.3556 -1.4572  0.8273
 3658TIP3   OH235168   4.849   8.714  16.299 -0.0117 -0.2267  0.0026
 3658TIP3    H135169   4.911   8.643  16.309 -0.3223 -0.6169 -0.7507
 3658TIP3    H235170   4.831   8.718  16.205 -0.0237  0.8216  0.0309
 3659TIP3   OH235171   5.379   0.648  17.720  0.9514  0.2494 -0.1818
 3659TIP3    H135172   5.422   0.577  17.671 -1.7246 -1.1662 -0.6674
 3659TIP3    H235173   5.451   0.695  17.762  2.9885 -1.5280 -1.4552
 3660TIP3   OH235174   2.741   6.440  16.456  0.3127  0.7544 -0.2301
 3660TIP3    H135175   2.722   6.467  16.546 -0.1466 -1.2933  0.3599
 3660TIP3    H235176   2.836   6.429  16.454  0.2020 -0.6022  0.4980
 3661TIP3   OH235177   7.171   6.484  16.169  0.5029  0.3855 -0.7913
 3661TIP3    H135178   7.219   6.541  16.109  0.1049 -0.4381 -1.9435
 3661TIP3    H235179   7.237   6.451  16.229  1.1908  0.1583 -1.6442
 3662TIP3   OH235180   4.758   6.539  17.409  0.0917 -0.8823  0.0895
 3662TIP3    H135181   4.811   6.489  17.471  2.6654  2.0499  0.5187
 3662TIP3    H235182   4.703   6.595  17.463  0.0740 -0.5038 -0.3134
 3663TIP3   OH235183   4.670   7.543  17.291 -0.5645 -0.6338  0.1216
 3663TIP3    H135184   4.596   7.582  17.338  1.2426  0.6309  2.0904
 3663TIP3    H235185   4.679   7.456  17.328 -1.2890 -0.9680 -0.4465
 3664TIP3   OH235186   4.071   7.011  17.164  0.0136 -0.0113 -0.4027
 3664TIP3    H135187   4.027   6.933  17.196  0.3111 -0.2634 -0.5948
 3664TIP3    H235188   4.103   6.987  17.077  1.7757 -0.3303  0.2864
 3665TIP3   OH235189   9.130   8.978  15.578  0.0329  0.1477  0.6832
 3665TIP3    H135190   9.157   9.009  15.665 -0.1599  0.2552  0.7043
 3665TIP3    H235191   9.052   9.030  15.557 -0.0767 -0.0668  0.5598
 3666TIP3   OH235192   9.142   3.510  16.679 -0.0016  0.4498 -0.0309
 3666TIP3    H135193   9.067   3.521  16.621 -0.0518 -0.0663 -0.0637
 3666TIP3    H235194   9.151   3.595  16.722 -1.8042 -0.0212  1.4086
 3667TIP3   OH235195   1.995   7.632  15.829 -0.0983 -0.2623 -0.1344
 3667TIP3    H135196   1.938   7.556  15.838 -1.5385  0.7015 -0.7340
 3667TIP3    H235197   1.952   7.700  15.881  2.6291 -0.5450  2.8306
 3668TIP3   OH235198   2.658   5.575  16.662  0.3668  0.6687 -0.0098
 3668TIP3    H135199   2.723   5.516  16.700 -0.0579 -0.3399 -0.8018
 3668TIP3    H235200   2.701   5.615  16.587  0.1035  0.0567 -0.4910
 3669TIP3   OH235201   3.630   5.596  17.046  0.0686 -0.2588 -0.1069
 3669TIP3    H135202   3.678   5.539  16.985  2.6090  1.2527  0.3507
 3669TIP3    H235203   3.632   5.682  17.005 -2.6757 -0.1711 -0.2171
 3670TIP3   OH235204   7.485   7.027  17.031 -0.0548 -0.1877 -0.2261
 3670TIP3    H135205   7.546   7.089  16.992  1.0643 -1.4517 -0.5524
 3670TIP3    H235206   7.540   6.954  17.059 -1.3562 -1.1015  0.0071
 3671TIP3   OH235207   3.940   8.031  15.972  0.2226 -0.5355  0.1474
 3671TIP3    H135208   3.878   8.029  16.045 -0.0164 -0.0305 -0.0381
 3671TIP3    H235209   3.918   7.954  15.920 -0.3749 -0.2629 -0.0144
 3672TIP3   OH235210   5.400   7.074  16.312  0.0137  0.9392  0.3494
 3672TIP3    H135211   5.328   7.097  16.370 -0.8461  0.1841 -0.3898
 3672TIP3    H235212   5.365   7.003  16.257  1.7682 -0.4698  0.9368
 3673TIP3   OH235213   3.366   1.888  16.286  0.3768 -0.2469 -0.1182
 3673TIP3    H135214   3.398   1.978  16.293  0.6369 -0.3503  0.0129
 3673TIP3    H235215   3.440   1.833  16.313  0.9648 -0.6176 -2.2871
 3674TIP3   OH235216   0.813   0.318  15.734  0.2603 -0.5607 -0.5957
 3674TIP3    H135217   0.887   0.265  15.762  0.4516  0.4260  0.8652
 3674TIP3    H235218   0.829   0.332  15.640  1.5166 -0.9838 -0.4742
 3675TIP3   OH235219   4.071   0.436  17.860  0.2092  0.0533 -0.3527
 3675TIP3    H135220   4.151   0.475  17.895  0.5512 -1.2646  0.3797
 3675TIP3    H235221   4.099   0.392  17.780  0.1869 -0.2313 -0.2058
 3676TIP3   OH235222   8.449   3.208  17.880 -0.4556  0.2570  0.3904
 3676TIP3    H135223   8.525   3.264  17.896  1.4149 -0.8610 -3.5353
 3676TIP3    H235224   8.380   3.268  17.854  0.8387  1.0090 -1.4924
 3677TIP3   OH235225   2.878   9.160  17.740 -0.1173  0.0372 -0.3370
 3677TIP3    H135226   2.936   9.231  17.770 -2.1706  1.2970  0.8699
 3677TIP3    H235227   2.879   9.097  17.812 -0.1455 -0.0207 -0.3874
 3678TIP3   OH235228   1.622   1.333  17.579  0.2296  0.0454 -0.4130
 3678TIP3    H135229   1.573   1.415  17.587  1.1604  0.5016  1.0183
 3678TIP3    H235230   1.557   1.269  17.548 -0.5860  1.2379 -1.2241
 3679TIP3   OH235231   0.487   8.340  16.187  0.4438  0.2891 -0.1696
 3679TIP3    H135232   0.504   8.413  16.127  0.5100 -0.2888 -0.8656
 3679TIP3    H235233   0.568   8.332  16.237  0.7308  0.1917 -0.6380
 3680TIP3   OH235234   5.050   1.866  17.187 -0.0622 -0.2551  0.4958
 3680TIP3    H135235   4.975   1.883  17.130  0.4508 -0.8967 -0.3799
 3680TIP3    H235236   5.123   1.910  17.145  0.6392 -1.9804 -0.1751
 3681TIP3   OH235237   8.011   1.884  17.390 -0.3927  0.5240  0.3100
 3681TIP3    H135238   8.080   1.823  17.364 -1.2712 -0.7977  1.0071
 3681TIP3    H235239   8.053   1.940  17.456  0.3438  0.5252 -0.1435
 3682TIP3   OH235240   2.914   2.407  16.713 -0.1464 -0.3762  0.0388
 3682TIP3    H135241   2.907   2.490  16.666  0.6882  0.2552  0.9866
 3682TIP3    H235242   2.927   2.341  16.645  0.7440  0.4824 -0.6358
 3683TIP3   OH235243   6.928   4.626  16.673 -0.1171  0.6251  0.4540
 3683TIP3    H135244   6.972   4.703  16.638 -0.0852 -0.0488 -1.0436
 3683TIP3    H235245   6.875   4.593  16.601  0.6979 -1.3765  0.6989
 3684TIP3   OH235246   2.894   7.235  16.267 -0.5343 -0.3694  0.0715
 3684TIP3    H135247   2.894   7.159  16.208 -1.2172  0.0284 -0.4575
 3684TIP3    H235248   2.896   7.310  16.208  2.2347  0.0616  0.5934
 3685TIP3   OH235249   5.315   2.957  17.002  0.1967 -0.5103 -0.2207
 3685TIP3    H135250   5.307   2.994  16.914 -0.0006 -1.1505 -0.4826
 3685TIP3    H235251   5.242   2.895  17.009  0.4214 -0.7297  0.2579
 3686TIP3   OH235252   4.335   0.702  16.728 -0.0356 -0.0311 -0.2933
 3686TIP3    H135253   4.295   0.616  16.736  0.7475 -0.4256 -0.5619
 3686TIP3    H235254   4.266   0.757  16.691 -0.7929 -0.3408  0.6024
 3687TIP3   OH235255   3.652   6.685  16.596 -0.1060  0.2106 -0.5241
 3687TIP3    H135256   3.697   6.605  16.566  0.6302  0.6608 -0.6494
 3687TIP3    H235257   3.614   6.661  16.680 -1.3040 -0.7672 -1.3048
 3688TIP3   OH235258   2.868   0.820  16.480  0.4904  0.1832 -0.0210
 3688TIP3    H135259   2.777   0.847  16.464  0.4522 -0.8510 -1.8357
 3688TIP3    H235260   2.903   0.805  16.392  2.1915 -0.1937  0.7007
 3689TIP3   OH235261   9.004   8.683  16.479 -0.2072 -0.0333 -0.1787
 3689TIP3    H135262   8.942   8.613  16.499 -1.3609  0.3773 -2.0840
 3689TIP3    H235263   9.048   8.655  16.399 -1.9451  2.0719 -2.0151
 3690TIP3   OH235264   4.937   6.230  16.810 -0.2184 -0.1822 -0.1927
 3690TIP3    H135265   4.988   6.215  16.730 -0.7189 -0.2057 -0.5104
 3690TIP3    H235266   4.893   6.313  16.795  0.4982  0.3380  0.4925
 3691TIP3   OH235267   7.559   7.807  17.311  0.1466  0.8579  0.0026
 3691TIP3    H135268   7.507   7.884  17.291 -1.1832  0.6368  2.3080
 3691TIP3    H235269   7.576   7.813  17.405  1.7315 -0.6467 -0.1357
 3692TIP3   OH235270   7.200   2.459  17.792  0.2208 -0.2653 -0.4793
 3692TIP3    H135271   7.132   2.504  17.742  0.6302  1.5413  0.5087
 3692TIP3    H235272   7.161   2.373  17.813 -1.5530  0.5235 -0.3571
 3693TIP3   OH235273   4.142   3.698  15.726  0.3193  0.0058  0.0863
 3693TIP3    H135274   4.170   3.776  15.775  1.1065 -0.5640  0.5529
 3693TIP3    H235275   4.050   3.716  15.704  0.2074  0.6548  1.0081
 3694TIP3   OH235276   1.511   7.136  16.613 -0.6408 -0.2624 -0.1628
 3694TIP3    H135277   1.582   7.172  16.558 -0.1214 -0.5837  0.2863
 3694TIP3    H235278   1.431   7.167  16.571 -0.3057 -1.5796 -1.8886
 3695TIP3   OH235279   1.024   0.745  16.887 -0.3618 -0.1566  0.9587
 3695TIP3    H135280   0.949   0.793  16.924 -0.4375 -1.2669  2.3447
 3695TIP3    H235281   1.039   0.673  16.949  1.8148 -0.0063  0.6746
 3696TIP3   OH235282   4.821   3.881  17.766 -0.4108 -0.5203  0.0977
 3696TIP3    H135283   4.754   3.925  17.714 -0.2169 -0.2059  0.1164
 3696TIP3    H235284   4.836   3.939  17.841  0.3396 -0.2778 -0.2338
 3697TIP3   OH235285   3.026   4.033  16.156  0.2905 -0.2272 -0.4336
 3697TIP3    H135286   3.121   4.029  16.161  0.2260 -0.2812  1.5382
 3697TIP3    H235287   3.007   4.056  16.065  2.2039  0.4128 -0.7019
 3698TIP3   OH235288   3.693   4.290  17.319  0.0920  0.1588  0.2723
 3698TIP3    H135289   3.598   4.298  17.320  0.1554  0.9528  1.6229
 3698TIP3    H235290   3.724   4.357  17.380  1.4365 -1.1496  1.0863
 3699TIP3   OH235291   7.354   0.583  16.960 -0.4375  0.5686 -0.3518
 3699TIP3    H135292   7.319   0.630  16.884  0.3837  2.8031  0.5501
 3699TIP3    H235293   7.364   0.651  17.027  0.9412 -0.9066  1.0254
 3700TIP3   OH235294   5.100   7.400  16.413 -0.3174 -0.0706 -0.0484
 3700TIP3    H135295   5.029   7.346  16.378  0.4888 -0.1905 -1.5561
 3700TIP3    H235296   5.154   7.338  16.463 -0.6224 -0.2012  0.1259
 3701TIP3   OH235297   3.145   5.899  16.272 -0.5455  0.0616  0.1773
 3701TIP3    H135298   3.081   5.829  16.272 -0.4923  0.0091  0.6347
 3701TIP3    H235299   3.131   5.945  16.355 -0.0957  0.1408  0.2128
 3702TIP3   OH235300   8.933   2.823  16.469 -0.0957 -0.1176 -0.1105
 3702TIP3    H135301   8.880   2.746  16.447  0.9506 -1.3727  1.5322
 3702TIP3    H235302   8.888   2.863  16.543 -0.3454  0.5886 -0.6246
 3703TIP3   OH235303   2.016   8.287  15.977  0.4363 -0.5623 -0.4675
 3703TIP3    H135304   2.033   8.219  15.912 -0.4552 -0.0038 -1.3188
 3703TIP3    H235305   2.079   8.270  16.047  0.4725 -2.0372 -0.8260
 3704TIP3   OH235306   5.806   7.592  17.955  0.0715 -0.5921 -0.0006
 3704TIP3    H135307   5.864   7.608  18.030 -1.2994  0.4256  0.8835
 3704TIP3    H235308   5.843   7.644  17.884 -0.5748  1.2765  0.9844
 3705TIP3   OH235309   1.135   6.180  16.732  0.2062  0.0376 -0.4021
 3705TIP3    H135310   1.080   6.256  16.749  1.1493  0.9521 -1.2762
 3705TIP3    H235311   1.125   6.165  16.638  1.5241  0.2897 -0.5914
 3706TIP3   OH235312   6.396   8.730  17.504 -0.2202 -0.5740  0.0047
 3706TIP3    H135313   6.475   8.676  17.501 -0.2169 -0.5495 -0.5975
 3706TIP3    H235314   6.412   8.798  17.439 -0.9231 -0.8370 -0.4545
 3707TIP3   OH235315   4.921   0.556  17.151  0.0473 -0.2177  0.0568
 3707TIP3    H135316   4.862   0.521  17.219 -0.2879 -1.1238 -0.6720
 3707TIP3    H235317   4.900   0.649  17.147 -0.8789 -0.3993  0.2807
 3708TIP3   OH235318   4.680   2.381  17.290  0.2698 -0.3065 -0.1063
 3708TIP3    H135319   4.618   2.320  17.250  0.3266  0.0051 -0.6736
 3708TIP3    H235320   4.643   2.400  17.376  0.0521 -0.8376 -0.0800
 3709TIP3   OH235321   5.814   7.324  17.837 -0.2873  0.0114 -0.0636
 3709TIP3    H135322   5.871   7.358  17.768 -0.2253  2.4693  1.0956
 3709TIP3    H235323   5.828   7.384  17.911 -0.1481 -2.6366  2.2276
 3710TIP3   OH235324   5.226   8.077  16.662 -0.2282 -0.3454 -0.1276
 3710TIP3    H135325   5.193   8.149  16.608 -0.5201 -1.1450 -1.0533
 3710TIP3    H235326   5.157   8.010  16.656  0.4469 -1.0524 -0.0424
 3711TIP3   OH235327   4.446   9.123  17.679 -0.5606  0.1111 -0.0659
 3711TIP3    H135328   4.413   9.184  17.744  0.3573 -0.8018  1.3088
 3711TIP3    H235329   4.504   9.065  17.728  0.3901 -0.4283 -1.7668
 3712TIP3   OH235330   3.757   6.440  16.952 -0.3194  0.0022  0.3855
 3712TIP3    H135331   3.794   6.455  16.866  0.1130 -1.6710  0.2528
 3712TIP3    H235332   3.684   6.379  16.937  0.2861 -0.9818  1.2704
 3713TIP3   OH235333   6.636   3.707  16.245 -0.2543 -0.5397 -0.3375
 3713TIP3    H135334   6.692   3.716  16.323 -1.0758 -3.3094  0.6624
 3713TIP3    H235335   6.598   3.620  16.252 -1.9193 -0.1184 -2.8689
 3714TIP3   OH235336   1.228   8.235  17.847 -0.0421 -0.2809  0.0453
 3714TIP3    H135337   1.205   8.297  17.917 -0.1806 -1.8070  1.4053
 3714TIP3    H235338   1.260   8.291  17.776 -0.9396  1.4011  0.8931
 3715TIP3   OH235339   2.538   8.855  15.983 -0.0446 -0.4310 -0.0908
 3715TIP3    H135340   2.499   8.940  15.965 -0.3147 -0.0182  2.1441
 3715TIP3    H235341   2.467   8.792  15.969  0.0925 -0.2868 -1.5194
 3716TIP3   OH235342   8.847   6.787  17.082  0.1801  0.1302 -0.5022
 3716TIP3    H135343   8.815   6.782  16.992  1.4972  0.3164 -0.9994
 3716TIP3    H235344   8.917   6.852  17.080 -1.0922  1.6248  1.0803
 3717TIP3   OH235345   2.889   4.499  17.246  0.5511 -0.2051 -0.3671
 3717TIP3    H135346   2.964   4.451  17.210  0.8862 -0.1481  0.2425
 3717TIP3    H235347   2.815   4.440  17.237  0.8704 -0.6549 -0.0501
 3718TIP3   OH235348   9.051   6.964  17.077  0.4264  0.0575  0.1804
 3718TIP3    H135349   9.082   6.989  16.990  1.2717 -0.0157  0.4524
 3718TIP3    H235350   9.044   7.046  17.125  2.8440 -0.1256  0.9581
 3719TIP3   OH235351   6.668   5.109  16.588  0.2299  0.3957  0.0111
 3719TIP3    H135352   6.677   5.116  16.493 -1.9657 -2.0338 -0.5060
 3719TIP3    H235353   6.678   5.015  16.606 -2.0798  0.4033  1.7803
 3720TIP3   OH235354   7.447   4.297  17.676  0.3322  0.2083 -0.4308
 3720TIP3    H135355   7.424   4.278  17.767  1.2100 -0.2623 -0.2963
 3720TIP3    H235356   7.363   4.298  17.630 -0.2163  1.2680  0.5116
 3721TIP3   OH235357   3.432   5.441  17.708 -0.0441 -0.4015  0.1280
 3721TIP3    H135358   3.355   5.463  17.656  1.5640  1.2638 -1.7238
 3721TIP3    H235359   3.433   5.506  17.778 -1.6925 -2.0664  1.8072
 3722TIP3   OH235360   8.300   5.563  17.363  0.1029 -0.8031  0.1368
 3722TIP3    H135361   8.346   5.647  17.373 -0.5521 -0.3679 -0.4338
 3722TIP3    H235362   8.314   5.538  17.272 -0.1770 -1.0323  0.1542
 3723TIP3   OH235363   0.560   3.398  16.543 -0.1920  0.1582 -0.2564
 3723TIP3    H135364   0.594   3.459  16.608  0.2951  0.1129 -0.4594
 3723TIP3    H235365   0.609   3.317  16.558 -0.9911 -0.2599  0.1581
 3724TIP3   OH235366   8.382   1.257  17.560 -0.3636  0.8609  0.1925
 3724TIP3    H135367   8.429   1.199  17.619  1.0618  0.7149 -1.0035
 3724TIP3    H235368   8.317   1.201  17.518  1.4042 -0.1139 -1.4069
 3725TIP3   OH235369   2.770   3.555  17.225  0.0559 -0.3659 -0.3794
 3725TIP3    H135370   2.814   3.599  17.298  2.0518  0.5064 -1.9914
 3725TIP3    H235371   2.721   3.484  17.266  0.9117  0.2051  1.8216
 3726TIP3   OH235372   3.741   8.716  17.547 -0.6433  0.5044  0.5769
 3726TIP3    H135373   3.742   8.749  17.637  0.0396  0.9324  0.4233
 3726TIP3    H235374   3.666   8.759  17.507  0.9023  2.9404  0.0322
 3727TIP3   OH235375   7.521   1.106  17.413 -0.5055 -0.0391 -0.5278
 3727TIP3    H135376   7.456   1.069  17.353 -0.4120  1.4963 -1.6509
 3727TIP3    H235377   7.472   1.165  17.469 -0.5334 -1.2104  0.7118
 3728TIP3   OH235378   6.819   7.908  17.718  0.1490  0.5935 -0.3415
 3728TIP3    H135379   6.857   7.840  17.662  4.5648  1.5124  1.1566
 3728TIP3    H235380   6.875   7.984  17.703  1.2671  1.0772  4.6877
 3729TIP3   OH235381   3.502   8.763  16.745 -0.0878  0.6523 -0.0126
 3729TIP3    H135382   3.427   8.774  16.804 -0.8567  0.6131 -0.9647
 3729TIP3    H235383   3.486   8.826  16.675  0.8920  0.7919 -0.1119
 3730TIP3   OH235384   0.542   6.315  16.531  0.0095  0.7186  0.4703
 3730TIP3    H135385   0.629   6.285  16.560 -0.7621 -0.5377  1.6289
 3730TIP3    H235386   0.549   6.319  16.436  0.7007 -1.6581  0.3420
 3731TIP3   OH235387   1.242   0.611  16.554 -0.4462  0.6738 -0.4666
 3731TIP3    H135388   1.266   0.609  16.462 -1.1145 -0.3726 -0.6328
 3731TIP3    H235389   1.154   0.649  16.556 -2.2456 -3.0394 -0.7550
 3732TIP3   OH235390   4.294   3.640  16.145  0.1680  0.1036  0.4418
 3732TIP3    H135391   4.374   3.678  16.184  0.2356  0.4941 -0.0627
 3732TIP3    H235392   4.303   3.546  16.160  1.5282 -0.0471 -1.0148
 3733TIP3   OH235393   8.894   8.467  16.323 -0.3399  0.2582 -0.2905
 3733TIP3    H135394   8.927   8.475  16.234 -1.5837 -1.7849 -0.9886
 3733TIP3    H235395   8.941   8.393  16.360 -0.8669  0.1924  0.2633
 3734TIP3   OH235396   6.827   0.069  16.083 -0.1996  0.8675  0.0470
 3734TIP3    H135397   6.793   0.140  16.028 -1.4850  0.2084 -0.0433
 3734TIP3    H235398   6.915   0.098  16.108 -0.6305  2.4092 -0.1338
 3735TIP3   OH235399   5.817   1.531  17.305  0.4061 -0.2286  0.6331
 3735TIP3    H135400   5.770   1.451  17.331 -0.8605  0.5102  0.6911
 3735TIP3    H235401   5.814   1.530  17.209  1.2270 -0.7186  0.6028
 3736TIP3   OH235402   7.423   5.486  16.100 -0.0571 -0.1239 -0.4513
 3736TIP3    H135403   7.353   5.472  16.036 -0.4734  0.0312 -0.0345
 3736TIP3    H235404   7.461   5.571  16.076  0.5120 -0.5585 -1.1529
 3737TIP3   OH235405   7.974   0.860  17.524  0.5007  0.1433 -0.6422
 3737TIP3    H135406   7.916   0.865  17.449  0.8164  0.4799 -0.8685
 3737TIP3    H235407   7.993   0.767  17.535  1.4679  0.1759 -1.7693
 3738TIP3   OH235408   3.963   0.577  17.169 -0.1224  0.0485 -0.1125
 3738TIP3    H135409   4.005   0.573  17.254  1.6408 -0.7854 -0.9854
 3738TIP3    H235410   4.005   0.651  17.124 -0.0934 -0.3368 -0.7339
 3739TIP3   OH235411   5.738   5.570  16.302  0.6149  0.4620  0.1246
 3739TIP3    H135412   5.750   5.603  16.213  2.5541  0.2136  0.2635
 3739TIP3    H235413   5.794   5.493  16.308 -0.3363 -0.1901  1.2416
 3740TIP3   OH235414   6.227   3.615  16.702  0.2262 -0.1454  0.3076
 3740TIP3    H135415   6.135   3.641  16.703  0.3491  0.3117  0.2874
 3740TIP3    H235416   6.257   3.633  16.613  0.2661 -0.5545  0.2357
 3741TIP3   OH235417   1.362   0.222  17.823 -0.3003  0.3941  0.2902
 3741TIP3    H135418   1.405   0.208  17.739  0.1303  0.7177  0.4568
 3741TIP3    H235419   1.413   0.169  17.885 -0.3576  0.4969  0.4257
 3742TIP3   OH235420   7.387   3.431  17.800  0.3872  0.1810 -0.2800
 3742TIP3    H135421   7.422   3.416  17.888  0.9317 -0.9852 -0.6715
 3742TIP3    H235422   7.304   3.384  17.798  0.8531 -0.6475 -0.6907
 3743TIP3   OH235423   4.561   1.076  17.946  0.7789 -0.7083 -0.0108
 3743TIP3    H135424   4.483   1.131  17.936  2.2126  1.3513 -0.5233
 3743TIP3    H235425   4.570   1.032  17.861 -0.0299 -1.2772  0.1893
 3744TIP3   OH235426   5.517   2.950  17.596  0.7575 -0.2560  0.4098
 3744TIP3    H135427   5.593   2.984  17.644  0.4619 -0.0567  0.7362
 3744TIP3    H235428   5.446   3.011  17.616  0.9682  0.6370 -1.4076
 3745TIP3   OH235429   5.664   4.810  17.423 -0.2361  0.2884  0.4866
 3745TIP3    H135430   5.616   4.874  17.370 -0.9303 -0.1454  0.5723
 3745TIP3    H235431   5.701   4.861  17.495 -1.4795  0.4736  1.0205
 3746TIP3   OH235432   5.260   1.283  17.131  0.0965  0.4700 -1.1911
 3746TIP3    H135433   5.226   1.350  17.190 -0.4074 -0.4483 -0.4310
 3746TIP3    H235434   5.203   1.287  17.054 -1.0536 -0.2902 -0.3993
 3747TIP3   OH235435   0.581   2.229  16.859 -0.0200  0.1043  0.1310
 3747TIP3    H135436   0.631   2.213  16.779 -0.0438  0.1121  0.1140
 3747TIP3    H235437   0.503   2.174  16.850 -0.9637  1.5433 -0.7310
 3748TIP3   OH235438   1.934   6.284  16.288 -0.4098  0.1121 -0.6165
 3748TIP3    H135439   2.002   6.352  16.294  0.1143 -0.4443 -0.0550
 3748TIP3    H235440   1.864   6.316  16.345  1.0555 -1.1449  2.1217
 3749TIP3   OH235441   6.050   8.308  17.629 -0.2219  0.2680  0.1409
 3749TIP3    H135442   5.996   8.256  17.689 -1.6055  1.8820  0.3574
 3749TIP3    H235443   6.122   8.340  17.683 -0.8723  0.8207  0.6919
 3750TIP3   OH235444   6.089   1.854  17.264  0.0466 -0.3935 -0.1681
 3750TIP3    H135445   6.135   1.816  17.339  0.3286  1.1893  0.4933
 3750TIP3    H235446   6.071   1.779  17.207  1.6295 -1.3550  0.5175
 3751TIP3   OH235447   7.273   3.328  16.914  0.1040  1.2305 -0.5611
 3751TIP3    H135448   7.217   3.258  16.949  0.6802  2.0405  2.2534
 3751TIP3    H235449   7.339   3.282  16.862 -0.2763 -0.1982  0.1512
 3752TIP3   OH235450   0.836   8.437  17.461 -0.3644  0.3567  0.0680
 3752TIP3    H135451   0.890   8.435  17.382 -0.2775  0.6920  0.1171
 3752TIP3    H235452   0.897   8.419  17.533 -0.5801 -0.7014 -0.0083
 3753TIP3   OH235453   1.959   5.869  16.358  0.0882 -0.0777 -0.6896
 3753TIP3    H135454   2.048   5.905  16.365  0.0128  0.0691 -0.4666
 3753TIP3    H235455   1.940   5.836  16.447  0.0845 -0.4972 -0.8424
 3754TIP3   OH235456   8.235   2.584  16.194  0.2125  0.2564  0.2419
 3754TIP3    H135457   8.285   2.658  16.227  1.5555  0.6150 -2.3431
 3754TIP3    H235458   8.296   2.511  16.196  0.4154  0.3412 -1.5154
 3755TIP3   OH235459   8.286   8.499  17.635 -0.3233 -0.0776 -0.3941
 3755TIP3    H135460   8.273   8.568  17.570 -2.0150  0.6018  0.5899
 3755TIP3    H235461   8.339   8.539  17.703 -1.9309  0.5720  0.5412
 3756TIP3   OH235462   1.185   9.174  16.987 -0.5240  0.2986 -0.1724
 3756TIP3    H135463   1.119   9.144  17.050  1.0879 -0.5650  1.1861
 3756TIP3    H235464   1.150   9.257  16.954 -2.2514 -0.0903  0.5415
 3757TIP3   OH235465   3.685   6.968  16.568 -0.3351 -0.5006  0.6677
 3757TIP3    H135466   3.669   6.875  16.585 -0.5545 -0.5544  0.1616
 3757TIP3    H235467   3.723   7.000  16.650 -1.8456 -0.6430  1.4684
 3758TIP3   OH235468   5.790   3.501  17.365  0.3636 -0.6344 -0.1001
 3758TIP3    H135469   5.846   3.567  17.406 -0.6291  0.3596 -0.3249
 3758TIP3    H235470   5.825   3.491  17.277 -0.2444  0.5327 -0.4916
 3759TIP3   OH235471   1.655   6.048  16.593 -0.0493 -0.2478 -0.0578
 3759TIP3    H135472   1.674   6.139  16.567 -0.6171 -0.5192 -1.5613
 3759TIP3    H235473   1.728   6.023  16.649  0.3755  0.9727 -0.0281
 3760TIP3   OH235474   6.549   6.277  16.513 -0.6223 -0.1693  0.2190
 3760TIP3    H135475   6.645   6.273  16.507 -0.5777 -3.3859  1.2701
 3760TIP3    H235476   6.532   6.312  16.601 -0.5411  1.9408 -0.5304
 3761TIP3   OH235477   3.807   2.174  17.567 -0.1561 -0.1870 -0.1752
 3761TIP3    H135478   3.848   2.170  17.480  0.3342  0.1743  0.0328
 3761TIP3    H235479   3.793   2.267  17.582 -3.4478 -0.3879 -1.3145
 3762TIP3   OH235480   0.292   2.037  17.458  0.0615  0.6128  1.0513
 3762TIP3    H135481   0.342   2.081  17.389 -0.2116  2.0845  1.7409
 3762TIP3    H235482   0.228   1.983  17.411  1.0125  0.2182  0.1733
 3763TIP3   OH235483   5.539   5.922  16.936  0.6971  0.4519 -0.1829
 3763TIP3    H135484   5.563   5.995  16.993 -0.1765 -0.1218  0.9605
 3763TIP3    H235485   5.446   5.936  16.918  0.1469 -1.1078  1.2172
 3764TIP3   OH235486   4.049   6.652  16.032 -0.4628  0.2285 -0.4802
 3764TIP3    H135487   4.136   6.681  16.005  0.7316 -2.0024  0.6841
 3764TIP3    H235488   4.036   6.569  15.986 -0.6342 -0.9843  1.6611
 3765TIP3   OH235489   5.459   5.257  16.581  0.0047  0.3131  0.4090
 3765TIP3    H135490   5.421   5.194  16.641 -1.6760 -0.4133 -1.3031
 3765TIP3    H235491   5.474   5.336  16.633  0.0361 -0.7719  2.0778
 3766TIP3   OH235492   3.862   6.545  16.192 -0.2156 -0.1286  0.2840
 3766TIP3    H135493   3.931   6.594  16.147 -0.3981 -1.8374 -2.0121
 3766TIP3    H235494   3.782   6.593  16.173 -0.0593  0.1751  0.3808
 3767TIP3   OH235495   8.069   0.290  16.407  0.2485  0.0283 -0.0735
 3767TIP3    H135496   8.064   0.270  16.500  0.6374 -0.3692 -0.1339
 3767TIP3    H235497   8.104   0.210  16.367 -2.6571 -0.9082 -0.9584
 3768TIP3   OH235498   5.541   1.858  17.375  0.4039 -0.3879 -0.0392
 3768TIP3    H135499   5.629   1.834  17.403  0.7291 -0.2908 -0.9245
 3768TIP3    H235500   5.541   1.841  17.280  0.2143  1.7518 -0.4670
 3769TIP3   OH235501   8.991   3.603  17.053  0.5246  0.5077 -0.1257
 3769TIP3    H135502   8.984   3.660  17.130  0.6134 -0.4513  0.6107
 3769TIP3    H235503   9.085   3.586  17.045  0.3278 -1.2660  0.9743
 3770TIP3   OH235504   4.057   3.947  16.900  1.0092 -0.0988 -0.3687
 3770TIP3    H135505   4.061   4.027  16.846  0.8499 -0.2246 -0.5704
 3770TIP3    H235506   3.970   3.949  16.940  1.6477  0.7351  1.0511
 3771TIP3   OH235507   5.993   1.369  17.653 -0.3222 -0.5417  0.2373
 3771TIP3    H135508   6.055   1.313  17.700  0.3586  1.4429  1.8199
 3771TIP3    H235509   5.907   1.335  17.676  0.0777 -0.9039  1.2320
 3772TIP3   OH235510   7.019   7.005  17.347  0.3487  0.1401 -0.2249
 3772TIP3    H135511   7.091   7.067  17.360 -0.3769  0.8643  0.4681
 3772TIP3    H235512   6.964   7.046  17.280  0.1161  0.0216 -0.1074
 3773TIP3   OH235513   3.098   4.289  16.850 -0.3473 -0.1852 -0.1272
 3773TIP3    H135514   3.173   4.311  16.793 -0.4518 -0.1465 -0.2491
 3773TIP3    H235515   3.034   4.357  16.832 -1.1589 -1.2303 -1.3926
 3774TIP3   OH235516   5.715   6.599  15.973  0.0393 -0.3713 -0.4759
 3774TIP3    H135517   5.690   6.669  16.033  0.8027  1.0398 -1.7512
 3774TIP3    H235518   5.737   6.525  16.030  1.5354  1.1619  1.0461
 3775TIP3   OH235519   3.641   0.811  17.179  0.1482 -0.1233  0.2536
 3775TIP3    H135520   3.554   0.802  17.218 -0.1695 -0.1740 -0.4611
 3775TIP3    H235521   3.700   0.777  17.246 -0.5112 -1.5745  0.1299
 3776TIP3   OH235522   0.085   8.525  17.649 -0.3576  0.2605 -0.6177
 3776TIP3    H135523   0.112   8.462  17.716  4.0361  1.9363 -0.4915
 3776TIP3    H235524   0.118   8.489  17.567 -0.2048  1.1315 -0.9470
 3777TIP3   OH235525   8.933   2.714  17.148 -0.1434  0.6839  0.7374
 3777TIP3    H135526   8.894   2.629  17.128 -0.4209  0.8517  0.5672
 3777TIP3    H235527   8.941   2.757  17.063  0.1975  0.7427  0.7984
 3778TIP3   OH235528   3.844   3.644  17.529  0.3353  0.7139  0.3549
 3778TIP3    H135529   3.932   3.641  17.566  0.4297  0.6371  0.1245
 3778TIP3    H235530   3.786   3.650  17.605  0.5301  0.5945  0.5123
 3779TIP3   OH235531   8.859   3.158  16.884 -0.3680  0.2500 -0.1843
 3779TIP3    H135532   8.924   3.226  16.903 -0.3213  0.9970 -2.7357
 3779TIP3    H235533   8.801   3.158  16.961  0.7125  1.8439  0.6894
 3780TIP3   OH235534   8.897   6.088  16.975 -0.6657  0.0219  0.2006
 3780TIP3    H135535   8.891   6.010  16.920  0.3378 -0.3191  0.5624
 3780TIP3    H235536   8.810   6.097  17.013 -1.2242 -0.0427 -1.0209
 3781TIP3   OH235537   5.090   7.860  16.889 -0.1352  0.3910 -0.0469
 3781TIP3    H135538   5.052   7.865  16.802  0.6427 -4.1527 -0.9009
 3781TIP3    H235539   5.178   7.897  16.879 -0.8739  2.1050 -0.4892
 3782TIP3   OH235540   4.968   1.783  17.789  0.3018 -0.0627 -0.2159
 3782TIP3    H135541   4.911   1.850  17.750 -0.7376 -1.2945 -0.8829
 3782TIP3    H235542   4.917   1.702  17.783  2.2131 -1.2642 -1.0491
 3783TIP3   OH235543   1.302   1.351  17.103 -0.2347  0.4521  0.0424
 3783TIP3    H135544   1.312   1.267  17.057 -0.5840  1.2089 -1.4833
 3783TIP3    H235545   1.389   1.368  17.140  0.3212  0.2074 -1.0853
 3784TIP3   OH235546   3.359   8.057  17.625  0.0155 -0.0430 -0.1960
 3784TIP3    H135547   3.429   8.034  17.565  0.2597  0.3048 -0.0476
 3784TIP3    H235548   3.366   7.994  17.697 -0.0834 -0.2625 -0.3783
 3785TIP3   OH235549   5.941   7.095  17.160 -0.4171  0.0430 -0.3244
 3785TIP3    H135550   5.992   7.144  17.095 -1.0881  0.5565 -0.4822
 3785TIP3    H235551   5.885   7.162  17.200 -0.3188 -0.3500  0.4784
 3786TIP3   OH235552   6.410   4.884  17.664  0.2325  0.3342  0.0238
 3786TIP3    H135553   6.493   4.838  17.671  0.8928  1.5818  0.8055
 3786TIP3    H235554   6.370   4.850  17.584  1.6884  0.0202 -0.6022
 3787TIP3   OH235555   0.392   2.039  16.846 -0.2366 -0.4184  0.2830
 3787TIP3    H135556   0.406   1.991  16.765 -1.2356  1.1186 -0.8467
 3787TIP3    H235557   0.387   1.971  16.914  2.1272 -1.6579 -0.6578
 3788TIP3   OH235558   6.305   5.902  16.565  0.4167  0.5662 -0.1162
 3788TIP3    H135559   6.268   5.861  16.487  1.3596  1.1501 -0.8930
 3788TIP3    H235560   6.364   5.970  16.532  0.2710  1.3399  1.1153
 3789TIP3   OH235561   3.096   7.303  17.010  0.2029  0.6840 -0.3091
 3789TIP3    H135562   3.006   7.334  17.021 -0.8453 -1.6994 -1.5130
 3789TIP3    H235563   3.110   7.241  17.081  1.3445  1.8173  0.5170
 3790TIP3   OH235564   1.069   7.032  17.846 -0.3525  0.0891 -0.2734
 3790TIP3    H135565   1.099   7.123  17.855 -0.9894  0.5249 -2.1695
 3790TIP3    H235566   1.014   7.018  17.923 -1.5215  1.8606 -0.7182
 3791TIP3   OH235567   3.527   2.256  15.909  0.3153 -0.1420 -0.5208
 3791TIP3    H135568   3.588   2.185  15.887  0.1718 -1.1565  2.0191
 3791TIP3    H235569   3.443   2.228  15.874  0.6165 -0.4058 -1.0355
 3792TIP3   OH235570   6.271   4.929  17.905  0.2505 -0.3882  0.2758
 3792TIP3    H135571   6.341   4.927  17.840 -0.4380 -0.5803 -0.4865
 3792TIP3    H235572   6.216   4.854  17.883  0.6791 -1.2111  1.8709
 3793TIP3   OH235573   0.028   4.873  17.556  0.2873 -0.2876 -0.3784
 3793TIP3    H135574   0.082   4.829  17.490  0.0423 -1.9838  0.4980
 3793TIP3    H235575  -0.037   4.922  17.505  3.0612  2.6356 -1.5282
 3794TIP3   OH235576   2.455   6.218  16.886  0.2821 -0.5046 -0.1341
 3794TIP3    H135577   2.391   6.148  16.880  1.2861 -1.4427 -0.3534
 3794TIP3    H235578   2.476   6.240  16.795  0.9851 -0.9103 -0.0840
 3795TIP3   OH235579   0.847   6.054  17.017  0.3634  0.0970  0.6996
 3795TIP3    H135580   0.870   6.091  17.102 -1.2131 -1.5471  1.9042
 3795TIP3    H235581   0.900   5.975  17.010  0.5561  0.2677  0.0625
 3796TIP3   OH235582   8.111   2.909  17.633  0.2918  0.8213  0.0364
 3796TIP3    H135583   8.019   2.885  17.642  0.3968 -0.6913 -2.0208
 3796TIP3    H235584   8.113   2.975  17.563  0.5912  2.7803  1.7871
 3797TIP3   OH235585   6.392   8.194  17.262 -0.3596  0.2748 -0.2738
 3797TIP3    H135586   6.363   8.123  17.318 -0.2576 -0.2756 -0.9102
 3797TIP3    H235587   6.357   8.273  17.303 -0.9491 -0.1897  0.1276
 3798TIP3   OH235588   4.686   0.055  16.882  0.1672  0.3777  0.3242
 3798TIP3    H135589   4.741  -0.012  16.841 -0.2601  1.1838 -1.7210
 3798TIP3    H235590   4.617   0.006  16.927  0.4638 -0.5720 -0.2170
 3799TIP3   OH235591   3.635   6.100  16.065 -0.2931  0.7322 -0.4389
 3799TIP3    H135592   3.608   6.177  16.014 -1.4739  0.4331 -0.3010
 3799TIP3    H235593   3.553   6.053  16.081  0.4298 -0.6347 -0.6555
 3800TIP3   OH235594   2.967   4.080  15.875  0.1761  0.1321  0.0201
 3800TIP3    H135595   3.020   4.154  15.846  0.2297  0.0491 -0.0928
 3800TIP3    H235596   2.977   4.014  15.806  0.1024  0.0321  0.1046
 3801TIP3   OH235597   4.362   7.452  17.527 -0.1794  0.3863  0.1941
 3801TIP3    H135598   4.400   7.540  17.528  0.3027  0.1772  0.6519
 3801TIP3    H235599   4.435   7.394  17.550 -0.4654 -0.1448 -0.2133
 3802TIP3   OH235600   8.005   8.322  17.462  0.2302  0.1415 -0.1335
 3802TIP3    H135601   7.987   8.413  17.437 -2.8755 -0.0008  1.1386
 3802TIP3    H235602   7.988   8.319  17.556 -1.9224 -2.1681 -0.5036
 3803TIP3   OH235603   6.727   7.321  17.338 -0.0304 -0.2323 -0.3214
 3803TIP3    H135604   6.799   7.375  17.306  0.2332 -1.0718 -1.2012
 3803TIP3    H235605   6.682   7.291  17.258 -0.5919 -0.7231  0.1702
 3804TIP3   OH235606   1.033   5.108  17.568  0.4660 -0.1077  0.0966
 3804TIP3    H135607   0.997   5.102  17.657  0.1804  1.6634  0.1271
 3804TIP3    H235608   1.063   5.198  17.560  3.3913 -1.0384 -0.5414
 3805TIP3   OH235609   1.473   8.111  16.828  0.4780  0.3459  0.2476
 3805TIP3    H135610   1.436   8.128  16.742  0.0876  1.3361  0.5888
 3805TIP3    H235611   1.470   8.196  16.872 -1.1890 -0.5225  1.9425
 3806TIP3   OH235612   0.742   6.812  17.746 -0.0710 -0.4634  0.1885
 3806TIP3    H135613   0.765   6.876  17.680 -0.7493 -0.3489  0.0549
 3806TIP3    H235614   0.813   6.747  17.743  0.3013 -0.0482 -0.0955
 3807TIP3   OH235615   5.993   2.296  16.492  0.1654  0.1800  0.9119
 3807TIP3    H135616   5.911   2.340  16.513  0.7096  0.9818  1.4195
 3807TIP3    H235617   5.993   2.217  16.546  0.4554  1.0084  2.1578
 3808TIP3   OH235618   8.776   2.481  17.574  0.0065  0.9505 -0.2131
 3808TIP3    H135619   8.754   2.559  17.626  1.0374 -0.3419  2.3334
 3808TIP3    H235620   8.870   2.491  17.555  0.5148 -0.2839  1.4095
 3809TIP3   OH235621   7.278   0.168  16.031 -0.6524  0.1443 -0.0207
 3809TIP3    H135622   7.357   0.122  16.004  0.7981  1.4627  1.7073
 3809TIP3    H235623   7.224   0.173  15.952  1.7720  0.7726 -1.7361
 3810TIP3   OH235624   7.276   6.576  17.524 -0.8356 -0.4793 -0.2703
 3810TIP3    H135625   7.266   6.542  17.613  1.8933 -0.6361  0.0503
 3810TIP3    H235626   7.264   6.670  17.533  1.3941 -0.2376  0.6962
 3811TIP3   OH235627   5.778   0.442  16.314 -1.4377  0.3957  0.5866
 3811TIP3    H135628   5.813   0.491  16.388 -0.7581 -1.8216  1.8200
 3811TIP3    H235629   5.854   0.397  16.276 -2.0415  0.1837 -0.4166
 3812TIP3   OH235630   0.831   6.762  15.813 -0.3015  0.2632  0.2777
 3812TIP3    H135631   0.880   6.698  15.865 -0.3065 -0.8369 -1.0033
 3812TIP3    H235632   0.884   6.842  15.817  0.8520 -0.4651  0.1355
 3813TIP3   OH235633   0.854   2.581  16.887  0.2730 -0.2310 -0.0557
 3813TIP3    H135634   0.818   2.670  16.886 -0.5674 -0.5015 -3.2480
 3813TIP3    H235635   0.828   2.543  16.803  0.4702 -3.5854  1.2278
 3814TIP3   OH235636   5.162   6.035  17.805 -0.6989  0.1229  0.1935
 3814TIP3    H135637   5.158   5.940  17.818 -2.3039  0.0661 -0.5271
 3814TIP3    H235638   5.254   6.057  17.823 -0.4234 -1.4604  0.9684
 3815TIP3   OH235639   1.895   5.692  17.369 -0.3648  0.4441 -0.0390
 3815TIP3    H135640   1.864   5.640  17.444 -1.4086 -0.2899 -0.9492
 3815TIP3    H235641   1.844   5.660  17.295  2.1831 -0.4291 -1.5458
 3816TIP3   OH235642   3.305   3.597  17.584  0.1369 -0.2734  0.4329
 3816TIP3    H135643   3.279   3.653  17.657 -2.6693 -1.2300  0.2866
 3816TIP3    H235644   3.320   3.657  17.512  0.6054  0.5147  1.1700
 3817TIP3   OH235645   3.082   0.423  16.077  0.1979  0.4274 -0.5580
 3817TIP3    H135646   3.156   0.365  16.058  1.1406  1.9273 -1.6034
 3817TIP3    H235647   3.019   0.366  16.122  0.6724 -1.6464 -2.3645
 3818TIP3   OH235648   7.115   0.053  16.506  0.2265  0.4505  0.3091
 3818TIP3    H135649   7.124   0.096  16.591  1.7227 -0.3064  0.5710
 3818TIP3    H235650   7.021   0.054  16.488 -0.2095  0.0104  2.3059
 3819TIP3   OH235651   4.835   6.957  17.598 -0.0929 -0.3972 -0.5336
 3819TIP3    H135652   4.847   7.033  17.540  1.4169 -1.4862 -1.7307
 3819TIP3    H235653   4.759   6.911  17.563 -1.7165  1.0736  0.8613
 3820TIP3   OH235654   5.626   3.803  16.773 -0.6900  0.0934 -0.3474
 3820TIP3    H135655   5.577   3.858  16.834  0.1059  0.9651 -0.4718
 3820TIP3    H235656   5.589   3.823  16.688 -0.6271  0.1913 -0.3526
 3821TIP3   OH235657   3.268   7.352  17.810 -0.0511  0.4401  0.0013
 3821TIP3    H135658   3.188   7.304  17.791 -0.2809  1.4113 -1.6730
 3821TIP3    H235659   3.274   7.352  17.906 -2.0524  0.3353  0.1604
 3822TIP3   OH235660   1.585   6.939  16.769 -1.0365  0.2147 -0.0714
 3822TIP3    H135661   1.624   6.991  16.839 -0.0566  0.5943 -0.8702
 3822TIP3    H235662   1.558   7.003  16.704 -3.2128 -0.0249  0.5239
 3823TIP3   OH235663   8.667   6.847  15.779  0.3036 -0.3721 -0.0437
 3823TIP3    H135664   8.719   6.899  15.840 -0.4167 -1.1181  1.2294
 3823TIP3    H235665   8.665   6.900  15.699  3.8288 -0.7129 -0.5499
 3824TIP3   OH235666   0.197   0.433  16.978 -0.4872  0.2711 -0.0081
 3824TIP3    H135667   0.270   0.457  17.035 -0.0189 -2.0892  0.4782
 3824TIP3    H235668   0.185   0.510  16.921  1.1839  1.3960  1.0651
 3825TIP3   OH235669   7.068   7.987  16.972 -0.5160 -0.4535  0.0801
 3825TIP3    H135670   7.044   7.902  17.008 -2.7351  0.5915  1.2686
 3825TIP3    H235671   6.985   8.026  16.944 -0.2854  2.8914  3.2395
 3826TIP3   OH235672   2.712   1.460  17.267 -0.1480 -0.2289  0.1771
 3826TIP3    H135673   2.670   1.465  17.353  0.1184 -1.0522  0.3645
 3826TIP3    H235674   2.773   1.386  17.274  2.0479  1.4830  0.2198
 3827TIP3   OH235675   1.115   3.668  17.394  0.7102  0.4548 -0.0400
 3827TIP3    H135676   1.022   3.685  17.408  0.2541 -0.8996 -1.2728
 3827TIP3    H235677   1.145   3.627  17.475 -0.7759 -2.8890 -1.0034
 3828TIP3   OH235678   0.829   3.510  17.093 -0.5137  0.4388 -0.2896
 3828TIP3    H135679   0.843   3.528  17.186  0.1314 -0.0882 -0.2753
 3828TIP3    H235680   0.807   3.417  17.090  1.3834 -0.0304 -0.8293
 3829TIP3   OH235681   0.276   0.385  17.742  0.3979  0.2566  0.3900
 3829TIP3    H135682   0.361   0.424  17.723  0.0123  0.5326 -0.8766
 3829TIP3    H235683   0.253   0.336  17.662 -0.2546 -0.4966  1.0188
 3830TIP3   OH235684   8.488   0.258  16.912 -0.8164 -0.6720 -0.0004
 3830TIP3    H135685   8.530   0.293  16.990 -0.7466 -2.4147  0.7651
 3830TIP3    H235686   8.415   0.319  16.895  0.0749  0.5691  0.5030
 3831TIP3   OH235687   1.178   5.342  17.113 -0.3118 -0.3965 -0.1576
 3831TIP3    H135688   1.188   5.267  17.055  0.5381  0.1914 -0.7957
 3831TIP3    H235689   1.092   5.330  17.154  0.5354 -2.6293  1.1227
 3832TIP3   OH235690   6.222   2.585  17.526  0.4382  0.8036 -0.3464
 3832TIP3    H135691   6.217   2.493  17.501  0.5477  0.8043 -0.3720
 3832TIP3    H235692   6.305   2.615  17.490 -0.5628  1.4781 -2.2559
 3833TIP3   OH235693   0.911   8.743  17.207 -0.2600  0.0814 -0.2517
 3833TIP3    H135694   0.865   8.788  17.278  1.2677 -0.4453  1.1254
 3833TIP3    H235695   0.886   8.651  17.217  2.3473 -0.5508  1.6934
 3834TIP3   OH235696   1.745   5.200  16.990 -0.2417  0.3021  0.0110
 3834TIP3    H135697   1.801   5.171  17.062 -1.4689  2.0977  1.8035
 3834TIP3    H235698   1.764   5.140  16.919  2.0756 -0.6950  1.3654
 3835TIP3   OH235699   9.087   4.375  16.450 -0.5644  0.7756  0.6909
 3835TIP3    H135700   9.135   4.344  16.528 -0.0198  0.1354  0.1077
 3835TIP3    H235701   9.050   4.297  16.411 -0.1713  0.9936 -0.1357
 3836TIP3   OH235702   7.708   5.062  17.750  0.2682 -0.1973 -0.3257
 3836TIP3    H135703   7.787   5.113  17.729  1.1017 -1.0925  0.5506
 3836TIP3    H235704   7.740   4.973  17.765 -0.6319 -0.2022  1.9269
 3837TIP3   OH235705   2.494   5.956  16.471 -0.2715 -0.2842 -0.4251
 3837TIP3    H135706   2.528   6.040  16.439 -0.3779  0.0349  0.2842
 3837TIP3    H235707   2.528   5.892  16.409  3.2438 -0.2614  1.2093
 3838TIP3   OH235708   6.084   8.496  16.776  0.1802 -0.1125 -0.1721
 3838TIP3    H135709   6.097   8.579  16.822  0.7049 -0.5054  0.4050
 3838TIP3    H235710   6.089   8.429  16.844 -1.8445 -0.5321 -0.3763
 3839TIP3   OH235711   3.194   7.029  15.841  0.3363  0.0744 -0.2049
 3839TIP3    H135712   3.196   6.981  15.758  0.2996  0.1161 -0.2296
 3839TIP3    H235713   3.115   7.082  15.836  0.6667  0.5503 -0.4094
 3840TIP3   OH235714   3.977   6.692  16.440  0.0490 -0.1199  0.5943
 3840TIP3    H135715   3.925   6.769  16.419 -0.1664 -0.6240 -0.8173
 3840TIP3    H235716   3.955   6.628  16.373  1.8285 -0.6567  0.4536
 3841TIP3   OH235717   0.359   8.981  17.882 -0.5610  0.4312 -0.0893
 3841TIP3    H135718   0.376   8.927  17.805 -0.5867  1.6293 -0.9571
 3841TIP3    H235719   0.342   9.068  17.847  2.2453  1.6852  1.3977
 3842TIP3   OH235720   6.906   8.803  17.531  0.6522  0.1456 -0.6075
 3842TIP3    H135721   6.916   8.712  17.559  0.5648  0.9504  2.3485
 3842TIP3    H235722   6.818   8.807  17.493  0.7911 -1.0522 -1.0845
 3843TIP3   OH235723   4.307   6.096  15.431  0.4360  0.6335  0.0337
 3843TIP3    H135724   4.253   6.141  15.365  0.8564  2.3153  0.8122
 3843TIP3    H235725   4.245   6.074  15.501  0.4583  1.0494  0.1809
 3844TIP3   OH235726   3.980   1.461  17.166  0.1838 -0.2786  0.3216
 3844TIP3    H135727   4.039   1.426  17.232  2.4272 -0.3767 -1.6034
 3844TIP3    H235728   3.981   1.555  17.179  1.4890 -0.2026 -0.2103
 3845TIP3   OH235729   0.556   5.415  17.175 -0.1198 -0.0199 -0.2338
 3845TIP3    H135730   0.463   5.422  17.152 -0.0492 -0.7249 -0.7725
 3845TIP3    H235731   0.600   5.406  17.091  0.2061 -2.0410  0.1023
 3846TIP3   OH235732   9.039   1.296  17.227 -0.1698  0.2357 -0.1055
 3846TIP3    H135733   9.096   1.324  17.155  2.6291 -0.6652  1.6239
 3846TIP3    H235734   9.032   1.372  17.284 -0.3331  0.2042 -0.0832
 3847TIP3   OH235735   5.917   6.829  17.090  0.3050  0.0835  0.9220
 3847TIP3    H135736   5.909   6.923  17.104 -1.2055  0.0465  0.4464
 3847TIP3    H235737   6.011   6.815  17.077  0.4961  1.5995  0.4616
 3848TIP3   OH235738   1.292   5.759  17.845 -0.5153  1.1391 -0.2874
 3848TIP3    H135739   1.281   5.726  17.756  0.4844 -0.9797  0.3216
 3848TIP3    H235740   1.205   5.754  17.884 -0.5058 -0.2216 -0.4149
 3849TIP3   OH235741   3.277   7.920  16.767 -0.1564  0.2398  0.7528
 3849TIP3    H135742   3.306   7.872  16.844  0.1493 -1.2143 -0.2398
 3849TIP3    H235743   3.205   7.975  16.799  0.5863  0.3966  2.2561
 3850TIP3   OH235744   1.388   6.035  16.494  0.0843  0.0236 -0.0096
 3850TIP3    H135745   1.375   5.941  16.501  1.1809 -0.1728 -0.4411
 3850TIP3    H235746   1.470   6.051  16.541 -0.3994  0.8570  0.5869
 3851TIP3   OH235747   7.241   7.548  16.380  0.0013  0.8976 -0.0692
 3851TIP3    H135748   7.290   7.625  16.409  0.4979  0.3600  0.5519
 3851TIP3    H235749   7.288   7.517  16.303  1.1606 -0.0678  0.9596
 3852TIP3   OH235750   5.059   4.793  16.793 -0.4756 -0.5530 -0.2898
 3852TIP3    H135751   5.027   4.717  16.841 -0.2378  0.0361  0.8547
 3852TIP3    H235752   5.154   4.782  16.793 -0.4389 -0.2670 -0.1063
 3853TIP3   OH235753   1.229   3.846  17.246 -0.0285  0.1450  0.0071
 3853TIP3    H135754   1.177   3.775  17.283  1.3617 -0.9090  0.0062
 3853TIP3    H235755   1.308   3.804  17.213  0.9238  1.7042  0.1758
 3854TIP3   OH235756   7.199   7.784  17.407 -0.5055  0.3175 -0.0610
 3854TIP3    H135757   7.260   7.766  17.336 -0.5369  1.0746 -0.2895
 3854TIP3    H235758   7.133   7.715  17.401  0.2835 -0.4717  0.1474
 3855TIP3   OH235759   0.447   1.682  16.083  0.0568  0.1125  0.2742
 3855TIP3    H135760   0.529   1.688  16.133  0.0334 -0.8661  0.4497
 3855TIP3    H235761   0.382   1.653  16.146  0.0143 -1.0900 -0.2923
 3856TIP3   OH235762   8.919   1.877  17.574  0.4363 -0.0637 -0.1719
 3856TIP3    H135763   8.946   1.894  17.664 -1.3777  0.7814  0.2364
 3856TIP3    H235764   8.913   1.781  17.569  1.8570 -0.2021  0.1651
 3857TIP3   OH235765   6.215   4.218  16.297 -0.1048  0.6490 -0.5418
 3857TIP3    H135766   6.274   4.293  16.307  0.3867  0.1472  0.5330
 3857TIP3    H235767   6.137   4.254  16.254  0.3721  1.6414 -0.6067
 3858TIP3   OH235768   6.212   8.811  16.169 -0.0118 -0.6042 -0.5492
 3858TIP3    H135769   6.141   8.864  16.134  1.1187 -0.4752 -2.8213
 3858TIP3    H235770   6.269   8.794  16.094  1.3944 -2.2654  0.8007
 3859TIP3   OH235771   8.713   3.417  16.114  0.1024 -0.0869  0.6925
 3859TIP3    H135772   8.805   3.402  16.091  0.1136 -0.7898  1.1442
 3859TIP3    H235773   8.665   3.354  16.060 -0.1485  0.4815  0.2390
 3860TIP3   OH235774   0.889   4.197  16.231  0.3011  0.7198  0.0909
 3860TIP3    H135775   0.966   4.182  16.287  1.3674 -0.2123 -1.5451
 3860TIP3    H235776   0.835   4.119  16.245  0.9778  0.0759 -0.7850
 3861TIP3   OH235777   4.367   5.415  17.116  0.1181  0.0380  0.1065
 3861TIP3    H135778   4.434   5.483  17.123  0.6807 -0.6561  1.9850
 3861TIP3    H235779   4.411   5.343  17.070 -0.2501  0.6190 -1.2071
 3862TIP3   OH235780   1.613   6.319  17.200  0.3813 -0.0663 -0.2121
 3862TIP3    H135781   1.526   6.342  17.169 -0.2894 -0.3202  1.3580
 3862TIP3    H235782   1.637   6.242  17.149 -1.3245 -1.3861  0.8667
 3863TIP3   OH235783   8.379   3.781  17.401 -0.0585 -0.1007 -0.6263
 3863TIP3    H135784   8.419   3.709  17.450 -0.2291 -0.0101 -0.3568
 3863TIP3    H235785   8.355   3.742  17.317  1.1423 -0.0184 -1.0294
 3864TIP3   OH235786   4.340   6.863  16.374  0.9002 -0.1653 -0.0222
 3864TIP3    H135787   4.374   6.817  16.298 -1.1673 -0.1254 -1.0444
 3864TIP3    H235788   4.366   6.954  16.361  0.4013 -0.1228 -0.8128
 3865TIP3   OH235789   2.338   8.873  17.083  0.5524  0.3873 -0.0309
 3865TIP3    H135790   2.350   8.836  17.170 -0.5017 -2.0778 -0.8539
 3865TIP3    H235791   2.244   8.886  17.075  0.4268 -1.0246 -1.3516
 3866TIP3   OH235792   4.674   2.080  17.357  0.4691  0.1934 -0.6056
 3866TIP3    H135793   4.597   2.112  17.309  0.7648 -0.7637 -1.7563
 3866TIP3    H235794   4.745   2.081  17.293  1.4931  1.2452  0.4919
 3867TIP3   OH235795   4.376   1.661  17.095  0.0528  0.0829 -0.1507
 3867TIP3    H135796   4.285   1.683  17.076  0.2645  1.1005 -0.0351
 3867TIP3    H235797   4.397   1.591  17.033 -1.2027 -1.1223  0.7235
 3868TIP3   OH235798   8.751   2.278  16.377  0.3613  0.0109  0.3177
 3868TIP3    H135799   8.671   2.287  16.429  0.4008  0.1978  0.3456
 3868TIP3    H235800   8.727   2.217  16.307 -0.0246  0.6543 -0.1220
 3869TIP3   OH235801   0.130   0.236  16.058  0.3572  0.0619  0.3103
 3869TIP3    H135802   0.176   0.315  16.086  1.1969  0.3137 -1.5762
 3869TIP3    H235803   0.081   0.264  15.980 -2.6990 -0.3125  1.9242
 3870TIP3   OH235804   3.761   7.221  16.358 -1.0659  0.0526 -0.1499
 3870TIP3    H135805   3.716   7.195  16.277 -0.4410  1.4317 -0.9734
 3870TIP3    H235806   3.770   7.316  16.351 -0.7505  0.1724  1.4308
 3871TIP3   OH235807   0.829   6.427  17.005  0.6205 -0.4584 -0.2045
 3871TIP3    H135808   0.839   6.424  17.100  1.8120 -1.9101 -0.3451
 3871TIP3    H235809   0.767   6.499  16.990  0.6602  0.0128  1.6320
 3872TIP3   OH235810   7.064   6.867  16.743  0.5552  0.0128 -0.0646
 3872TIP3    H135811   7.141   6.901  16.789  1.3205 -0.3415 -1.0683
 3872TIP3    H235812   6.991   6.920  16.777  1.1462 -0.0134  1.2957
 3873TIP3   OH235813   9.024   3.812  17.819  0.1567 -0.3974  0.1223
 3873TIP3    H135814   9.120   3.813  17.826  0.1374 -0.8396  0.5502
 3873TIP3    H235815   9.005   3.853  17.735  0.6789  0.5860  0.4732
 3874TIP3   OH235816   0.208   0.998  17.433  0.3916 -0.7730  0.1744
 3874TIP3    H135817   0.253   0.914  17.443 -2.7147 -2.5760  0.3152
 3874TIP3    H235818   0.197   1.031  17.522  0.3686 -0.9251  0.2288
 3875TIP3   OH235819   6.136   5.627  16.737 -0.1396  0.0444 -0.2582
 3875TIP3    H135820   6.211   5.682  16.759 -0.4941 -0.1856  1.7282
 3875TIP3    H235821   6.106   5.592  16.821 -0.4627 -2.5025 -1.3307
 3876TIP3   OH235822   6.874   8.074  17.228  0.6388 -0.5560  0.7824
 3876TIP3    H135823   6.845   7.983  17.220  1.6496 -0.7344 -1.6233
 3876TIP3    H235824   6.960   8.067  17.271  0.7956 -0.7702  0.4434
 3877TIP3   OH235825   9.210   4.100  17.162  0.4617  0.2714  0.5474
 3877TIP3    H135826   9.252   4.016  17.180 -0.6221 -0.1285  1.3706
 3877TIP3    H235827   9.268   4.166  17.201  1.5894 -0.0291 -0.5646
 3878TIP3   OH235828   1.484   0.033  17.058 -0.1834  0.1512  0.3646
 3878TIP3    H135829   1.393   0.041  17.029  0.1907  1.6710 -0.5308
 3878TIP3    H235830   1.523   0.118  17.038  1.0577  0.0413  2.1265
 3879TIP3   OH235831   2.119   5.467  17.062  0.1683 -0.1350  0.2523
 3879TIP3    H135832   2.196   5.496  17.110  0.1671  2.9719 -1.4089
 3879TIP3    H235833   2.143   5.380  17.030  2.0085 -0.2503  1.7705
 3880TIP3   OH235834   7.061   6.820  16.481  0.0139 -0.5714  0.4346
 3880TIP3    H135835   6.966   6.809  16.478  0.1301 -1.6374  0.2852
 3880TIP3    H235836   7.083   6.820  16.574 -0.1485 -0.0504  0.4803
 3881TIP3   OH235837   0.333   7.668  17.769 -0.2137 -0.0152 -0.5018
 3881TIP3    H135838   0.253   7.719  17.754 -1.1228 -0.9154  1.0167
 3881TIP3    H235839   0.378   7.715  17.839 -0.6227 -0.7803  0.2952
 3882TIP3   OH235840   9.128   2.527  17.249 -0.0982 -0.5341 -0.2162
 3882TIP3    H135841   9.136   2.466  17.176 -0.3536 -0.3885 -0.3663
 3882TIP3    H235842   9.082   2.603  17.212 -2.6845 -1.5378  0.7444
 3883TIP3   OH235843   5.473   6.616  15.773 -0.2363  0.3930 -0.1975
 3883TIP3    H135844   5.559   6.609  15.814  0.2259  0.2786 -1.1530
 3883TIP3    H235845   5.424   6.541  15.806  0.4172 -0.1804 -0.5262
 3884TIP3   OH235846   5.416   3.201  17.451 -1.0629 -0.2299  0.2779
 3884TIP3    H135847   5.393   3.110  17.429  1.7764 -0.9478 -0.0836
 3884TIP3    H235848   5.353   3.226  17.518 -2.4233 -2.1750 -0.1905
 3885TIP3   OH235849   8.111   3.940  17.421  0.3875  0.2335 -0.3251
 3885TIP3    H135850   8.082   3.887  17.495 -0.8751 -1.3849 -1.8794
 3885TIP3    H235851   8.193   3.980  17.450 -0.2414 -0.0541  2.0335
 3886TIP3   OH235852   4.662   4.933  16.617 -0.2511  0.2206  0.6469
 3886TIP3    H135853   4.646   4.843  16.648 -1.7561  0.1658 -0.1782
 3886TIP3    H235854   4.757   4.940  16.614 -0.0817 -1.7039 -0.2263
 3887TIP3   OH235855   8.811   5.377  17.685 -0.1938 -0.1867 -0.3734
 3887TIP3    H135856   8.846   5.462  17.658  1.4734 -0.3458  1.0911
 3887TIP3    H235857   8.880   5.314  17.662 -0.8024 -0.9552 -0.1552
 3888TIP3   OH235858   7.484   5.489  17.503 -0.1930  0.0888  1.0162
 3888TIP3    H135859   7.564   5.437  17.512 -0.4844 -1.8731 -4.2843
 3888TIP3    H235860   7.413   5.426  17.512 -1.0626  1.2124  2.4393
 3889TIP3   OH235861   2.119   4.695  17.577  0.5535 -0.1808  0.5929
 3889TIP3    H135862   2.185   4.629  17.555 -0.8043 -1.9784  1.5986
 3889TIP3    H235863   2.156   4.743  17.651  1.8667  0.7412 -0.6027
 3890TIP3   OH235864   4.883   6.460  16.489 -0.4819  0.0872  0.4204
 3890TIP3    H135865   4.802   6.498  16.456 -0.6165 -0.1673  0.4603
 3890TIP3    H235866   4.857   6.375  16.525 -0.2048  0.0200  0.4632
 3891TIP3   OH235867   9.120   0.267  16.344 -0.1582  0.6345  0.3669
 3891TIP3    H135868   9.195   0.207  16.346  0.8137  1.8145  0.9490
 3891TIP3    H235869   9.095   0.272  16.252  2.3599  2.4024 -0.3429
 3892TIP3   OH235870   0.454   5.811  17.039  0.0868  0.1044  0.0968
 3892TIP3    H135871   0.477   5.877  17.105  2.3467 -1.8678  1.4408
 3892TIP3    H235872   0.537   5.773  17.013 -1.0625 -1.6624 -1.2549
 3893TIP3   OH235873   4.962   4.296  15.861  0.0327  0.8858 -0.1488
 3893TIP3    H135874   4.928   4.238  15.929 -1.7016  1.9652 -0.0260
 3893TIP3    H235875   5.024   4.354  15.907  0.7401  0.0419 -0.0103
 3894TIP3   OH235876   7.545   7.293  16.938 -0.5827  0.3428  0.5872
 3894TIP3    H135877   7.617   7.275  16.999  0.3027  1.3314 -0.1245
 3894TIP3    H235878   7.545   7.388  16.928 -1.7335  0.3163  0.2571
 3895TIP3   OH235879   9.024   0.299  16.082  0.5572  0.1498  0.9337
 3895TIP3    H135880   9.026   0.312  15.987  0.0874 -2.1469  0.5506
 3895TIP3    H235881   8.932   0.310  16.106  0.5835  0.1464  1.0370
 3896TIP3   OH235882   3.471   5.570  17.382 -0.1064 -0.5355 -0.3780
 3896TIP3    H135883   3.552   5.610  17.349 -0.1543 -0.4290 -0.3671
 3896TIP3    H235884   3.500   5.489  17.426  0.1189  0.0476  0.5805
 3897TIP3   OH235885   3.976   7.517  17.444 -0.0924 -0.1615  0.4527
 3897TIP3    H135886   3.928   7.442  17.408 -0.2524 -0.8076  1.9494
 3897TIP3    H235887   4.012   7.560  17.367 -2.3087 -0.1602 -0.6743
 3898TIP3   OH235888   4.612   8.707  16.569 -0.6818 -0.4825 -0.1293
 3898TIP3    H135889   4.521   8.677  16.560 -0.8000  0.2144 -1.5145
 3898TIP3    H235890   4.664   8.636  16.531 -0.7096 -0.5128 -0.1122
 3899TIP3   OH235891   1.584   4.304  17.371 -0.0891 -0.4969 -0.3038
 3899TIP3    H135892   1.657   4.349  17.329 -0.7371  0.8787 -0.0217
 3899TIP3    H235893   1.544   4.370  17.427 -2.9028 -0.5166 -2.0836
 3900TIP3   OH235894   2.254   3.552  16.403 -0.4810 -0.0091  0.6432
 3900TIP3    H135895   2.224   3.466  16.431 -1.1463  0.5157  1.5800
 3900TIP3    H235896   2.198   3.575  16.329  0.7818 -1.0679 -0.7032
 3901TIP3   OH235897   3.124   9.059  17.299  0.0219 -0.0613  0.4648
 3901TIP3    H135898   3.137   8.991  17.364 -2.8527 -1.0838  0.1206
 3901TIP3    H235899   3.029   9.069  17.294  0.2195  1.2809 -2.2582
 3902TIP3   OH235900   1.524   8.934  16.906 -0.1162 -0.1931 -0.1628
 3902TIP3    H135901   1.460   8.975  16.849  0.1450  0.8978  0.3115
 3902TIP3    H235902   1.516   8.981  16.989  0.7099 -0.6049  0.1658
 3903TIP3   OH235903   7.394   2.250  17.546 -0.0093  0.0076  0.1389
 3903TIP3    H135904   7.444   2.211  17.618  1.0329 -1.5387 -1.3633
 3903TIP3    H235905   7.320   2.190  17.533  0.1613 -0.0724 -0.4839
 3904TIP3   OH235906   2.613   4.818  17.231 -0.5067 -0.8607  0.1214
 3904TIP3    H135907   2.530   4.861  17.254  0.8280  2.2780 -0.4121
 3904TIP3    H235908   2.660   4.810  17.314 -0.3156 -0.2141  0.0804
 3905TIP3   OH235909   5.128   2.762  17.309  0.1946  0.1849 -0.2916
 3905TIP3    H135910   5.149   2.780  17.217  1.0048  0.5240 -0.0442
 3905TIP3    H235911   5.157   2.671  17.322 -0.4599 -0.0654 -0.5210
 3906TIP3   OH235912   8.551   1.515  17.505  0.7495  0.1350 -0.3871
 3906TIP3    H135913   8.560   1.446  17.570  0.7776  0.7717  0.3027
 3906TIP3    H235914   8.462   1.549  17.519  0.5026 -0.1668 -1.1405
 3907TIP3   OH235915   1.993   7.090  15.881  0.0834  0.3042  0.6930
 3907TIP3    H135916   1.915   7.092  15.826  0.7724  0.4884 -0.3160
 3907TIP3    H235917   1.967   7.041  15.959 -1.5449  1.9112  1.2010
 3908TIP3   OH235918   1.008   6.750  17.824 -0.6305  0.0647 -0.0861
 3908TIP3    H135919   1.049   6.737  17.739 -0.8702 -0.7758 -0.0806
 3908TIP3    H235920   1.026   6.841  17.846 -0.9971  0.4223 -1.2549
 3909TIP3   OH235921   3.630   7.136  16.106  0.3006 -0.2141  0.3070
 3909TIP3    H135922   3.583   7.139  16.023  0.8212 -0.1128  0.0138
 3909TIP3    H235923   3.630   7.044  16.130 -0.0759 -0.2113  0.3264
 3910TIP3   OH235924   3.362   0.533  16.137 -0.1849 -0.3781  0.1479
 3910TIP3    H135925   3.437   0.486  16.102  0.8469  1.4177 -0.1969
 3910TIP3    H235926   3.292   0.518  16.074 -0.5923 -3.1658  1.1341
 3911TIP3   OH235927   1.565   7.078  17.571  0.1466  0.3466 -0.0380
 3911TIP3    H135928   1.495   7.110  17.629 -1.3307 -0.0226 -1.5298
 3911TIP3    H235929   1.596   7.156  17.526 -0.6698  0.2708 -0.7614
 3912TIP3   OH235930   7.190   3.821  17.747 -0.0075  0.2836 -0.2242
 3912TIP3    H135931   7.272   3.822  17.797  0.8207  2.5951 -1.4524
 3912TIP3    H235932   7.218   3.826  17.656 -1.4816  1.3308 -0.6703
 3913TIP3   OH235933   0.775   3.788  16.068  0.4833  0.0585 -0.4032
 3913TIP3    H135934   0.719   3.713  16.051 -0.0713  0.7209 -1.6264
 3913TIP3    H235935   0.858   3.766  16.025  0.5928 -0.1927 -0.0656
 3914TIP3   OH235936   6.087   9.015  16.032  0.2560 -0.1518  0.0905
 3914TIP3    H135937   6.115   9.098  16.071  0.9759 -0.9107  1.2600
 3914TIP3    H235938   6.030   9.040  15.960  0.5576  1.3604  0.3476
 3915TIP3   OH235939   0.674   3.454  17.693  0.5439 -0.4981 -0.0865
 3915TIP3    H135940   0.725   3.400  17.753  0.9146 -1.1061 -0.9244
 3915TIP3    H235941   0.585   3.419  17.698  0.4979 -0.3238  0.3550
 3916TIP3   OH235942   3.529   3.661  17.070  0.6967  0.1122  0.0746
 3916TIP3    H135943   3.530   3.725  16.999 -0.7544 -0.9268 -0.9338
 3916TIP3    H235944   3.478   3.588  17.036  1.9907 -1.4492  1.3318
 3917TIP3   OH235945   7.509   1.808  16.858  0.0670  0.2994 -0.4822
 3917TIP3    H135946   7.582   1.829  16.799  0.0546  0.3089 -0.4939
 3917TIP3    H235947   7.478   1.894  16.887  0.7418  0.2699  0.3667
 3918TIP3   OH235948   7.715   5.928  16.471 -0.0081  0.4247 -0.0739
 3918TIP3    H135949   7.788   5.937  16.410 -0.2439  0.9294 -0.2897
 3918TIP3    H235950   7.637   5.940  16.416 -0.2813 -0.6986  0.0406
 3919TIP3   OH235951   4.612   6.954  16.908 -0.3059 -0.0187 -0.0009
 3919TIP3    H135952   4.540   6.891  16.912  0.4735 -0.9758 -0.6031
 3919TIP3    H235953   4.689   6.905  16.937  0.1138  0.9963  0.6692
 3920TIP3   OH235954   6.078   1.126  16.020  0.0918  0.0828  0.8127
 3920TIP3    H135955   6.060   1.034  16.041  0.0210 -0.3412 -0.9617
 3920TIP3    H235956   6.143   1.122  15.950  0.3415  1.3996  0.9607
 3921TIP3   OH235957   0.066   1.989  16.979 -0.1304  0.0371  0.1667
 3921TIP3    H135958  -0.011   1.950  17.019 -1.9603  3.0014 -0.1552
 3921TIP3    H235959   0.108   1.917  16.932 -2.4060 -1.7784  0.7378
 3922TIP3   OH235960   0.961   7.946  18.049 -0.2747  0.2668 -0.2677
 3922TIP3    H135961   1.035   7.886  18.048  0.5930  1.1838  1.7008
 3922TIP3    H235962   0.967   7.993  17.965  1.7002  0.6382  0.0151
 3923TIP3   OH235963   0.097   2.701  17.376 -0.2294  0.4351  0.1079
 3923TIP3    H135964   0.059   2.623  17.334 -0.3526  0.5795 -0.0478
 3923TIP3    H235965   0.088   2.684  17.469 -1.3908  0.8108  0.0782
 3924TIP3   OH235966   7.754   2.150  17.298 -0.4982  0.1318 -0.3470
 3924TIP3    H135967   7.732   2.057  17.288  1.0452 -0.2826 -0.1412
 3924TIP3    H235968   7.736   2.169  17.390 -3.2197  0.7547 -0.9162
 3925TIP3   OH235969   2.650   8.688  17.438 -0.0548 -0.2931  0.2381
 3925TIP3    H135970   2.704   8.684  17.360 -1.9027 -0.5951 -1.0992
 3925TIP3    H235971   2.699   8.743  17.499  1.4692 -0.1132 -1.0835
 3926TIP3   OH235972   9.142   6.683  15.964  0.4891  0.3851 -0.3372
 3926TIP3    H135973   9.142   6.640  15.879 -0.5557  0.2042 -0.2662
 3926TIP3    H235974   9.233   6.679  15.994  0.6495 -0.5769 -0.9301
 3927TIP3   OH235975   2.941   1.909  17.839 -0.4425 -0.3265  0.3463
 3927TIP3    H135976   2.878   1.902  17.911  1.0714 -1.1423  1.6442
 3927TIP3    H235977   2.917   1.837  17.780 -1.9807  0.6258 -0.2597
 3928TIP3   OH235978   5.112   8.930  16.292  0.6156  0.4123  0.0938
 3928TIP3    H135979   5.180   8.997  16.300 -0.0187  0.9204  1.9156
 3928TIP3    H235980   5.159   8.848  16.277  1.5598  0.9094  0.2730
 3929TIP3   OH235981   2.087   7.370  15.970  0.0023  0.1290 -0.3317
 3929TIP3    H135982   1.996   7.401  15.966  0.0056 -0.0074 -2.1585
 3929TIP3    H235983   2.083   7.280  15.939  0.5194 -0.5231  1.4094
 3930TIP3   OH235984   5.390   0.915  16.130  0.2653  0.0854 -0.2366
 3930TIP3    H135985   5.412   1.007  16.142  0.1709 -0.1022  1.5132
 3930TIP3    H235986   5.467   0.867  16.161  0.2648 -0.4463 -1.0187
 3931TIP3   OH235987   5.978   2.119  16.698 -0.2032  0.3634 -0.2462
 3931TIP3    H135988   5.950   2.070  16.775 -0.6125  2.0715  0.7493
 3931TIP3    H235989   5.995   2.207  16.730 -0.4244  1.1500 -2.1175
 3932TIP3   OH235990   2.194   4.163  16.464 -0.0974 -0.4344  0.5496
 3932TIP3    H135991   2.218   4.202  16.381 -0.3806 -0.2332  0.5616
 3932TIP3    H235992   2.215   4.070  16.454  1.7011 -0.1059  0.9446
 3933TIP3   OH235993   0.688   8.093  15.873  0.0147 -0.0056 -0.4902
 3933TIP3    H135994   0.628   8.072  15.801  0.4809 -0.0908 -0.8607
 3933TIP3    H235995   0.705   8.186  15.863  0.6573 -0.1621 -0.9469
 3934TIP3   OH235996   0.129   2.128  17.934 -0.1711 -0.3483 -0.9415
 3934TIP3    H135997   0.178   2.058  17.977  0.1498 -1.3504 -2.8031
 3934TIP3    H235998   0.111   2.094  17.846 -1.4520  1.2746 -1.3625
 3935TIP3   OH235999   6.250   0.355  17.731  0.1176 -0.0694 -0.1794
 3935TIP3    H136000   6.207   0.270  17.731  0.8623 -0.4603  0.7826
 3935TIP3    H236001   6.204   0.405  17.663 -0.2656 -1.2590 -0.8276
 3936TIP3   OH236002   0.285   8.144  16.758  0.2019  0.0002 -0.4883
 3936TIP3    H136003   0.207   8.124  16.811  0.0882 -0.7358 -0.9214
 3936TIP3    H236004   0.251   8.155  16.669  0.4050  1.1368 -0.4471
 3937TIP3   OH236005   7.581   5.197  17.279  0.0364 -0.1194  0.3304
 3937TIP3    H136006   7.541   5.110  17.283  0.0735 -0.2949 -1.8248
 3937TIP3    H236007   7.527   5.245  17.216  2.3400  0.0648 -1.6564
 3938TIP3   OH236008   0.362   5.833  17.453 -0.0658  0.2757 -0.1689
 3938TIP3    H136009   0.419   5.906  17.429  2.6774 -1.3889  0.9309
 3938TIP3    H236010   0.395   5.759  17.402 -1.2314 -0.7791  0.5526
 3939TIP3   OH236011   8.743   3.502  17.643 -0.1719  0.1182  0.8830
 3939TIP3    H136012   8.838   3.506  17.640 -0.2183  0.7173 -1.2280
 3939TIP3    H236013   8.719   3.433  17.581 -1.1244 -0.4488  1.8313
 3940TIP3   OH236014   3.567   5.127  17.176 -0.0321 -1.1515  0.3686
 3940TIP3    H136015   3.645   5.134  17.120  0.0939  1.2271  0.7453
 3940TIP3    H236016   3.575   5.201  17.237 -2.2544 -1.2559  0.8480
 3941TIP3   OH236017   5.963   2.690  17.444  0.4993  0.7628 -0.0202
 3941TIP3    H136018   5.916   2.700  17.527 -0.4385  1.3932 -0.6087
 3941TIP3    H236019   6.048   2.655  17.469 -0.8169 -2.0012  0.9301
 3942TIP3   OH236020   3.200   4.687  15.875 -0.4906  0.0710  0.0650
 3942TIP3    H136021   3.113   4.693  15.914  0.1121  0.8536  1.3599
 3942TIP3    H236022   3.260   4.702  15.948  0.7276 -0.2392 -0.8438
 3943TIP3   OH236023   2.873   3.693  17.444  0.2203  0.1799  0.5097
 3943TIP3    H136024   2.867   3.608  17.486 -0.3655 -0.1257 -0.1662
 3943TIP3    H236025   2.801   3.744  17.482 -0.9182 -0.4076 -0.7712
 3944TIP3   OH236026   8.170   4.514  17.406 -0.3964 -0.1530  0.1933
 3944TIP3    H136027   8.148   4.466  17.486  0.4967  0.1351  0.6114
 3944TIP3    H236028   8.128   4.462  17.336  2.3219 -2.8495  0.3677
 3945TIP3   OH236029   8.998   2.415  16.808 -0.3113 -0.3744  0.4871
 3945TIP3    H136030   8.915   2.369  16.818 -0.2934 -0.5584 -0.1453
 3945TIP3    H236031   8.989   2.463  16.725 -0.6636  1.4762  1.5345
 3946TIP3   OH236032   3.317   1.281  15.632  0.2389 -0.3436 -0.2784
 3946TIP3    H136033   3.327   1.236  15.548 -0.8347  1.4454 -1.4127
 3946TIP3    H236034   3.295   1.211  15.694 -1.3905 -1.4115 -1.9597
 3947TIP3   OH236035   3.950   7.863  17.048  0.0691  0.1336  0.7139
 3947TIP3    H136036   4.043   7.845  17.032 -0.0551 -1.3856  1.5312
 3947TIP3    H236037   3.908   7.846  16.964  0.5089  0.7701  0.3543
 3948TIP3   OH236038   4.272   8.195  16.687  0.0440 -0.1399  0.0348
 3948TIP3    H136039   4.284   8.186  16.782 -1.1976  0.5452  0.2890
 3948TIP3    H236040   4.299   8.285  16.668  1.8878 -0.7724 -0.5812
 3949TIP3   OH236041   0.173   8.567  17.285 -0.1077 -0.3178  0.1196
 3949TIP3    H136042   0.213   8.549  17.200 -0.8183  0.1176 -0.3229
 3949TIP3    H236043   0.214   8.504  17.344  0.2406 -0.7801 -0.5861
 3950TIP3   OH236044   2.385   5.487  17.151  0.1484 -0.2016  0.2182
 3950TIP3    H136045   2.445   5.446  17.089 -0.9302 -0.9827 -0.3563
 3950TIP3    H236046   2.441   5.524  17.219  1.2832 -0.5529 -0.5017
 3951TIP3   OH236047   0.144   7.139  17.376  0.3409  0.5856 -0.6318
 3951TIP3    H136048   0.183   7.052  17.377 -0.4879  0.2060 -0.6756
 3951TIP3    H236049   0.211   7.195  17.337  1.4672  0.2582  0.7421
 3952TIP3   OH236050   6.744   6.742  17.158  0.1315 -0.1592 -0.1385
 3952TIP3    H136051   6.767   6.650  17.142 -0.5359 -0.6385  1.4913
 3952TIP3    H236052   6.815   6.775  17.213  0.1303  0.1823 -0.3357
 3953TIP3   OH236053   0.148   0.116  16.384  0.2688  0.2590  0.1977
 3953TIP3    H136054   0.232   0.091  16.345  0.5634  0.1751  0.8893
 3953TIP3    H236055   0.123   0.041  16.438 -0.2012  0.3298  0.0813
 3954TIP3   OH236056   0.528   1.164  16.028  0.1418 -0.0392  0.1838
 3954TIP3    H136057   0.616   1.136  16.053  1.1539  0.9074 -1.9989
 3954TIP3    H236058   0.539   1.256  16.004 -1.1683 -0.2172 -1.2526
 3955TIP3   OH236059   6.846   0.045  16.405  0.2147 -0.0235 -0.1942
 3955TIP3    H136060   6.836   0.046  16.310  3.4365  0.5384 -0.6488
 3955TIP3    H236061   6.840  -0.048  16.429  0.5318 -0.3049 -1.1442
 3956TIP3   OH236062   5.073   5.086  15.931 -0.0995  0.3836  0.3395
 3956TIP3    H136063   5.080   5.145  15.856 -1.9536 -0.3601 -0.4726
 3956TIP3    H236064   5.030   5.139  15.998 -2.5096 -0.1613 -0.6565
 3957TIP3   OH236065   1.233   2.792  17.936  0.4229 -0.3703 -0.0909
 3957TIP3    H136066   1.206   2.700  17.947  1.5035 -0.6634  0.2479
 3957TIP3    H236067   1.270   2.816  18.021  0.8688  0.1251 -0.4176
 3958TIP3   OH236068   2.814   7.502  16.583 -0.0085 -0.3351 -0.0332
 3958TIP3    H136069   2.879   7.467  16.644 -0.8166 -0.9080  0.5220
 3958TIP3    H236070   2.734   7.451  16.600 -1.2071  1.6654  0.7196
 3959TIP3   OH236071   0.230   6.997  16.930 -0.1909 -0.6251 -0.2670
 3959TIP3    H136072   0.142   6.970  16.903 -0.6138  1.7249 -1.4899
 3959TIP3    H236073   0.229   6.993  17.025 -1.4631 -1.1005 -0.2851
 3960TIP3   OH236074   3.903   2.142  17.828  0.7415 -0.3908 -0.5880
 3960TIP3    H136075   3.850   2.096  17.762  1.8446 -0.6197 -1.3524
 3960TIP3    H236076   3.866   2.230  17.832 -2.3762 -1.6144  1.9633
 3961TIP3   OH236077   8.193   9.082  15.654 -0.2468 -0.6877  0.1608
 3961TIP3    H136078   8.179   9.020  15.726  1.8444  1.6672  2.8670
 3961TIP3    H236079   8.260   9.039  15.599  1.2945 -0.8765  2.0628
 3962TIP3   OH236080   3.208   6.739  17.866 -0.4901  0.2527  0.1533
 3962TIP3    H136081   3.132   6.785  17.902 -0.6835 -0.2369  0.3752
 3962TIP3    H236082   3.199   6.649  17.898  0.0130  0.1169 -0.0818
 3963TIP3   OH236083   0.627   7.648  16.897 -0.1313  0.3978 -0.7634
 3963TIP3    H136084   0.712   7.605  16.892 -0.7365 -0.7609 -1.7045
 3963TIP3    H236085   0.638   7.730  16.849  0.7322  0.7859  0.0750
 3964TIP3   OH236086   2.939   6.662  16.658 -0.4982  0.8318 -0.3544
 3964TIP3    H136087   2.847   6.637  16.665 -0.4468  0.8226  0.3897
 3964TIP3    H236088   2.980   6.591  16.609 -0.7389  0.4529 -0.0133
 3965TIP3   OH236089   8.402   2.029  17.705  0.4881  0.4061  0.2106
 3965TIP3    H136090   8.459   1.993  17.637 -1.1757  0.2168 -1.1562
 3965TIP3    H236091   8.389   1.957  17.766  2.1310  0.6231  0.8522
 3966TIP3   OH236092   2.335   2.133  16.405 -0.5075 -0.1419  0.5843
 3966TIP3    H136093   2.369   2.152  16.493  1.1474  1.4416 -0.3325
 3966TIP3    H236094   2.254   2.184  16.400 -2.9835 -3.4729  2.5669
 3967TIP3   OH236095   7.885   0.262  17.726 -0.4474 -0.5087  0.3169
 3967TIP3    H136096   7.839   0.178  17.729 -0.0013 -0.7708  0.0452
 3967TIP3    H236097   7.978   0.237  17.720 -0.1914  0.0019  1.8616
 3968TIP3   OH236098   5.118   7.314  16.784 -0.3732  0.8293 -0.0956
 3968TIP3    H136099   5.075   7.399  16.786  0.7756  1.4946 -1.6130
 3968TIP3    H236100   5.169   7.311  16.866 -2.9840  0.1093  1.6243
 3969TIP3   OH236101   2.190   4.757  16.919  0.5568  0.1557 -0.3394
 3969TIP3    H136102   2.164   4.746  16.828 -0.3389  1.8664 -0.3149
 3969TIP3    H236103   2.165   4.846  16.942  0.0886 -0.4489  1.8052
 3970TIP3   OH236104   5.891   5.759  15.588 -0.1466  0.0032  0.6966
 3970TIP3    H136105   5.850   5.819  15.525 -0.7572 -1.6535 -0.5814
 3970TIP3    H236106   5.819   5.732  15.645 -0.0322 -0.0572  0.8121
 3971TIP3   OH236107   3.314   4.690  17.715  0.2961  0.1620 -0.2678
 3971TIP3    H136108   3.239   4.733  17.758 -0.7727 -0.2338 -1.6482
 3971TIP3    H236109   3.296   4.597  17.722  2.3849 -0.1428  2.3171
 3972TIP3   OH236110   2.994   6.761  15.989 -0.1721  0.4029 -0.1666
 3972TIP3    H136111   2.901   6.761  15.969 -0.1815  1.1693 -0.1384
 3972TIP3    H236112   3.025   6.847  15.962 -0.1172  1.4098  2.7430
 3973TIP3   OH236113   7.865   7.817  17.314  0.2810  0.0465 -0.2679
 3973TIP3    H136114   7.881   7.909  17.296 -3.4264  0.8471 -0.1942
 3973TIP3    H236115   7.824   7.783  17.235  0.3699 -1.2112  0.1880
 3974TIP3   OH236116   4.903   5.474  17.098 -0.0186  0.2985  0.2127
 3974TIP3    H136117   4.984   5.422  17.098  1.2163  1.9718  3.3231
 3974TIP3    H236118   4.834   5.410  17.114  0.6211 -1.1107 -2.0768
 3975TIP3   OH236119   0.537   4.657  17.117 -0.0276 -0.1181  0.1194
 3975TIP3    H136120   0.621   4.635  17.157 -0.2428 -0.2446  0.5074
 3975TIP3    H236121   0.484   4.690  17.190 -0.8259 -1.4646  0.1725
 3976TIP3   OH236122   9.205   5.156  17.212  0.3392 -0.3413 -0.2344
 3976TIP3    H136123   9.122   5.203  17.214  0.8687  0.6269 -0.5065
 3976TIP3    H236124   9.267   5.213  17.258  0.5951 -1.6051  1.0482
 3977TIP3   OH236125   7.041   6.030  16.938  0.3525  0.1691  0.0155
 3977TIP3    H136126   7.106   5.966  16.907  0.0088  0.0505 -0.4691
 3977TIP3    H236127   7.053   6.105  16.880 -0.0026  0.1122 -0.1326
 3978TIP3   OH236128   8.332   3.688  17.737  0.8706 -0.1925  0.2662
 3978TIP3    H136129   8.242   3.715  17.753  0.1647 -2.0075 -0.4514
 3978TIP3    H236130   8.348   3.618  17.800  1.4440 -0.5498 -0.2674
 3979TIP3   OH236131   8.099   5.065  17.274  0.0829 -0.2521  0.0603
 3979TIP3    H136132   8.030   5.092  17.335  0.5502 -0.5141  0.7208
 3979TIP3    H236133   8.137   4.987  17.313  1.2445  0.3036  0.0992
 3980TIP3   OH236134   0.755   1.754  17.716  0.7707 -0.4114  0.1602
 3980TIP3    H136135   0.675   1.708  17.741  0.3832  0.5255  0.6778
 3980TIP3    H236136   0.727   1.819  17.652  0.8996  0.7235  1.2162
 3981TIP3   OH236137   5.142   4.573  16.021 -0.1149 -0.1338  0.3601
 3981TIP3    H136138   5.109   4.642  15.963  0.2681 -1.7421 -1.8895
 3981TIP3    H236139   5.237   4.582  16.019 -0.1125  1.1130  2.5416
 3982TIP3   OH236140   7.046   8.967  16.658 -0.7611 -0.5779  0.0330
 3982TIP3    H136141   7.067   8.873  16.659  0.9938 -0.2109  0.5895
 3982TIP3    H236142   7.109   9.006  16.718 -1.7446  0.9186  0.1183
 3983TIP3   OH236143   7.281   8.170  17.038  0.1957  0.6148  0.3081
 3983TIP3    H136144   7.240   8.256  17.044 -1.1827  0.2891 -2.7207
 3983TIP3    H236145   7.209   8.110  17.020  1.1418 -1.2361  2.2581
 3984TIP3   OH236146   0.985   8.180  17.184  0.2335  0.0023 -0.2450
 3984TIP3    H136147   1.074   8.210  17.201 -0.0840  1.2842 -0.7296
 3984TIP3    H236148   0.984   8.156  17.091  0.7787 -2.7161  0.3617
 3985TIP3   OH236149   2.593   4.936  15.795  0.4123 -1.1167 -0.1891
 3985TIP3    H136150   2.687   4.949  15.798  0.2965  0.2277 -1.3154
 3985TIP3    H236151   2.570   4.902  15.881  1.6490  0.5868  0.8571
 3986TIP3   OH236152   6.058   7.224  16.406 -0.2255  0.1191 -0.2405
 3986TIP3    H136153   5.989   7.218  16.473  0.3847 -0.2219  0.3698
 3986TIP3    H236154   6.135   7.255  16.454  0.8590 -2.2999 -0.2707
 3987TIP3   OH236155   8.435   4.598  17.434 -0.0497 -0.3955 -0.0335
 3987TIP3    H136156   8.340   4.590  17.428 -0.0212 -1.1277  0.3466
 3987TIP3    H236157   8.457   4.668  17.373 -0.7916 -0.5019 -0.4359
 3988TIP3   OH236158   0.412   5.867  17.971  0.1878  0.1713 -0.1118
 3988TIP3    H136159   0.320   5.870  17.946  0.3244 -1.0037 -0.8391
 3988TIP3    H236160   0.449   5.794  17.920  1.4152  0.3327  0.4951
 3989TIP3   OH236161   3.420   5.022  15.751  0.2907  0.1007  0.7286
 3989TIP3    H136162   3.439   5.090  15.816  3.6632  0.1836 -0.1702
 3989TIP3    H236163   3.431   4.940  15.798  0.3730  0.1679  0.8286
 3990TIP3   OH236164   1.774   1.525  15.964  0.4198 -0.1752 -0.3627
 3990TIP3    H136165   1.852   1.536  16.018  2.3228  0.4212 -3.0028
 3990TIP3    H236166   1.756   1.613  15.931 -1.3830 -0.3176  0.1353
 3991TIP3   OH236167   1.849   5.744  16.608  0.3627 -0.2146  0.6280
 3991TIP3    H136168   1.772   5.688  16.607 -1.2758  1.9093 -0.5733
 3991TIP3    H236169   1.845   5.791  16.691 -1.2761  1.8795 -0.5358
 3992TIP3   OH236170   5.642   7.379  16.888 -0.3109 -0.4590  0.0170
 3992TIP3    H136171   5.567   7.437  16.878  0.4372  0.6243  0.5610
 3992TIP3    H236172   5.664   7.352  16.799 -2.3923 -2.1995 -0.0578
 3993TIP3   OH236173   4.187   4.476  16.801  0.3540  0.2730  0.0007
 3993TIP3    H136174   4.273   4.439  16.819  0.7605  1.0064 -0.3897
 3993TIP3    H236175   4.149   4.420  16.734  0.1827 -0.5318  0.7541
 3994TIP3   OH236176   1.019   8.687  16.439 -0.2815  0.1244 -0.3216
 3994TIP3    H136177   0.986   8.658  16.353 -0.4377  0.5848 -0.4191
 3994TIP3    H236178   0.944   8.676  16.498 -0.4043  0.5160 -0.4015
 3995TIP3   OH236179   4.332   4.998  17.311  0.0448  0.8774  0.4190
 3995TIP3    H136180   4.368   5.008  17.223  1.6777 -1.0371  0.8025
 3995TIP3    H236181   4.284   5.079  17.326  0.3268  1.5700 -1.9393
 3996TIP3   OH236182   6.642   3.819  17.084  0.1261 -0.0878  0.4675
 3996TIP3    H136183   6.645   3.901  17.035 -1.7103  0.3263  0.9836
 3996TIP3    H236184   6.687   3.838  17.166 -0.4252  0.4590  0.6476
 3997TIP3   OH236185   4.696   0.182  17.599  0.4771 -0.9837 -0.1756
 3997TIP3    H136186   4.622   0.227  17.639  1.3834  0.1108  0.3460
 3997TIP3    H236187   4.664   0.153  17.513  0.0498  1.3428 -0.8656
 3998TIP3   OH236188   4.485   6.720  16.938  0.1316  0.1102  0.4895
 3998TIP3    H136189   4.473   6.713  16.843  0.0813  0.3664  0.4787
 3998TIP3    H236190   4.522   6.635  16.963  0.7193  0.2615  0.1549
 3999TIP3   OH236191   4.817   5.983  16.648  0.0720  0.0325  0.2927
 3999TIP3    H136192   4.777   5.981  16.735 -0.0200  1.9288  0.3305
 3999TIP3    H236193   4.743   5.997  16.588  0.2072 -0.6492 -0.0380
 4000TIP3   OH236194   0.761   2.158  17.097  0.5560 -0.1229 -0.7703
 4000TIP3    H136195   0.727   2.122  17.015 -0.3438 -0.4497 -0.2635
 4000TIP3    H236196   0.816   2.231  17.069 -0.2041  0.1448 -1.6450
 4001TIP3   OH236197   5.237   7.770  17.330  0.0507  0.2380  0.8857
 4001TIP3    H136198   5.266   7.726  17.410  0.5080  0.4298  0.8262
 4001TIP3    H236199   5.159   7.819  17.357 -0.8624 -1.1158  0.8048
 4002TIP3   OH236200   1.893   3.639  17.213 -0.5274  0.1613 -0.0809
 4002TIP3    H136201   1.894   3.544  17.229 -3.2622 -0.0707 -0.8220
 4002TIP3    H236202   1.920   3.648  17.121  0.3636  0.1664  0.1780
 4003TIP3   OH236203   6.753   4.867  16.331 -0.9395 -0.2020 -0.2562
 4003TIP3    H136204   6.762   4.950  16.284 -0.4118 -0.4846 -0.6719
 4003TIP3    H236205   6.843   4.841  16.350 -0.8535 -2.2228 -2.8765
 4004TIP3   OH236206   8.582   1.338  16.897 -0.1137 -0.2065  0.5301
 4004TIP3    H136207   8.632   1.293  16.829 -0.2509 -0.0951  0.3564
 4004TIP3    H236208   8.492   1.309  16.885  0.0030 -0.9265  1.2657
 4005TIP3   OH236209   8.246   3.212  16.962 -0.1119  0.5826 -0.0133
 4005TIP3    H136210   8.160   3.193  16.923  0.3248 -1.2620 -0.1903
 4005TIP3    H236211   8.228   3.229  17.054 -0.6926  0.2687 -0.0620
 4006TIP3   OH236212   7.723   4.681  16.784 -0.4672 -0.6708 -0.2988
 4006TIP3    H136213   7.660   4.653  16.718 -0.4132 -0.7029 -0.3370
 4006TIP3    H236214   7.772   4.752  16.742 -1.2054  0.0993  0.1054
 4007TIP3   OH236215   6.886   7.706  17.568 -0.3549  0.5527  0.1974
 4007TIP3    H136216   6.948   7.642  17.533 -2.2595 -1.3282  0.1350
 4007TIP3    H236217   6.800   7.669  17.552 -1.4758  1.9166  2.5082
 4008TIP3   OH236218   1.888   3.310  16.613  0.2202  0.2104 -0.2917
 4008TIP3    H136219   1.817   3.313  16.548  0.1535 -0.1519 -0.2377
 4008TIP3    H236220   1.849   3.347  16.692 -0.3849 -1.2941  0.1688
 4009TIP3   OH236221   0.008   4.875  16.460 -0.0288 -0.2964 -0.2753
 4009TIP3    H136222   0.066   4.802  16.440 -1.2670 -0.6283 -3.0784
 4009TIP3    H236223   0.038   4.946  16.402 -1.2132  0.1516 -0.3702
 4010TIP3   OH236224   5.016   4.119  17.155 -0.1123  0.1848 -0.0241
 4010TIP3    H136225   4.946   4.078  17.104  0.4385 -1.6680  0.6032
 4010TIP3    H236226   5.010   4.078  17.241  1.4031  0.3567  0.1921
 4011TIP3   OH236227   3.935   3.550  16.946  0.4974  0.0451 -0.6000
 4011TIP3    H136228   3.884   3.625  16.913  1.1771  1.2963  1.0533
 4011TIP3    H236229   4.000   3.535  16.877 -0.4220  0.1498 -1.5251
 4012TIP3   OH236230   8.232   6.350  16.355  0.2381  0.1298  0.1795
 4012TIP3    H136231   8.164   6.402  16.312  2.1374  2.3942 -0.3166
 4012TIP3    H236232   8.232   6.266  16.309 -1.4492  0.4957 -0.5308
 4013TIP3   OH236233   1.205   3.465  16.935  0.5757 -0.2171  0.5342
 4013TIP3    H136234   1.267   3.536  16.953  0.4282 -0.0473  0.3835
 4013TIP3    H236235   1.153   3.498  16.861  0.3127 -0.3630  0.6564
 4014TIP3   OH236236   0.950   8.567  15.894  1.0986  0.1985  0.0332
 4014TIP3    H136237   0.875   8.603  15.941  1.2465  1.2581 -0.5124
 4014TIP3    H236238   0.930   8.474  15.884  0.4027  0.2429  0.9121
 4015TIP3   OH236239   5.661   2.434  17.092  0.6320 -0.4759  0.1873
 4015TIP3    H136240   5.666   2.461  17.000 -2.5884 -1.2110 -0.3080
 4015TIP3    H236241   5.724   2.491  17.137 -2.8175  5.3361 -1.3190
 4016TIP3   OH236242   6.155   1.173  17.775 -0.5053  0.0579  0.0638
 4016TIP3    H136243   6.128   1.112  17.843 -0.6133 -0.8959 -0.8229
 4016TIP3    H236244   6.251   1.172  17.779 -0.4781  1.8119  1.7532
 4017TIP3   OH236245   2.770   5.965  17.359 -0.2846  0.4004  0.0070
 4017TIP3    H136246   2.773   6.055  17.326 -0.5382  1.3493  2.3260
 4017TIP3    H236247   2.860   5.933  17.349  0.5798  2.0221  1.7858
 4018TIP3   OH236248   8.203   2.637  16.695 -0.1865  0.6502 -0.2169
 4018TIP3    H136249   8.188   2.721  16.651  1.8964  0.6432 -1.0409
 4018TIP3    H236250   8.282   2.602  16.654 -0.5216 -1.3304  0.7080
 4019TIP3   OH236251   3.350   2.515  16.031 -0.2754 -0.0865  0.3914
 4019TIP3    H136252   3.386   2.491  16.116  0.2707  1.5156  0.6458
 4019TIP3    H236253   3.427   2.520  15.973 -0.2329  1.7657  0.5515
 4020TIP3   OH236254   4.582   2.919  17.712  0.4897 -0.0951  0.5349
 4020TIP3    H136255   4.488   2.905  17.700  0.6513 -0.0176 -1.0520
 4020TIP3    H236256   4.588   3.009  17.744  0.0960  0.7482 -1.5785
 4021TIP3   OH236257   3.949   7.291  17.294 -0.4032 -0.1374  0.3029
 4021TIP3    H136258   3.933   7.323  17.205 -0.6109  1.4622  0.8767
 4021TIP3    H236259   3.969   7.198  17.283 -1.1209 -0.1313 -1.3375
 4022TIP3   OH236260   1.016   8.751  17.581 -0.2050 -0.1790 -0.0818
 4022TIP3    H136261   0.981   8.671  17.542 -0.9215  0.8198 -1.5646
 4022TIP3    H236262   1.063   8.795  17.510 -0.3317  1.0066  0.5383
 4023TIP3   OH236263   5.193   7.591  16.625  0.3530  0.2623 -0.2134
 4023TIP3    H136264   5.164   7.519  16.568  0.1747  1.0603 -1.1455
 4023TIP3    H236265   5.116   7.610  16.680  0.0089  0.5220 -0.7755
 4024TIP3   OH236266   7.752   7.036  16.900  0.1329 -0.6371 -0.0334
 4024TIP3    H136267   7.706   6.953  16.885 -0.3866 -0.7906  2.0855
 4024TIP3    H236268   7.819   7.015  16.965  0.7852  0.3662 -0.3521
 4025TIP3   OH236269   9.035   4.865  17.005 -0.6849 -0.0889  0.0640
 4025TIP3    H136270   9.015   4.918  17.083 -1.1863  0.2776 -0.3106
 4025TIP3    H236271   9.019   4.775  17.033 -0.0572 -0.0326  0.6368
 4026TIP3   OH236272   4.193   7.332  16.396 -0.4047  0.2233 -0.1318
 4026TIP3    H136273   4.142   7.263  16.436  0.8769 -2.0507 -2.1438
 4026TIP3    H236274   4.141   7.412  16.409 -3.0204 -1.4577  0.3743
 4027TIP3   OH236275   9.145   2.693  16.156  0.0405 -0.2212  0.3738
 4027TIP3    H136276   9.151   2.766  16.096  0.2768  0.6947  1.4753
 4027TIP3    H236277   9.217   2.634  16.130  0.7202  0.6096  0.3336
 4028TIP3   OH236278   0.144   6.602  17.417  0.2659 -0.4421 -0.5094
 4028TIP3    H136279   0.132   6.567  17.505 -1.3663  1.6959  0.1932
 4028TIP3    H236280   0.059   6.591  17.374  0.3212  0.7182 -0.9584
 4029TIP3   OH236281   3.440   3.640  15.688 -0.1611 -0.4197 -0.5640
 4029TIP3    H136282   3.390   3.572  15.733 -0.1735 -0.5268 -0.7401
 4029TIP3    H236283   3.520   3.596  15.660  0.2392 -0.1373  0.1137
 4030TIP3   OH236284   8.747   7.275  16.934 -0.7591 -0.1029  0.1193
 4030TIP3    H136285   8.772   7.303  17.022 -0.2717 -0.8498  0.2331
 4030TIP3    H236286   8.823   7.295  16.880 -0.5524 -0.8092  0.1292
 4031TIP3   OH236287   8.775   5.544  16.404 -0.1823 -0.4229 -0.0973
 4031TIP3    H136288   8.713   5.568  16.335 -0.6819  0.3075  0.5793
 4031TIP3    H236289   8.753   5.603  16.476  0.3750 -1.1242  0.6564
 4032TIP3   OH236290   6.864   4.145  17.495  0.2607 -0.2103 -0.5462
 4032TIP3    H136291   6.847   4.089  17.571  1.3429  0.2500  0.0456
 4032TIP3    H236292   6.934   4.101  17.448 -0.7667 -0.7792 -1.6075
 4033TIP3   OH236293   7.086   0.186  16.262 -0.0764 -0.3119 -0.4007
 4033TIP3    H136294   7.150   0.188  16.190  0.0940  0.4715 -0.2333
 4033TIP3    H236295   7.129   0.134  16.330 -0.5702 -1.7832 -1.1486
 4034TIP3   OH236296   2.824   6.299  17.310 -0.1126  0.7197  0.1098
 4034TIP3    H136297   2.786   6.276  17.225  0.7658 -2.0400  0.3683
 4034TIP3    H236298   2.749   6.305  17.369 -0.6987  2.3015 -0.7377
 4035TIP3   OH236299   4.705   6.488  16.136 -0.2246  0.4251  0.4958
 4035TIP3    H136300   4.730   6.557  16.075  0.5200  1.0682  1.4969
 4035TIP3    H236301   4.772   6.421  16.125  0.0706  0.6666  0.7964
 4036TIP3   OH236302   7.157   8.637  16.391 -0.5726 -0.2834 -0.2619
 4036TIP3    H136303   7.123   8.643  16.301  2.2076  1.3554 -1.3635
 4036TIP3    H236304   7.242   8.593  16.381 -0.1136  0.1323  1.5266
 4037TIP3   OH236305   8.128   8.088  16.463  0.0067  0.4323 -0.2954
 4037TIP3    H136306   8.193   8.155  16.486  1.7542 -0.8122 -1.3667
 4037TIP3    H236307   8.171   8.005  16.481 -1.7133 -0.4546 -0.0363
 4038TIP3   OH236308   6.702   4.538  17.022  0.2878  0.4970  0.1432
 4038TIP3    H136309   6.666   4.562  17.108  2.6613 -0.4753  1.5168
 4038TIP3    H236310   6.681   4.445  17.014 -0.3092  0.6859 -0.5701
 4039TIP3   OH236311   1.429   2.090  16.188  0.5203  0.4472 -0.0141
 4039TIP3    H136312   1.493   2.026  16.216  0.5879  0.1296 -0.8609
 4039TIP3    H236313   1.480   2.159  16.145  0.3730  0.6111  0.0712
 4040TIP3   OH236314   3.703   8.727  17.815  0.5001 -0.3448  0.1535
 4040TIP3    H136315   3.691   8.812  17.858  1.6017 -0.0175 -0.1277
 4040TIP3    H236316   3.615   8.697  17.795  0.0275  2.6920 -3.5377
 4041TIP3   OH236317   6.917   6.088  17.804 -0.2821  0.5157  0.1303
 4041TIP3    H136318   6.932   6.139  17.884  2.9355 -1.2211  0.8073
 4041TIP3    H236319   6.950   6.144  17.734 -0.4404  0.9401  0.3930
 4042TIP3   OH236320   6.130   3.955  16.414 -0.1390  0.4129 -0.1834
 4042TIP3    H136321   6.187   3.902  16.359  0.4045  0.0370  0.7172
 4042TIP3    H236322   6.147   4.045  16.387  0.3017  0.2494 -0.4589
 4043TIP3   OH236323   6.815   3.697  16.472  0.1643  0.4733  0.4937
 4043TIP3    H136324   6.910   3.711  16.472  0.3072 -0.3179 -0.3865
 4043TIP3    H236325   6.805   3.602  16.479 -0.5905  0.6018  1.3344
 4044TIP3   OH236326   7.861   7.506  16.126 -0.1533 -0.4438 -0.3118
 4044TIP3    H136327   7.825   7.422  16.155 -0.5253  0.2829  1.4552
 4044TIP3    H236328   7.784   7.559  16.104 -0.0049 -0.0094  0.1978
 4045TIP3   OH236329   6.357   4.445  16.355 -0.0954  0.3762  0.4361
 4045TIP3    H136330   6.332   4.513  16.292 -0.3469  0.3586  0.5146
 4045TIP3    H236331   6.452   4.449  16.358  0.0065 -0.5029 -0.9136
 4046TIP3   OH236332   1.637   8.829  16.681  0.3749 -0.3487 -0.0062
 4046TIP3    H136333   1.609   8.880  16.756 -0.1948 -2.3765  1.2168
 4046TIP3    H236334   1.696   8.887  16.633  1.2094  0.8105  2.3026
 4047TIP3   OH236335   4.464   8.543  17.613 -0.5407  0.3210 -0.0632
 4047TIP3    H136336   4.399   8.477  17.587 -0.3185  0.1356 -0.1531
 4047TIP3    H236337   4.412   8.614  17.651 -0.7263 -0.3447  0.9920
 4048TIP3   OH236338   5.190   8.408  17.484 -0.1640 -0.3280 -0.2340
 4048TIP3    H136339   5.181   8.482  17.424 -1.0565  0.5252  0.9146
 4048TIP3    H236340   5.114   8.414  17.542  0.8810 -0.8544  1.2654
 4049TIP3   OH236341   6.806   1.282  16.663  0.0741  0.2256  0.2667
 4049TIP3    H136342   6.897   1.284  16.693  0.3754 -1.3855 -0.4811
 4049TIP3    H236343   6.756   1.267  16.743  0.6560 -1.0934  0.4170
 4050TIP3   OH236344   9.156   7.676  15.980 -0.8055 -0.6071 -0.1396
 4050TIP3    H136345   9.099   7.662  15.904  0.6012  1.9345 -1.8168
 4050TIP3    H236346   9.161   7.771  15.989  2.7214 -0.6800  0.1656
 4051TIP3   OH236347   3.889   3.676  17.265 -0.5800 -0.6260 -0.0818
 4051TIP3    H136348   3.890   3.770  17.246 -0.9199 -0.8123 -1.0953
 4051TIP3    H236349   3.869   3.670  17.358  0.1919  0.3260  0.1588
 4052TIP3   OH236350   6.960   2.559  16.721  0.4945  0.0203  0.7142
 4052TIP3    H136351   6.972   2.602  16.805  0.2288  0.8929  0.3155
 4052TIP3    H236352   7.031   2.593  16.666  0.2067  0.0626  0.3577
 4053TIP3   OH236353   6.914   5.670  16.580  0.7643 -0.0236  0.4316
 4053TIP3    H136354   6.874   5.699  16.498  0.3296 -1.7250 -0.0066
 4053TIP3    H236355   6.843   5.625  16.626  1.5150 -0.8363  0.8193
 4054TIP3   OH236356   9.035   8.083  15.594 -0.2245 -0.7371 -0.0861
 4054TIP3    H136357   9.078   8.157  15.637 -1.5380 -1.1347  2.0823
 4054TIP3    H236358   9.090   8.008  15.615 -0.0089 -0.6957 -0.4962
 4055TIP3   OH236359   3.248   1.083  15.781 -0.4597 -0.3408  0.0387
 4055TIP3    H136360   3.210   1.009  15.735 -1.8622  0.1487  0.3723
 4055TIP3    H236361   3.314   1.044  15.839 -0.7072 -1.2428 -0.2736
 4056TIP3   OH236362   1.783   7.165  16.511  0.4797  0.4113 -0.1373
 4056TIP3    H136363   1.763   7.083  16.467  0.4417  0.2874  0.1081
 4056TIP3    H236364   1.781   7.231  16.442  1.2269  0.0985 -0.4634
 4057TIP3   OH236365   5.192   3.431  17.077 -1.2588  0.1939 -0.1957
 4057TIP3    H136366   5.211   3.497  17.143  1.3326  0.0549 -0.6859
 4057TIP3    H236367   5.263   3.367  17.086 -2.1687 -1.0730 -1.5431
 4058TIP3   OH236368   0.473   7.490  16.708 -0.1449 -0.0855  0.1298
 4058TIP3    H136369   0.524   7.509  16.630  1.4341 -1.2710  0.8269
 4058TIP3    H236370   0.501   7.556  16.772  1.1094 -1.1528  0.7344
 4059TIP3   OH236371   7.684   8.402  16.384  0.3239  0.5295 -0.3946
 4059TIP3    H136372   7.744   8.471  16.358  0.3650  1.1276  1.2135
 4059TIP3    H236373   7.642   8.375  16.302  1.1840  1.6058 -1.2161
 4060TIP3   OH236374   8.003   1.922  16.870  0.0971  0.3550 -0.0588
 4060TIP3    H136375   7.972   1.860  16.804  1.3385 -0.9107  0.4949
 4060TIP3    H236376   7.951   1.901  16.948  0.6923 -0.1898  0.2015
 4061TIP3   OH236377   2.218   8.642  16.473 -0.1538 -0.3342 -0.1900
 4061TIP3    H136378   2.162   8.613  16.546  1.0292  0.3607  1.0362
 4061TIP3    H236379   2.185   8.729  16.451  1.2089  0.6470  1.4254
 4062TIP3   OH236380   8.724   2.837  15.993 -0.3675  0.2804  0.1439
 4062TIP3    H136381   8.773   2.804  16.068  0.5517  1.8855  0.2987
 4062TIP3    H236382   8.643   2.871  16.030  0.3625  1.6597  0.5434
 4063TIP3   OH236383   0.979   2.500  17.806 -0.2342 -0.1989 -1.0544
 4063TIP3    H136384   0.941   2.424  17.762 -1.0393  0.7867 -2.1477
 4063TIP3    H236385   0.916   2.571  17.790 -0.8063  0.1740  2.0553
 4064TIP3   OH236386   6.067   4.395  17.359  0.4647  0.2016 -0.0826
 4064TIP3    H136387   6.025   4.465  17.409  2.8190  1.9263 -0.2995
 4064TIP3    H236388   5.995   4.346  17.320 -1.3642  0.6417  2.4856
 4065TIP3   OH236389   3.961   5.645  17.127 -0.3494  0.4374  0.3037
 4065TIP3    H136390   3.930   5.734  17.139  2.2296  1.4165  0.4433
 4065TIP3    H236391   3.898   5.605  17.067 -1.9842  2.0721  0.8434
 4066TIP3   OH236392   9.078   7.984  17.518  0.3216  0.7802 -0.0896
 4066TIP3    H136393   9.048   7.895  17.533 -0.1983  1.1325  1.0710
 4066TIP3    H236394   9.169   7.974  17.491 -0.1389 -0.1646 -1.3625
 4067TIP3   OH236395   8.456   5.799  17.390 -0.0666  0.2242  0.2521
 4067TIP3    H136396   8.450   5.894  17.396  2.1385  0.4461 -0.2802
 4067TIP3    H236397   8.519   5.774  17.458  0.3534 -0.7057 -0.4553
 4068TIP3   OH236398   0.550   6.857  15.804 -0.2406  0.0491  0.0136
 4068TIP3    H136399   0.623   6.798  15.786 -0.9332 -0.8694  0.1229
 4068TIP3    H236400   0.572   6.937  15.756 -0.6570 -1.3175 -2.6553
 4069TIP3   OH236401   7.585   0.648  16.294 -0.4744 -0.4130 -0.6182
 4069TIP3    H136402   7.641   0.618  16.366 -2.0933 -0.3929  0.7115
 4069TIP3    H236403   7.555   0.567  16.252 -0.6027 -0.4796 -0.4014
 4070TIP3   OH236404   2.001   4.265  17.098 -0.5244  0.4350  0.1378
 4070TIP3    H136405   2.087   4.257  17.140  0.5023  2.5808 -1.3482
 4070TIP3    H236406   1.948   4.196  17.138  1.2140  0.4570  2.7398
 4071TIP3   OH236407   2.075   8.532  16.226 -0.2118  0.3159  0.1622
 4071TIP3    H136408   2.125   8.524  16.307 -0.7557 -1.3693  0.3633
 4071TIP3    H236409   2.103   8.459  16.172 -0.2847  1.0861 -0.9516
 4072TIP3   OH236410   0.172   6.455  16.162 -0.1136 -0.5942 -0.5003
 4072TIP3    H136411   0.164   6.503  16.080 -0.2094 -1.1017 -0.7873
 4072TIP3    H236412   0.261   6.420  16.161  0.3058  0.4080  0.1698
 4073TIP3   OH236413   2.872   8.340  17.108  0.3207  0.0534 -0.6103
 4073TIP3    H136414   2.858   8.262  17.054 -0.1937  0.3914 -0.9757
 4073TIP3    H236415   2.785   8.378  17.119  0.1310 -0.9317  1.9249
 4074TIP3   OH236416   0.513   1.403  16.290  0.5332 -0.0023 -0.7439
 4074TIP3    H136417   0.447   1.471  16.298  0.3963 -0.1715 -0.4175
 4074TIP3    H236418   0.538   1.404  16.198 -0.2332 -0.2301 -0.9640
 4075TIP3   OH236419   0.483   1.369  16.874  0.2676 -0.4257  0.2679
 4075TIP3    H136420   0.566   1.407  16.845  0.0319  0.1195  0.3042
 4075TIP3    H236421   0.497   1.348  16.966 -0.3463  1.7494  0.9172
 4076TIP3   OH236422   3.363   1.972  16.574  0.3507 -0.0116 -0.4974
 4076TIP3    H136423   3.333   1.887  16.541  0.6784 -0.7198  0.9429
 4076TIP3    H236424   3.359   1.963  16.669  0.3718  1.6090 -0.3207
 4077TIP3   OH236425   3.679   5.324  17.361  0.7350  0.0589  0.1751
 4077TIP3    H136426   3.750   5.305  17.422 -0.5330 -2.2351  1.0837
 4077TIP3    H236427   3.697   5.412  17.328  4.1390 -0.5489  0.1041
 4078TIP3   OH236428   2.945   3.786  16.667 -0.1284 -0.6547  0.2689
 4078TIP3    H136429   2.906   3.699  16.679  0.0568 -0.6143  1.2477
 4078TIP3    H236430   3.035   3.777  16.698 -0.3344  0.0678  1.1185
 4079TIP3   OH236431   4.264   1.883  16.918  0.3979 -0.2615  0.1710
 4079TIP3    H136432   4.333   1.854  16.858  0.1360  0.8162 -0.6843
 4079TIP3    H236433   4.283   1.976  16.933 -1.4129  0.3312 -0.8875
 4080TIP3   OH236434   9.214   3.766  16.762  0.1738  0.5575  0.5033
 4080TIP3    H136435   9.263   3.798  16.686  1.1650  0.6406  1.1544
 4080TIP3    H236436   9.277   3.769  16.834 -0.5383 -0.1985  1.1798
 4081TIP3   OH236437   8.709   0.963  16.816  0.1669 -0.2519 -0.2843
 4081TIP3    H136438   8.750   0.877  16.826 -1.9554 -1.2383  0.8711
 4081TIP3    H236439   8.761   1.021  16.871  0.3110 -1.3538  0.7991
 4082TIP3   OH236440   2.035   7.271  17.597 -0.6176 -0.1974 -0.2346
 4082TIP3    H136441   2.105   7.229  17.547 -0.1222 -0.6140  0.7562
 4082TIP3    H236442   1.962   7.210  17.592  0.0029 -1.0966  0.9503
 4083TIP3   OH236443   0.959   6.997  15.838  0.1978 -0.2203  0.3623
 4083TIP3    H136444   1.000   7.065  15.893 -0.7142 -0.7681  1.7640
 4083TIP3    H236445   0.904   7.046  15.777 -1.3808  0.3300  2.1246
 4084TIP3   OH236446   7.082   3.702  16.520  0.0403 -0.0384  0.1632
 4084TIP3    H136447   7.159   3.730  16.471 -1.3281 -0.8086 -2.6549
 4084TIP3    H236448   7.112   3.627  16.572  1.2580 -0.1016 -0.6146
 4085TIP3   OH236449   0.021   8.739  15.501 -0.2949  0.1368  0.0001
 4085TIP3    H136450  -0.006   8.830  15.512 -0.0160  0.0279  1.8560
 4085TIP3    H236451   0.117   8.743  15.498 -0.3128  0.0082 -1.2404
 4086TIP3   OH236452   5.218   6.014  16.288  0.0304  0.6134  0.1469
 4086TIP3    H136453   5.285   6.079  16.308  1.3284 -1.1234  1.7941
 4086TIP3    H236454   5.259   5.954  16.227  0.2351 -0.7758  1.5895
 4087TIP3   OH236455   3.182   7.608  16.418 -0.2379  0.5291  0.3197
 4087TIP3    H136456   3.091   7.579  16.408  0.4447 -1.4575 -0.8568
 4087TIP3    H236457   3.223   7.540  16.472  1.2780 -0.4885 -1.9323
 4088TIP3   OH236458   2.180   4.052  16.837  0.3209 -0.0250 -0.3779
 4088TIP3    H136459   2.254   4.111  16.822  1.1887 -1.4031 -1.8608
 4088TIP3    H236460   2.196   3.979  16.778 -1.2406 -1.2851  0.6861
 4089TIP3   OH236461   2.370   8.307  16.596  0.4623 -0.8569 -0.4232
 4089TIP3    H136462   2.380   8.341  16.507  1.5706 -1.7929 -0.6841
 4089TIP3    H236463   2.309   8.367  16.638  0.5037  0.0369 -1.5888
 4090TIP3   OH236464   6.317   0.573  16.139 -0.6200  0.1792 -0.3280
 4090TIP3    H136465   6.364   0.588  16.222 -0.4589 -0.4734 -0.2960
 4090TIP3    H236466   6.359   0.495  16.102 -1.9641 -0.6728 -0.0917
 4091TIP3   OH236467   7.069   3.948  16.653 -0.0797 -0.0602 -0.7049
 4091TIP3    H136468   7.110   3.973  16.570 -2.2423  0.2750 -1.7549
 4091TIP3    H236469   7.042   3.857  16.641  0.6699 -0.3992  0.1052
 4092TIP3   OH236470   6.075   8.235  17.975  0.4879  0.2866  0.1923
 4092TIP3    H136471   6.163   8.254  17.943 -0.6223  2.5923 -1.8085
 4092TIP3    H236472   6.028   8.318  17.968 -1.8937 -0.8718  1.0997
 4093TIP3   OH236473   3.491   2.728  17.387  0.3886 -0.2289 -0.2124
 4093TIP3    H136474   3.543   2.808  17.398  1.0281 -0.7374  0.6419
 4093TIP3    H236475   3.457   2.710  17.475 -0.9424 -0.1072 -0.6962
 4094TIP3   OH236476   0.683   3.256  17.070  0.2993 -0.7080 -0.4271
 4094TIP3    H136477   0.652   3.191  17.133  0.7319 -0.6001 -0.0932
 4094TIP3    H236478   0.769   3.223  17.043  1.1184  0.3745  0.7418
 4095TIP3   OH236479   6.435   7.250  16.815  0.1419  0.8638 -0.1390
 4095TIP3    H136480   6.527   7.257  16.790 -0.2708  0.3811 -1.9771
 4095TIP3    H236481   6.410   7.161  16.792 -0.3569  0.3878  2.0358
 4096TIP3   OH236482   0.351   3.553  16.307  0.3984  0.3014  0.3133
 4096TIP3    H136483   0.407   3.482  16.276  0.2104  0.7716 -1.2077
 4096TIP3    H236484   0.402   3.633  16.291 -0.0539  0.6169  0.4136
 4097TIP3   OH236485   1.562   8.941  17.650 -0.8170 -0.0312  0.1043
 4097TIP3    H136486   1.562   8.930  17.555 -1.0098  0.2634  0.0683
 4097TIP3    H236487   1.526   8.859  17.684 -2.0568  0.3925 -0.1404
 4098TIP3   OH236488   7.575   7.875  16.927 -0.1815  0.1904 -0.0414
 4098TIP3    H136489   7.538   7.960  16.903 -1.0639 -0.1885 -0.0555
 4098TIP3    H236490   7.644   7.860  16.862  1.0920  1.6122  0.9004
 4099TIP3   OH236491   1.808   1.575  17.582  0.0187 -0.9556  0.3782
 4099TIP3    H136492   1.810   1.483  17.554 -2.1075 -1.0197  0.2829
 4099TIP3    H236493   1.819   1.571  17.677 -2.6215 -1.5949  0.7434
 4100TIP3   OH236494   8.887   3.292  17.976 -0.0678 -0.3998  0.3580
 4100TIP3    H136495   8.935   3.278  18.058 -0.5779 -2.4535  0.3645
 4100TIP3    H236496   8.927   3.371  17.938  2.2974 -1.1690  1.0673
 4101TIP3   OH236497   8.107   8.247  16.076  0.5252  0.3809 -0.1624
 4101TIP3    H136498   8.093   8.170  16.021 -1.8104  0.2647  0.4866
 4101TIP3    H236499   8.063   8.226  16.158  1.5994  1.6309  0.7876
 4102TIP3   OH236500   6.441   1.836  17.051 -0.0955  0.7691  0.2974
 4102TIP3    H136501   6.449   1.866  16.961 -2.2615 -0.6843 -0.4715
 4102TIP3    H236502   6.350   1.851  17.074 -0.5560 -2.1765  0.9005
 4103TIP3   OH236503   2.846   4.861  16.462 -0.2567 -0.9856  0.0092
 4103TIP3    H136504   2.852   4.766  16.455 -2.5508 -1.1182 -0.7473
 4103TIP3    H236505   2.797   4.888  16.384  0.1091  0.8037  0.3508
 4104TIP3   OH236506   2.940   2.606  16.936 -0.3119 -0.2313  0.5381
 4104TIP3    H136507   2.911   2.552  17.009 -1.2680  0.5402  0.7534
 4104TIP3    H236508   2.968   2.543  16.869 -1.5414 -1.0108  0.7251
 4105TIP3   OH236509   7.483   6.417  17.439  0.1977 -0.1032 -0.1279
 4105TIP3    H136510   7.492   6.440  17.346  0.5418 -1.2916 -0.4005
 4105TIP3    H236511   7.402   6.460  17.467  0.0048  0.1263 -1.0194
 4106TIP3   OH236512   7.944   9.026  16.980  0.7759  0.7642  0.1777
 4106TIP3    H136513   7.887   9.025  16.903  0.3519  1.8455  0.4490
 4106TIP3    H236514   8.025   8.984  16.951  0.0543 -0.2711 -0.3888
 4107TIP3   OH236515   1.273   7.165  17.306  0.5101  0.0239  0.8861
 4107TIP3    H136516   1.315   7.211  17.234 -0.8532 -0.4063 -0.2129
 4107TIP3    H236517   1.183   7.152  17.278 -0.4866  1.1462  3.2844
 4108TIP3   OH236518   4.660   8.356  16.720 -0.2177 -0.1038 -0.5144
 4108TIP3    H136519   4.716   8.322  16.650  0.2841 -0.4638  0.0443
 4108TIP3    H236520   4.587   8.397  16.675 -0.5211 -1.3789 -1.2349
 4109TIP3   OH236521   6.758   6.742  16.742  0.0266 -0.0247 -0.3916
 4109TIP3    H136522   6.782   6.729  16.650 -0.5250 -0.5765 -0.4561
 4109TIP3    H236523   6.769   6.836  16.756  2.3906 -0.2351 -0.3753
 4110TIP3   OH236524   2.570   5.455  17.744 -0.1674  0.6187 -0.2617
 4110TIP3    H136525   2.522   5.537  17.734 -1.4568 -0.0942 -0.2464
 4110TIP3    H236526   2.510   5.388  17.710  0.2168 -0.4737  1.0826
 4111TIP3   OH236527   5.092   6.654  16.291 -0.0184  0.5067  0.3547
 4111TIP3    H136528   5.084   6.614  16.204  0.8092  1.2908 -0.0992
 4111TIP3    H236529   5.082   6.581  16.352 -1.0503  0.0101 -0.3748
 4112TIP3   OH236530   5.782   6.382  16.138  0.0645  0.2986  0.5559
 4112TIP3    H136531   5.763   6.300  16.092 -2.2331  1.1768 -0.2188
 4112TIP3    H236532   5.860   6.363  16.190  0.6107 -1.8391 -0.9212
 4113TIP3   OH236533   6.592   6.567  16.883 -0.2396  0.1447 -0.4641
 4113TIP3    H136534   6.647   6.554  16.960  1.1037 -1.4639 -1.6515
 4113TIP3    H236535   6.634   6.639  16.835 -0.0735 -0.0329 -0.5838
 4114TIP3   OH236536   1.137   0.118  17.704 -0.2676  0.0357  0.1072
 4114TIP3    H136537   1.205   0.057  17.677 -0.5681 -0.0073 -0.5661
 4114TIP3    H236538   1.169   0.204  17.678 -1.4592 -0.1849 -2.3612
 4115TIP3   OH236539   2.599   6.486  16.957  0.2120  0.4763  0.3467
 4115TIP3    H136540   2.554   6.569  16.970 -0.5157  0.2822 -0.8065
 4115TIP3    H236541   2.534   6.420  16.980  0.1107  0.2074 -0.6542
 4116TIP3   OH236542   8.093   4.726  17.051 -0.4597  0.4642  0.1219
 4116TIP3    H136543   8.080   4.764  16.964 -1.7147 -1.1542 -0.4425
 4116TIP3    H236544   8.022   4.762  17.104 -0.4075  0.5031  0.1675
 4117TIP3   OH236545   2.768   1.896  16.521 -0.3654  0.1483  0.0694
 4117TIP3    H136546   2.813   1.942  16.593 -0.4439 -1.1984  1.0241
 4117TIP3    H236547   2.837   1.882  16.456 -0.3995  1.8137 -0.3618
 4118TIP3   OH236548   2.605   6.815  17.044  0.0001  0.1042 -0.1865
 4118TIP3    H136549   2.680   6.790  16.991 -0.8365  0.0956 -1.3971
 4118TIP3    H236550   2.643   6.851  17.124  1.2795 -0.1759 -0.6528
 4119TIP3   OH236551   1.045   7.523  17.244  0.3248  0.2038  0.0679
 4119TIP3    H136552   1.087   7.487  17.322  0.3911  1.7663  0.7934
 4119TIP3    H236553   0.952   7.528  17.267  0.5952  2.5340  0.8651
 4120TIP3   OH236554   4.170   1.454  17.670 -0.5904 -0.5426 -0.0464
 4120TIP3    H136555   4.137   1.544  17.671 -0.1264 -0.3043 -2.2549
 4120TIP3    H236556   4.187   1.435  17.762  0.6078  2.1161  0.3862
 4121TIP3   OH236557   4.987   5.234  16.698 -0.0293 -0.3242 -0.3439
 4121TIP3    H136558   4.903   5.279  16.702  0.7639  1.2404 -0.7478
 4121TIP3    H236559   4.976   5.170  16.627 -0.2264  1.3127 -1.8554
 4122TIP3   OH236560   2.891   1.215  17.237 -0.4379  0.1055  0.2711
 4122TIP3    H136561   2.968   1.221  17.292 -0.8276 -0.8484  0.9566
 4122TIP3    H236562   2.825   1.171  17.291 -0.7829 -1.0110 -0.9666
 4123TIP3   OH236563   2.263   2.111  16.074  0.5349 -0.1189 -0.5177
 4123TIP3    H136564   2.300   2.182  16.127 -0.6242  0.1310  0.0078
 4123TIP3    H236565   2.253   2.038  16.135 -0.5834  0.0945 -0.4075
 4124TIP3   OH236566   7.484   7.341  17.338 -0.1551  0.1953  0.0525
 4124TIP3    H136567   7.557   7.402  17.335  0.0046 -0.0320 -1.7299
 4124TIP3    H236568   7.517   7.261  17.297 -0.9307 -0.4545  0.6398
 4125TIP3   OH236569   0.706   7.872  18.086 -0.1107 -0.8955  0.5897
 4125TIP3    H136570   0.669   7.950  18.126  0.3355 -0.2950 -0.1554
 4125TIP3    H236571   0.800   7.886  18.085 -0.0022 -1.5620  0.6981
 4126TIP3   OH236572   7.874   4.085  17.250 -0.0076  0.1695  0.3780
 4126TIP3    H136573   7.943   4.050  17.307 -2.5324 -0.8255  3.0458
 4126TIP3    H236574   7.862   4.018  17.183  2.1868  0.8255 -0.8116
 4127TIP3   OH236575   3.948   3.267  16.652  0.2524  0.1676  0.8067
 4127TIP3    H136576   3.955   3.172  16.660  1.2788 -0.0291 -1.7306
 4127TIP3    H236577   3.857   3.286  16.674 -0.0277 -1.4176  1.1425
 4128TIP3   OH236578   4.397   5.637  15.917 -0.0093  1.0388 -0.0460
 4128TIP3    H136579   4.472   5.689  15.888 -0.2233  2.5967  1.9949
 4128TIP3    H236580   4.321   5.690  15.893 -0.5044 -0.3310 -1.7114
 4129TIP3   OH236581   5.954   6.455  17.688 -0.2930  0.4196 -0.0706
 4129TIP3    H136582   6.012   6.393  17.733  0.6764  0.5031 -1.1487
 4129TIP3    H236583   5.897   6.489  17.756 -1.6300 -2.4569  0.4043
 4130TIP3   OH236584   2.495   5.955  15.655  0.2653  0.2036 -0.3224
 4130TIP3    H136585   2.521   5.876  15.703 -1.5113  0.6877  1.5523
 4130TIP3    H236586   2.554   6.023  15.688 -0.1439  0.2713  0.2844
 4131TIP3   OH236587   0.685   3.338  17.377  0.0984  0.6474  0.6492
 4131TIP3    H136588   0.679   3.254  17.422  1.6572 -1.2556 -2.3289
 4131TIP3    H236589   0.778   3.362  17.384 -0.0118  1.2707  0.0739
 4132TIP3   OH236590   6.539   0.057  17.806  0.1521 -0.3330  0.4702
 4132TIP3    H136591   6.627   0.049  17.768 -0.4792  1.5005 -1.6135
 4132TIP3    H236592   6.510   0.145  17.779 -2.8115 -1.3545 -0.0227
 4133TIP3   OH236593   2.482   5.088  16.887  0.3052  0.2892 -0.3375
 4133TIP3    H136594   2.500   4.996  16.907 -0.3077  0.5673  1.7456
 4133TIP3    H236595   2.411   5.085  16.823 -0.5178 -0.7209  0.5797
 4134TIP3   OH236596   0.908   3.317  16.824  0.2933  0.4589  0.3819
 4134TIP3    H136597   0.954   3.234  16.809 -1.3938 -0.5105  0.3016
 4134TIP3    H236598   0.856   3.330  16.744  2.7698  3.2288 -0.9850
 4135TIP3   OH236599   5.158   0.042  17.466  0.5704 -0.4366  0.3600
 4135TIP3    H136600   5.175  -0.047  17.435  1.2618 -0.3615  0.5143
 4135TIP3    H236601   5.063   0.047  17.473  0.2052 -0.0637 -2.9719
 4136TIP3   OH236602   0.629   7.073  17.818  0.2321 -0.7440 -0.4970
 4136TIP3    H136603   0.556   7.049  17.762 -0.3792 -2.0222  0.7865
 4136TIP3    H236604   0.681   6.993  17.825  0.9984 -0.2407 -0.2454
 4137TIP3   OH236605   8.609   3.270  17.509 -0.6501  0.2294 -0.0568
 4137TIP3    H136606   8.580   3.250  17.598 -0.7678 -0.2087 -0.1919
 4137TIP3    H236607   8.615   3.185  17.466  0.9814  0.2774 -0.0018
 4138TIP3   OH236608   0.253   5.162  16.581 -0.3346 -0.2652  0.0279
 4138TIP3    H136609   0.265   5.090  16.520  0.0280 -0.1038 -0.0955
 4138TIP3    H236610   0.173   5.140  16.630 -0.2509 -0.7180 -0.0430
 4139TIP3   OH236611   7.865   8.730  16.983  0.3296  0.1046  0.5148
 4139TIP3    H136612   7.950   8.687  16.977 -0.4265 -1.3337 -0.5790
 4139TIP3    H236613   7.867   8.797  16.914 -0.1290 -1.2893 -0.8975
 4140TIP3   OH236614   6.177   7.825  17.300  0.4428 -0.3040 -0.3184
 4140TIP3    H136615   6.125   7.867  17.232 -0.4377 -1.5699 -0.4693
 4140TIP3    H236616   6.187   7.735  17.270  0.3768 -0.7830  1.0273
 4141TIP3   OH236617   7.456   8.917  17.156 -0.1159 -0.1001  0.3979
 4141TIP3    H136618   7.485   8.978  17.223  0.9464 -0.2278  0.0755
 4141TIP3    H236619   7.374   8.880  17.190  0.8512 -0.8216  2.0438
 4142TIP3   OH236620   0.836   4.457  16.601  0.3647 -0.5012 -0.5603
 4142TIP3    H136621   0.896   4.454  16.527  0.2802  0.1109 -0.6595
 4142TIP3    H236622   0.765   4.514  16.572  1.0259  0.9309  0.4766
 4143TIP3   OH236623   0.503   0.065  17.580  0.9068 -0.1799 -0.1247
 4143TIP3    H136624   0.465   0.012  17.510 -1.3539  0.8343  0.2325
 4143TIP3    H236625   0.451   0.043  17.657  0.0226  2.3238  0.0805
 4144TIP3   OH236626   7.412   3.619  17.404  0.2034 -0.1100  0.1798
 4144TIP3    H136627   7.423   3.550  17.339 -0.8172 -0.8413  0.7611
 4144TIP3    H236628   7.489   3.675  17.393  0.3088 -0.5041 -1.3015
 4145TIP3   OH236629   8.642   7.139  16.161  0.3791  0.4894 -0.7053
 4145TIP3    H136630   8.562   7.140  16.213  0.1473  0.3709 -1.0553
 4145TIP3    H236631   8.671   7.230  16.159 -0.1395  0.6519 -1.1689
 4146TIP3   OH236632   1.323   1.003  17.753  0.5335 -0.7067 -0.2691
 4146TIP3    H136633   1.259   0.932  17.750  1.5009 -1.5949 -0.5612
 4146TIP3    H236634   1.291   1.067  17.689 -0.9626 -0.3074  0.8156
 4147TIP3   OH236635   4.270   0.350  17.366  0.4497  0.0824 -0.1104
 4147TIP3    H136636   4.271   0.259  17.336 -1.9607 -0.7020  1.8581
 4147TIP3    H236637   4.362   0.376  17.368  1.0803 -1.7063 -2.3166
 4148TIP3   OH236638   2.561   0.207  16.283 -0.1183 -0.2184  0.6390
 4148TIP3    H136639   2.572   0.300  16.262 -0.2188 -0.5587 -1.0701
 4148TIP3    H236640   2.471   0.200  16.314 -0.1680  0.2295  0.6000
 4149TIP3   OH236641   4.699   3.162  15.985  0.2422  0.2471 -0.0815
 4149TIP3    H136642   4.700   3.182  16.078  0.9640 -0.2232  0.0165
 4149TIP3    H236643   4.625   3.212  15.950 -0.8977 -0.6610  0.9686
 4150TIP3   OH236644   1.982   8.205  17.050  0.3403  0.3304  0.4408
 4150TIP3    H136645   1.906   8.260  17.032 -0.5643 -0.7380  0.8586
 4150TIP3    H236646   2.003   8.223  17.142  0.9899  1.0720  0.1592
 4151TIP3   OH236647   8.316   3.677  16.831  0.2157 -0.1505  1.0809
 4151TIP3    H136648   8.401   3.722  16.830 -0.0608  0.3740  0.1204
 4151TIP3    H236649   8.327   3.603  16.771 -0.0253 -0.0353  0.8918
 4152TIP3   OH236650   6.257   2.481  18.229 -0.2406  0.2087 -0.4185
 4152TIP3    H136651   6.317   2.465  18.156 -0.4491 -0.5589 -0.4223
 4152TIP3    H236652   6.315   2.502  18.302  0.0030  0.2039 -0.6061
 4153TIP3   OH236653   4.375   8.031  17.066  0.5155 -0.1637  0.2961
 4153TIP3    H136654   4.430   7.955  17.084 -0.7299 -0.5894  2.7170
 4153TIP3    H236655   4.357   8.069  17.152 -1.7546  0.7993 -0.5248
 4154TIP3   OH236656   0.605   8.900  16.901  0.2428  0.0895 -0.3431
 4154TIP3    H136657   0.538   8.924  16.836  1.8041  1.7643 -1.4165
 4154TIP3    H236658   0.555   8.864  16.974 -1.6928 -0.4446 -1.8378
 4155TIP3   OH236659   7.780   7.771  17.573  0.0337 -0.3485 -0.3560
 4155TIP3    H136660   7.793   7.799  17.483 -1.1219  1.7765  0.0591
 4155TIP3    H236661   7.862   7.728  17.597  0.6550 -0.2452 -2.1542
 4156TIP3   OH236662   3.015   3.075  17.313 -0.0082 -0.1843  0.3247
 4156TIP3    H136663   3.066   3.154  17.297 -0.8074  0.0900 -1.0809
 4156TIP3    H236664   3.074   3.017  17.362  0.9902  0.8099  0.3410
 4157TIP3   OH236665   2.890   7.112  16.522 -0.0956 -0.1844  0.3033
 4157TIP3    H136666   2.885   7.170  16.446  0.1441 -0.5105  0.0318
 4157TIP3    H236667   2.983   7.107  16.542  0.0941 -1.8017 -0.7437
 4158TIP3   OH236668   9.163   4.519  17.207 -0.3303 -0.8224 -0.1603
 4158TIP3    H136669   9.127   4.551  17.290 -0.6561  0.6069 -0.8154
 4158TIP3    H236670   9.098   4.545  17.142  0.6601 -0.5073 -1.0524
 4159TIP3   OH236671   7.748   0.469  16.904 -0.8094 -0.0872  0.0295
 4159TIP3    H136672   7.667   0.442  16.861 -0.8287 -0.9666  0.5924
 4159TIP3    H236673   7.817   0.448  16.841 -0.8011 -1.7360  0.5513
 4160TIP3   OH236674   8.491   2.272  17.083 -0.2647  0.1902  0.1611
 4160TIP3    H136675   8.412   2.242  17.039  1.6173 -3.1200 -1.3238
 4160TIP3    H236676   8.488   2.231  17.169 -0.6353  0.9577  0.5245
 4161TIP3   OH236677   6.397   7.069  16.612  0.1135  0.2012 -0.3897
 4161TIP3    H136678   6.474   7.124  16.600  0.2587 -0.0014 -0.3799
 4161TIP3    H236679   6.404   7.002  16.544 -0.6609  0.8689 -1.1622
 4162TIP3   OH236680   7.593   9.144  17.274 -0.4125  0.4233  0.0474
 4162TIP3    H136681   7.663   9.078  17.275 -2.6011 -2.1166 -0.6999
 4162TIP3    H236682   7.637   9.226  17.295  2.8144 -0.9573 -0.6119
 4163TIP3   OH236683   5.403   7.425  17.789 -0.5731  0.1817 -0.5159
 4163TIP3    H136684   5.457   7.348  17.809  0.3919  1.1365  0.7087
 4163TIP3    H236685   5.340   7.393  17.724  0.8856 -1.2031 -1.3439
 4164TIP3   OH236686   6.056   2.851  16.543  0.3178 -0.1121  0.2075
 4164TIP3    H136687   6.065   2.857  16.638  0.0026 -0.2662  0.2506
 4164TIP3    H236688   6.000   2.926  16.520 -0.3125 -0.5623  0.2526
 4165TIP3   OH236689   5.803   6.507  17.925 -0.2836  0.1451 -0.2400
 4165TIP3    H136690   5.802   6.448  18.000 -0.5945  0.0499 -0.3191
 4165TIP3    H236691   5.730   6.567  17.941  0.5338  1.0369  0.2569
 4166TIP3   OH236692   8.298   2.456  17.833 -0.3986  0.4724  0.2214
 4166TIP3    H136693   8.281   2.478  17.742 -0.2782  0.3189  0.1632
 4166TIP3    H236694   8.265   2.532  17.882 -0.3426  0.6149  0.0419
 4167TIP3   OH236695   0.803   4.861  16.915  0.1992  0.0830 -0.4973
 4167TIP3    H136696   0.833   4.944  16.951 -0.5047  0.7628 -1.4406
 4167TIP3    H236697   0.883   4.816  16.887  0.5275  0.7455 -0.6240
 4168TIP3   OH236698   4.483   3.255  17.241 -0.3211  0.4105  0.2496
 4168TIP3    H136699   4.398   3.231  17.204  0.2989  0.7609 -1.5138
 4168TIP3    H236700   4.529   3.171  17.251 -0.4790  0.3149  0.1796
 4169TIP3   OH236701   8.823   8.826  17.240  0.1218 -0.0861 -0.1920
 4169TIP3    H136702   8.867   8.742  17.255 -1.4776 -0.9702 -0.2633
 4169TIP3    H236703   8.832   8.873  17.323  0.6601 -0.4943 -0.0106
 4170TIP3   OH236704   3.041   6.612  17.614  0.5319 -0.1256  0.1124
 4170TIP3    H136705   3.094   6.660  17.551 -0.0086 -2.3099 -2.1829
 4170TIP3    H236706   3.044   6.521  17.583 -0.3090 -1.2216  2.9097
 4171TIP3   OH236707   1.717   8.315  16.962  0.1069  0.6527  0.7437
 4171TIP3    H136708   1.740   8.408  16.962 -1.1431  1.0174 -0.7607
 4171TIP3    H236709   1.684   8.299  16.873  2.6511 -1.8461  0.1006
 4172TIP3   OH236710   8.364   3.645  17.179  0.1659  0.8355 -0.3575
 4172TIP3    H136711   8.446   3.652  17.130  0.1250  0.1252 -0.5467
 4172TIP3    H236712   8.318   3.572  17.137  1.0032 -1.1826  1.9754
 4173TIP3   OH236713   8.842   0.584  16.580  0.2508 -0.5137  0.0531
 4173TIP3    H136714   8.814   0.667  16.542  1.8664  0.8527  1.7361
 4173TIP3    H236715   8.860   0.528  16.504 -2.0825  0.1701 -1.1013
 4174TIP3   OH236716   9.176   2.976  17.323  0.3537 -0.1574  0.8464
 4174TIP3    H136717   9.247   2.911  17.314  1.3377  0.7421  1.8004
 4174TIP3    H236718   9.183   3.007  17.413 -0.3273  1.0216  0.5155
 4175TIP3   OH236719   7.293   0.140  17.657  0.2542  0.0122 -0.2576
 4175TIP3    H136720   7.228   0.115  17.592  0.1219  0.8949 -0.4820
 4175TIP3    H236721   7.249   0.128  17.741  0.6329 -1.7313 -0.2706
 4176TIP3   OH236722   4.290   4.190  17.392 -0.0230  0.1966 -0.3571
 4176TIP3    H136723   4.337   4.273  17.398  0.1659  0.0188  0.8052
 4176TIP3    H236724   4.338   4.139  17.327  0.2857  0.7259 -0.5418
 4177TIP3   OH236725   7.720   2.861  16.197 -0.7628 -0.1653  0.2362
 4177TIP3    H136726   7.790   2.822  16.145  0.0361  1.3662  0.1026
 4177TIP3    H236727   7.656   2.892  16.133 -1.5927 -1.5521  0.3562
 4178TIP3   OH236728   1.170   0.389  16.320 -0.7289 -0.0365  0.7170
 4178TIP3    H136729   1.188   0.482  16.308 -0.6494 -0.2417 -0.8917
 4178TIP3    H236730   1.253   0.345  16.303 -0.4469 -0.3643  2.6557
 4179TIP3   OH236731   2.125   2.353  17.419 -0.5059 -0.2752  0.0259
 4179TIP3    H136732   2.199   2.295  17.437  0.3366  0.3356 -1.2733
 4179TIP3    H236733   2.056   2.323  17.478  1.5428  0.7272  3.2038
 4180TIP3   OH236734   2.765   6.180  16.676  0.7144  0.1119  0.0431
 4180TIP3    H136735   2.714   6.220  16.605  1.5819 -0.5713 -0.9942
 4180TIP3    H236736   2.701   6.129  16.726  0.2524 -0.2361 -0.8782
 4181TIP3   OH236737   0.639   5.353  16.928 -0.6721 -0.4947  0.0039
 4181TIP3    H136738   0.733   5.346  16.945  0.0584  1.7537 -2.4149
 4181TIP3    H236739   0.621   5.285  16.863 -0.7831 -1.1036  0.6695
 4182TIP3   OH236740   1.727   6.991  15.810 -0.7169  0.4770  0.0688
 4182TIP3    H136741   1.650   6.949  15.847  0.1068 -1.7749 -0.5794
 4182TIP3    H236742   1.753   6.934  15.737  0.3184  2.3258 -1.1035
 4183TIP3   OH236743   2.119   3.306  16.439  0.5642  0.0656 -0.3403
 4183TIP3    H136744   2.089   3.301  16.348  0.0067  0.2203 -0.1706
 4183TIP3    H236745   2.039   3.294  16.491  0.5017  2.0374  0.1175
 4184TIP3   OH236746   8.886   8.210  16.070 -0.5449 -0.4721 -0.2955
 4184TIP3    H136747   8.915   8.297  16.042  1.5595 -0.7170  0.9209
 4184TIP3    H236748   8.798   8.225  16.106  0.4524  1.5367  1.5134
 4185TIP3   OH236749   1.273   3.596  16.603 -0.0908  0.7012  0.4895
 4185TIP3    H136750   1.231   3.680  16.622  0.4795  1.3741 -1.0078
 4185TIP3    H236751   1.254   3.580  16.511  1.7106  0.3371  0.1391
 4186TIP3   OH236752   6.799   6.295  16.378 -0.2213  0.2886  0.1747
 4186TIP3    H136753   6.819   6.299  16.284  0.3936 -0.7975  0.2422
 4186TIP3    H236754   6.835   6.375  16.414  0.8114  0.0443 -0.2945
 4187TIP3   OH236755   0.129   6.208  16.402 -0.4147  0.1465 -0.2796
 4187TIP3    H136756   0.208   6.163  16.431 -1.2232 -1.2028 -0.0336
 4187TIP3    H236757   0.160   6.274  16.340  1.0166  0.6983  0.9630
 4188TIP3   OH236758   4.308   7.105  17.320  1.0364  0.4794  0.4672
 4188TIP3    H136759   4.266   7.058  17.248  2.0948 -0.3227  0.3569
 4188TIP3    H236760   4.341   7.186  17.280 -1.9929  2.1058  0.9284
 4189TIP3   OH236761   6.972   4.934  16.654  0.5526 -0.2135  0.0264
 4189TIP3    H136762   6.942   5.023  16.672 -0.9928 -0.6476 -0.2299
 4189TIP3    H236763   6.894   4.880  16.667  0.7764 -1.2150 -2.3942
 4190TIP3   OH236764   8.951   2.191  17.803 -0.4174  0.0644  0.4635
 4190TIP3    H136765   8.856   2.187  17.794 -0.5545  2.7647 -0.1303
 4190TIP3    H236766   8.979   2.099  17.805 -3.0789 -0.8335  1.5954
 4191TIP3   OH236767   2.362   6.939  16.639  0.2451  0.5326  0.1002
 4191TIP3    H136768   2.411   7.007  16.593 -0.5880  2.3822  1.7714
 4191TIP3    H236769   2.381   6.954  16.732 -0.5664 -1.0595  0.5661
 4192TIP3   OH236770   7.241   7.043  15.993 -0.6544  0.0784  0.8582
 4192TIP3    H136771   7.239   7.125  15.943  0.4713 -0.1553  0.4169
 4192TIP3    H236772   7.186   7.060  16.070 -0.5624  1.1837  0.6846
 4193TIP3   OH236773   6.501   5.115  17.444  1.1702 -0.5848  0.1328
 4193TIP3    H136774   6.439   5.042  17.451  1.9556 -1.4578 -1.4990
 4193TIP3    H236775   6.585   5.077  17.470  1.2930  0.2298  0.9835
 4194TIP3   OH236776   0.601   0.928  17.460  0.1820  0.2441 -0.0011
 4194TIP3    H136777   0.595   0.921  17.555  1.4806  1.7607  0.2273
 4194TIP3    H236778   0.690   0.898  17.440  0.0106  0.2051 -0.7220
 4195TIP3   OH236779   2.621   4.468  16.567 -0.0235 -0.4275 -0.4085
 4195TIP3    H136780   2.546   4.479  16.626  0.0707 -0.6716 -0.2385
 4195TIP3    H236781   2.583   4.437  16.485 -0.3636  1.7374 -1.1168
 4196TIP3   OH236782   2.683   6.543  17.936 -0.3964  0.3489 -0.5988
 4196TIP3    H136783   2.758   6.521  17.880 -0.1113 -0.6644  0.1657
 4196TIP3    H236784   2.617   6.477  17.915  0.3057 -1.0601  1.3962
 4197TIP3   OH236785   8.362   4.267  16.611 -0.1577 -0.0767 -0.0369
 4197TIP3    H136786   8.438   4.298  16.561  0.2402 -1.7583 -0.5281
 4197TIP3    H236787   8.346   4.179  16.578 -1.3168 -0.3671  1.2207
 4198TIP3   OH236788   4.170   0.749  17.648 -0.4509 -0.6069 -0.3280
 4198TIP3    H136789   4.213   0.676  17.693 -1.6768 -1.4340 -0.4361
 4198TIP3    H236790   4.175   0.727  17.555  0.3947  0.1536 -0.4754
 4199TIP3   OH236791   6.235   5.778  17.102 -0.4089  0.3350  0.2161
 4199TIP3    H136792   6.247   5.694  17.147 -1.7248  0.4419  0.8260
 4199TIP3    H236793   6.288   5.840  17.152 -0.7964  0.1939  0.8123
 4200TIP3   OH236794   1.399   4.455  17.621 -0.1765  0.4594 -0.3472
 4200TIP3    H136795   1.426   4.412  17.703 -0.9366  0.0750 -0.2891
 4200TIP3    H236796   1.322   4.405  17.592  1.7179 -1.2745 -2.8343
 4201TIP3   OH236797   4.518   0.465  16.263  0.4198  0.4304  0.6204
 4201TIP3    H136798   4.590   0.433  16.209  1.0693  4.5510 -1.3364
 4201TIP3    H236799   4.439   0.446  16.211  0.1186 -2.4583  1.9422
 4202TIP3   OH236800   0.767   8.883  17.400 -0.1933  0.1511 -0.2369
 4202TIP3    H136801   0.808   8.965  17.373 -1.8486  1.1726  0.2098
 4202TIP3    H236802   0.775   8.881  17.495  0.3092 -0.4745 -0.2878
 4203TIP3   OH236803   6.800   0.034  17.707 -0.3057  0.1373  0.2077
 4203TIP3    H136804   6.823   0.127  17.707 -0.8795  0.3216 -1.4334
 4203TIP3    H236805   6.882  -0.011  17.686 -0.2603  0.3748 -0.1376
 4204TIP3   OH236806   7.639   5.775  17.238 -0.0151  0.0981 -0.0569
 4204TIP3    H136807   7.725   5.750  17.204  0.4524  0.7459  0.6155
 4204TIP3    H236808   7.581   5.771  17.162  0.8622  0.8423 -0.7870
 4205TIP3   OH236809   6.612   7.231  16.604  0.0789  0.1229  0.2940
 4205TIP3    H136810   6.646   7.292  16.669  1.1528 -1.1645  0.9899
 4205TIP3    H236811   6.688   7.180  16.577 -1.2492 -3.3542  2.4310
 4206TIP3   OH236812   7.048   6.290  16.017 -0.5101 -0.5737  0.4930
 4206TIP3    H136813   6.953   6.299  16.019 -0.4736  0.2359 -0.6629
 4206TIP3    H236814   7.081   6.372  16.054 -0.2589 -0.2903 -0.3351
 4207TIP3   OH236815   1.955   0.829  16.944  0.2976 -0.4057  0.0714
 4207TIP3    H136816   1.974   0.753  16.999 -0.5904 -1.9769 -1.6826
 4207TIP3    H236817   1.874   0.807  16.898 -0.7437  2.1934  0.4605
 4208TIP3   OH236818   4.228   6.901  16.949 -0.8296  1.0337  0.3130
 4208TIP3    H136819   4.291   6.844  16.994  0.8511  2.9251  0.5243
 4208TIP3    H236820   4.183   6.844  16.888  0.4334 -0.6085  0.8408
 4209TIP3   OH236821   4.896   0.057  18.199 -0.3806 -0.5918  0.0881
 4209TIP3    H136822   4.992   0.059  18.201 -0.3301  1.8724 -1.3669
 4209TIP3    H236823   4.871   0.039  18.290  1.4497 -0.6616  0.6242
 4210TIP3   OH236824   1.730   2.543  16.438 -0.4846 -0.3127  0.0017
 4210TIP3    H136825   1.718   2.626  16.390 -1.8594 -1.9588 -2.7951
 4210TIP3    H236826   1.664   2.545  16.507  0.4462  1.4589  0.9137
 4211TIP3   OH236827   7.152   8.516  17.758  0.2528 -0.5626 -0.4857
 4211TIP3    H136828   7.122   8.510  17.849  2.0654 -0.0755  0.1956
 4211TIP3    H236829   7.073   8.503  17.706 -0.6116 -2.2204  1.1224
 4212TIP3   OH236830   1.508   6.518  17.512  0.1723 -0.2562  0.0034
 4212TIP3    H136831   1.523   6.424  17.512  0.4353 -0.2162  0.3987
 4212TIP3    H236832   1.590   6.555  17.544 -0.7527 -0.0318  2.2930
 4213TIP3   OH236833   1.212   4.271  17.546  0.0763 -0.2803 -0.5254
 4213TIP3    H136834   1.193   4.177  17.548 -1.4940 -0.0040 -0.8976
 4213TIP3    H236835   1.179   4.301  17.461 -0.3587  0.7701 -0.0136
 4214TIP3   OH236836   2.015   8.844  16.650  0.0017 -0.3404 -0.7910
 4214TIP3    H136837   1.948   8.801  16.597 -0.8752  0.0798 -0.0516
 4214TIP3    H236838   2.067   8.894  16.586 -1.6496  0.9633 -1.2040
 4215TIP3   OH236839   8.911   3.687  16.111 -0.1493  0.0218  0.4086
 4215TIP3    H136840   8.976   3.709  16.178  2.6993  0.6004 -2.3464
 4215TIP3    H236841   8.930   3.596  16.088  0.3909  0.5085 -1.1304
 4216TIP3   OH236842   6.326   6.277  17.542  0.2283 -0.3836  0.1469
 4216TIP3    H136843   6.328   6.308  17.452  0.3616 -1.3439 -0.1982
 4216TIP3    H236844   6.376   6.195  17.541 -0.5456 -0.8920  0.8944
 4217TIP3   OH236845   7.349   8.695  17.574  0.0203 -0.2245  0.6554
 4217TIP3    H136846   7.367   8.609  17.611 -0.0516  0.1763  1.6634
 4217TIP3    H236847   7.288   8.735  17.636 -2.7389 -0.7270 -1.5079
 4218TIP3   OH236848   5.535   1.614  16.644  0.4788 -0.1269  0.0963
 4218TIP3    H136849   5.499   1.530  16.670 -1.3615  0.1923 -1.2182
 4218TIP3    H236850   5.617   1.592  16.599 -0.3178 -1.2924 -0.8327
 4219TIP3   OH236851   7.829   8.296  17.714  0.1048 -0.2123 -0.5520
 4219TIP3    H136852   7.760   8.258  17.768  1.1015 -2.5632 -0.7849
 4219TIP3    H236853   7.785   8.324  17.634 -0.5325 -2.4507 -1.0646
 4220TIP3   OH236854   4.133   8.868  17.116  0.1089 -0.0104  0.0577
 4220TIP3    H136855   4.124   8.820  17.033 -1.5259 -0.3785  0.4137
 4220TIP3    H236856   4.226   8.890  17.120  0.0907  0.7997 -2.3024
 4221TIP3   OH236857   5.892   4.984  16.268 -0.2601 -0.2352  0.7646
 4221TIP3    H136858   5.892   5.035  16.187 -0.4754  0.9844  1.5067
 4221TIP3    H236859   5.882   4.893  16.239  0.5146  0.0834 -0.6155
 4222TIP3   OH236860   6.614   3.248  17.426 -0.0068 -0.1083  0.1461
 4222TIP3    H136861   6.594   3.202  17.344  0.8592 -1.0242  0.4331
 4222TIP3    H236862   6.540   3.226  17.483 -1.6643  2.1342 -0.9499
 4223TIP3   OH236863   3.046   4.874  15.577  0.2228  0.0718 -0.3032
 4223TIP3    H136864   3.007   4.787  15.573 -0.2210  0.2695 -0.3469
 4223TIP3    H236865   3.136   4.861  15.545  0.2869 -0.4370  0.0736
 4224TIP3   OH236866   8.994   3.005  16.274 -0.4544 -0.6850  0.0457
 4224TIP3    H136867   8.928   2.953  16.228 -0.4633 -1.1492  0.5736
 4224TIP3    H236868   9.002   2.963  16.360  1.1056 -1.1213 -0.2826
 4225TIP3   OH236869   7.159   4.255  17.594 -0.0367  0.3807  0.1361
 4225TIP3    H136870   7.092   4.188  17.610  2.5702 -2.1811  1.3289
 4225TIP3    H236871   7.179   4.246  17.501 -0.5765  0.3947  0.0141
 4226TIP3   OH236872   4.374   5.264  16.551 -0.5395  0.2347  0.0407
 4226TIP3    H136873   4.421   5.180  16.550 -0.9779 -0.0761  1.7070
 4226TIP3    H236874   4.441   5.328  16.576  0.1125  0.6733 -2.4985
 4227TIP3   OH236875   2.157   7.762  16.640  0.2859 -0.6074 -0.0029
 4227TIP3    H136876   2.134   7.670  16.634 -0.9702 -0.3816  0.8854
 4227TIP3    H236877   2.074   7.807  16.652  0.8305  0.7047 -0.8850
 4228TIP3   OH236878   5.876   4.259  16.521  0.0147 -0.7582  0.1118
 4228TIP3    H136879   5.952   4.214  16.557 -1.5301 -2.4505  1.4599
 4228TIP3    H236880   5.879   4.240  16.427  1.8773  0.2551 -0.0751
 4229TIP3   OH236881   3.262   7.503  17.579 -0.3043 -0.0555 -0.0792
 4229TIP3    H136882   3.279   7.465  17.665 -0.3081 -1.7083 -0.7623
 4229TIP3    H236883   3.316   7.582  17.576 -0.6312  0.2620  1.5839
 4230TIP3   OH236884   5.418   0.543  16.665  0.1978  0.5203  0.0955
 4230TIP3    H136885   5.409   0.626  16.619 -0.8096 -0.0431 -0.7952
 4230TIP3    H236886   5.433   0.479  16.595  2.2749  0.0900  0.8402
 4231TIP3   OH236887   2.652   3.861  17.544  0.1199 -0.1485  0.6883
 4231TIP3    H136888   2.632   3.788  17.603 -2.1373 -0.5742 -0.5061
 4231TIP3    H236889   2.599   3.845  17.466  2.6452  0.6514 -1.3288
 4232TIP3   OH236890   1.439   8.382  17.633  0.3737  0.2914  0.3159
 4232TIP3    H136891   1.502   8.444  17.669  1.5252 -0.2972 -0.6337
 4232TIP3    H236892   1.472   8.362  17.545 -1.3367  0.2420 -0.3441
 4233TIP3   OH236893   6.550   2.881  17.355 -0.4038 -0.2675  0.1101
 4233TIP3    H136894   6.509   2.899  17.440  1.6158  0.1069  1.0680
 4233TIP3    H236895   6.637   2.850  17.377 -0.3224 -1.5811 -1.8315
 4234TIP3   OH236896   7.266   7.153  17.434  0.9106  0.0987 -0.3692
 4234TIP3    H136897   7.334   7.089  17.415 -0.4855 -1.0179 -1.9148
 4234TIP3    H236898   7.309   7.238  17.422  2.6830 -0.4903  1.3296
 4235TIP3   OH236899   3.692   7.427  16.751  0.1717  0.5204  0.0481
 4235TIP3    H136900   3.645   7.451  16.671 -0.3598  0.4323  0.3225
 4235TIP3    H236901   3.784   7.438  16.729  0.0463  0.2481 -0.6600
 4236TIP3   OH236902   8.599   4.222  17.135 -0.3165  0.7215 -0.1931
 4236TIP3    H136903   8.578   4.256  17.048 -1.2108 -0.8554 -0.6398
 4236TIP3    H236904   8.514   4.195  17.171  0.2700 -0.5304  0.3213
 4237TIP3   OH236905   2.555   4.810  16.690  0.5792  0.2407 -0.4523
 4237TIP3    H136906   2.533   4.783  16.779  0.4256 -1.1677 -0.8844
 4237TIP3    H236907   2.473   4.801  16.641  0.1528  2.8882 -0.3679
 4238TIP3   OH236908   0.688   7.041  16.831 -0.5744 -0.0804  0.3055
 4238TIP3    H136909   0.744   6.994  16.769 -0.0038 -0.1316  0.8532
 4238TIP3    H236910   0.612   7.067  16.779 -0.3118 -0.5115 -0.3079
 4239TIP3   OH236911   1.178   4.467  16.683 -0.4137 -0.2173  0.0584
 4239TIP3    H136912   1.154   4.557  16.663  1.1229  0.9802  2.9737
 4239TIP3    H236913   1.269   4.473  16.713 -0.7570 -2.5036  1.7778
 4240TIP3   OH236914   9.028   5.959  17.650  0.3050  0.3218 -0.1938
 4240TIP3    H136915   8.954   6.019  17.637 -0.1305 -0.5353 -1.9526
 4240TIP3    H236916   9.098   5.996  17.598  0.6425  0.3124  0.2478
 4241TIP3   OH236917   4.501   2.845  16.475  0.5752 -0.1229  0.9363
 4241TIP3    H136918   4.416   2.826  16.515  0.5220  0.6291  1.2078
 4241TIP3    H236919   4.522   2.768  16.422 -0.1429 -0.4262  1.0949
 4242TIP3   OH236920   1.277   6.072  16.045  0.0667 -0.3550  0.2593
 4242TIP3    H136921   1.328   6.080  15.965  0.9050 -0.0736  0.8127
 4242TIP3    H236922   1.327   6.120  16.111 -1.4640  0.9505  0.5610
 4243TIP3   OH236923   7.351   1.683  17.447  0.3215 -0.1756  0.1327
 4243TIP3    H136924   7.424   1.691  17.509  1.5419  0.4442 -1.3253
 4243TIP3    H236925   7.392   1.691  17.361 -1.8099  3.7732 -0.7400
 4244TIP3   OH236926   3.188   1.407  16.386  0.1991  0.5856  0.5510
 4244TIP3    H136927   3.151   1.478  16.438 -0.3677  1.2323 -0.7021
 4244TIP3    H236928   3.113   1.372  16.337  0.9052  0.6767 -0.6124
 4245TIP3   OH236929   0.679   1.426  17.652 -0.2153  0.4546  0.0814
 4245TIP3    H136930   0.693   1.334  17.626  3.2107  0.7430  0.3740
 4245TIP3    H236931   0.584   1.435  17.657 -0.7604 -2.5634 -1.7350
 4246TIP3   OH236932   9.070   3.418  17.288 -0.2826  0.1383 -0.4592
 4246TIP3    H136933   8.990   3.367  17.308 -0.6202  0.9128  0.2103
 4246TIP3    H236934   9.070   3.425  17.193 -0.0188 -1.4404 -0.6171
 4247TIP3   OH236935   7.827   2.591  17.391  0.5203 -0.4393 -0.1498
 4247TIP3    H136936   7.806   2.527  17.459 -0.8062 -0.0167 -0.1331
 4247TIP3    H236937   7.759   2.658  17.399  0.3016 -0.3960 -1.9167
 4248TIP3   OH236938   5.413   1.111  16.761  0.3560 -0.7214 -0.7632
 4248TIP3    H136939   5.386   1.021  16.781  1.7445 -0.9210  0.3571
 4248TIP3    H236940   5.508   1.106  16.751  0.1684  0.1042 -3.7507
 4249TIP3   OH236941   5.997   8.755  17.004  0.4952  0.2162  0.0310
 4249TIP3    H136942   5.905   8.762  16.981  0.5767  0.8568 -0.1231
 4249TIP3    H236943   5.998   8.733  17.097  0.1893  3.3610  0.8634
 4250TIP3   OH236944   1.705   7.232  15.990 -0.6777  0.1991  0.0808
 4250TIP3    H136945   1.694   7.159  15.928 -0.5051 -0.0389  0.3247
 4250TIP3    H236946   1.631   7.224  16.049 -1.3990  1.0311 -0.6879
 4251TIP3   OH236947   4.485   7.770  17.070  0.0872 -0.4562  0.8133
 4251TIP3    H136948   4.487   7.676  17.088  0.8882 -0.8135 -0.9082
 4251TIP3    H236949   4.575   7.798  17.085 -0.0790 -0.0324  1.0171
 4252TIP3   OH236950   8.966   1.161  17.616 -0.5169  0.5191  0.2335
 4252TIP3    H136951   9.053   1.122  17.606 -0.0109  1.1057  2.0304
 4252TIP3    H236952   8.912   1.115  17.552  1.3763  1.0670 -1.8953
 4253TIP3   OH236953   4.309   6.496  17.180  0.0890 -0.2214 -0.2257
 4253TIP3    H136954   4.313   6.527  17.270 -0.2774 -1.1501  0.1183
 4253TIP3    H236955   4.401   6.488  17.153  0.2483 -1.4484  0.6063
 4254TIP3   OH236956   1.477   5.617  17.995  0.0060 -0.5707  0.2743
 4254TIP3    H136957   1.482   5.664  18.078  1.1840 -1.2018  0.5886
 4254TIP3    H236958   1.415   5.667  17.942 -1.1222 -0.4010  1.6848
 4255TIP3   OH236959   2.626   8.546  16.607  0.1113 -0.6649  0.3143
 4255TIP3    H136960   2.717   8.527  16.585  0.6548 -0.4481  2.1968
 4255TIP3    H236961   2.575   8.506  16.536  1.6720 -0.0827 -1.2088
 4256TIP3   OH236962   8.074   3.818  17.681 -0.6050  0.0182  0.0798
 4256TIP3    H136963   8.051   3.732  17.647 -0.6856 -0.1959  0.6732
 4256TIP3    H236964   7.990   3.862  17.693 -0.6186 -0.1702  0.6909
 4257TIP3   OH236965   1.385   4.894  17.267  0.0826 -0.4471 -0.6307
 4257TIP3    H136966   1.426   4.981  17.270  1.5319 -1.0953 -0.7887
 4257TIP3    H236967   1.313   4.900  17.330  0.3204  0.7852 -0.4397
 4258TIP3   OH236968   8.230   0.943  17.699  0.0101 -0.4546  0.1324
 4258TIP3    H136969   8.200   1.006  17.634  0.7402 -1.2695 -1.0403
 4258TIP3    H236970   8.149   0.907  17.737 -0.4093  0.8113  0.4721
 4259TIP3   OH236971   2.478   0.917  17.307  0.3089 -0.3604 -0.3825
 4259TIP3    H136972   2.557   0.883  17.267  1.3188  0.9710  0.3859
 4259TIP3    H236973   2.509   0.964  17.385 -1.2948 -0.3400  0.2820
 4260TIP3   OH236974   0.257   2.780  16.093  0.2772  0.0782 -0.1691
 4260TIP3    H136975   0.273   2.873  16.075 -0.7030  0.0963 -1.0269
 4260TIP3    H236976   0.163   2.769  16.080  0.0243 -0.6290  1.8788
 4261TIP3   OH236977   6.599   8.896  18.091 -0.2543 -0.4021 -0.0302
 4261TIP3    H136978   6.646   8.940  18.020  2.9213 -0.7170  1.6782
 4261TIP3    H236979   6.564   8.968  18.145 -0.9760 -0.1476 -0.8121
 4262TIP3   OH236980   2.859   8.093  16.995 -0.2738  0.8735 -0.4165
 4262TIP3    H136981   2.841   8.083  16.902 -0.3317 -2.0559 -0.1615
 4262TIP3    H236982   2.782   8.056  17.038  0.8252 -0.1214  0.7646
 4263TIP3   OH236983   8.780   2.586  16.392  0.3548 -0.0007  0.4469
 4263TIP3    H136984   8.684   2.589  16.393  0.3656  1.4498  0.4880
 4263TIP3    H236985   8.802   2.493  16.387 -1.0597 -0.3049 -0.8279
 4264TIP3   OH236986   7.315   6.393  16.381  0.0301  0.3981  0.1337
 4264TIP3    H136987   7.408   6.385  16.359 -0.1871 -1.4811 -0.2347
 4264TIP3    H236988   7.314   6.455  16.455  1.6488 -0.1585  0.6762
 4265TIP3   OH236989   7.242   2.729  16.875  0.2057 -0.1451 -0.0753
 4265TIP3    H136990   7.155   2.726  16.914  0.1619  1.0130 -0.0748
 4265TIP3    H236991   7.251   2.644  16.832 -0.5389 -0.6537  0.7362
 4266TIP3   OH236992   6.198   9.183  16.546 -0.0004  0.4956  0.2806
 4266TIP3    H136993   6.266   9.247  16.523  0.1305  0.6087  0.9720
 4266TIP3    H236994   6.131   9.196  16.480  1.4071 -0.8394 -1.5055
 4267TIP3   OH236995   8.500   2.280  17.834  0.0180  0.3609  0.7681
 4267TIP3    H136996   8.431   2.345  17.843 -0.3842  0.3186 -1.4960
 4267TIP3    H236997   8.456   2.201  17.803  0.3298 -1.4795  4.3856
 4268TIP3   OH236998   7.135   6.070  17.542  0.4222 -0.3898 -0.3191
 4268TIP3    H136999   7.111   6.149  17.591 -0.9998 -1.3965  0.6796
 4268TIP3    H237000   7.224   6.050  17.571 -0.4759 -1.1140  2.1338
 4269TIP3   OH237001   6.640   3.116  16.869 -0.0826 -0.9759  0.1867
 4269TIP3    H137002   6.589   3.181  16.915  1.4799  0.4280  0.0312
 4269TIP3    H237003   6.685   3.165  16.800  1.0605 -2.2187 -0.0000
 4270TIP3   OH237004   7.324   5.606  15.778 -0.3717  0.3897 -0.2357
 4270TIP3    H137005   7.399   5.633  15.831  0.6368 -1.6144 -0.5201
 4270TIP3    H237006   7.259   5.576  15.842  0.4568 -1.0921 -0.0390
 4271TIP3   OH237007   0.415   8.898  16.475 -0.0110 -0.1983 -0.0858
 4271TIP3    H137008   0.329   8.862  16.454  0.2178 -0.5096 -0.4966
 4271TIP3    H237009   0.449   8.931  16.391  0.3883 -0.3381  0.0166
 4272TIP3   OH237010   8.542   2.020  17.297  0.4777 -0.1179 -0.3709
 4272TIP3    H137011   8.458   2.049  17.332  0.9501 -0.3572  1.0138
 4272TIP3    H237012   8.593   1.996  17.374  1.6800 -0.3490 -1.2135
 4273TIP3   OH237013   9.056   0.471  17.409 -0.2906 -0.2256  0.2625
 4273TIP3    H137014   8.972   0.454  17.366 -0.0273  0.8994 -0.7716
 4273TIP3    H237015   9.120   0.465  17.338 -0.0936  4.1548 -0.1724
 4274TIP3   OH237016   8.855   0.213  16.549  0.0704 -0.4703  0.1080
 4274TIP3    H137017   8.910   0.266  16.607  0.3901  2.5652 -2.6613
 4274TIP3    H237018   8.915   0.152  16.507  0.7225  0.4101 -0.2807
 4275TIP3   OH237019   6.435   5.862  17.272 -0.1121  0.2043 -0.7010
 4275TIP3    H137020   6.517   5.872  17.222 -1.1491  0.1633 -2.5086
 4275TIP3    H237021   6.456   5.799  17.341  1.4112  0.3022 -1.0355
 4276TIP3   OH237022   6.661   4.986  17.178  0.0807  0.7111  0.0839
 4276TIP3    H137023   6.671   5.072  17.221  0.6002  0.6556  0.0794
 4276TIP3    H237024   6.721   4.929  17.226  0.3529  0.5489 -0.4506
 4277TIP3   OH237025   1.694   7.842  17.478  0.1256 -0.7037  0.4239
 4277TIP3    H137026   1.678   7.881  17.564 -0.8062 -0.5698  0.2009
 4277TIP3    H237027   1.744   7.762  17.497 -0.6733 -1.0454  1.1546
 4278TIP3   OH237028   2.003   1.789  17.806 -0.5423 -0.0083  0.1283
 4278TIP3    H137029   1.909   1.802  17.818 -0.5379  0.0819  0.0664
 4278TIP3    H237030   2.012   1.695  17.790 -0.6691  0.0568 -0.3152
 4279TIP3   OH237031   4.738   0.104  15.922  0.3246  0.2419 -0.1367
 4279TIP3    H137032   4.825   0.070  15.904  0.2697  0.6909 -1.3639
 4279TIP3    H237033   4.749   0.158  16.000  1.2726  0.7301 -0.5923
 4280TIP3   OH237034   4.894   7.678  16.013  0.0315 -0.3795  0.6938
 4280TIP3    H137035   4.799   7.662  16.007 -0.1566  1.0611 -0.9286
 4280TIP3    H237036   4.902   7.753  16.072 -0.0022  0.5709 -0.4782
 4281TIP3   OH237037   5.789   5.647  17.444 -0.1401 -0.3013  0.3721
 4281TIP3    H137038   5.754   5.591  17.374  0.8374 -1.9679  1.1410
 4281TIP3    H237039   5.711   5.674  17.493 -0.7392  0.0226 -0.7269
 4282TIP3   OH237040   1.468   9.213  16.121 -0.4101  0.8431 -0.1437
 4282TIP3    H137041   1.517   9.135  16.146  0.7789  0.9637 -1.8998
 4282TIP3    H237042   1.530   9.285  16.132 -1.4503  1.5726  1.3302
 4283TIP3   OH237043   4.806   3.643  17.399 -0.1405 -0.1811 -0.4665
 4283TIP3    H137044   4.850   3.616  17.318 -0.1949 -0.7765 -0.3009
 4283TIP3    H237045   4.745   3.572  17.419  3.2238 -2.5443  2.6986
 4284TIP3   OH237046   1.668   4.078  17.120 -0.4200  0.0669  0.0543
 4284TIP3    H137047   1.641   4.091  17.211  1.5657 -1.6766  0.9762
 4284TIP3    H237048   1.590   4.043  17.077 -0.7031 -1.4733  1.7177
 4285TIP3   OH237049   1.323   5.287  16.764 -0.4834  0.0314 -0.0801
 4285TIP3    H137050   1.249   5.346  16.780 -1.6964 -0.8405 -2.0259
 4285TIP3    H237051   1.332   5.286  16.668  2.4128  0.4921  0.1149
 4286TIP3   OH237052   5.996   3.639  16.234  0.3331 -0.6311 -0.0153
 4286TIP3    H137053   6.080   3.685  16.233 -0.2431  0.4507  0.0636
 4286TIP3    H237054   5.930   3.708  16.229 -0.5679 -1.4463  0.1734
 4287TIP3   OH237055   2.403   2.082  16.905 -0.4230 -0.3483  0.1005
 4287TIP3    H137056   2.398   1.992  16.936 -1.1700 -0.5612 -0.6189
 4287TIP3    H237057   2.479   2.083  16.847 -0.3377 -0.4794  0.2082
 4288TIP3   OH237058   2.787   7.473  17.649  0.1436 -0.5822  0.3061
 4288TIP3    H137059   2.703   7.518  17.655  1.0710  1.0685  1.9399
 4288TIP3    H237060   2.770   7.386  17.685 -1.0149 -0.5392 -0.0941
 4289TIP3   OH237061   2.804   4.686  17.426  0.3304 -0.0197 -0.0436
 4289TIP3    H137062   2.815   4.646  17.339 -3.9987 -0.8276 -0.4603
 4289TIP3    H237063   2.783   4.613  17.484 -0.5889  0.8671  0.7887
 4290TIP3   OH237064   1.858   7.587  17.771  0.4922 -0.1517 -0.4226
 4290TIP3    H137065   1.921   7.610  17.702  1.0827 -1.3331 -0.2912
 4290TIP3    H237066   1.784   7.550  17.724  0.1978  0.5447 -0.5229
 4291TIP3   OH237067   4.391   1.418  16.947 -0.1089 -0.0413  0.1896
 4291TIP3    H137068   4.312   1.424  16.894 -0.7200 -2.1285  0.7688
 4291TIP3    H237069   4.448   1.358  16.900  1.2053  1.4684 -0.2400
 4292TIP3   OH237070   6.719   0.184  17.029  0.0208  0.4771  0.6768
 4292TIP3    H137071   6.692   0.266  17.069 -2.0908  1.2603 -2.0572
 4292TIP3    H237072   6.640   0.130  17.027  0.5697 -0.3436 -0.4120
 4293TIP3   OH237073   4.919   5.736  16.603 -0.4355  0.1469 -0.3120
 4293TIP3    H137074   4.900   5.743  16.510  1.1362 -2.7261 -0.9672
 4293TIP3    H237075   4.910   5.825  16.636  0.1934  1.5038 -3.4458
 4294TIP3   OH237076   0.745   1.816  15.804  0.0820  0.3090  0.3728
 4294TIP3    H137077   0.742   1.846  15.895  1.5074 -1.0890  0.9367
 4294TIP3    H237078   0.838   1.813  15.782 -0.1107 -1.2547 -0.4472
 4295TIP3   OH237079   4.877   2.745  17.422 -0.1904 -0.4053 -0.1392
 4295TIP3    H137080   4.853   2.700  17.341  0.6196 -0.5061 -0.3344
 4295TIP3    H237081   4.972   2.754  17.417  0.3779 -3.2624  2.2298
 4296TIP3   OH237082   4.977   1.665  17.425 -0.0382 -0.7307 -0.1161
 4296TIP3    H137083   4.909   1.670  17.358  1.0260 -0.5113 -1.2050
 4296TIP3    H237084   4.929   1.641  17.505 -1.4050 -0.4535 -0.8120
 4297TIP3   OH237085   8.318   5.638  16.710  0.0915 -0.1444  0.2901
 4297TIP3    H137086   8.293   5.558  16.664 -1.6055  0.2968  0.3920
 4297TIP3    H237087   8.402   5.617  16.750 -0.4197 -1.9741  0.4973
 4298TIP3   OH237088   5.826   0.366  17.985  0.0774 -0.3274  0.5092
 4298TIP3    H137089   5.916   0.355  18.016  0.3019 -0.6427 -0.2352
 4298TIP3    H237090   5.833   0.360  17.890 -0.7675 -0.6241  0.4593
 4299TIP3   OH237091   3.928   6.695  17.525 -0.1889 -0.3153  0.1502
 4299TIP3    H137092   3.852   6.709  17.469 -0.8930 -0.0024  1.1545
 4299TIP3    H237093   3.921   6.763  17.592 -0.0678 -1.4428  1.3484
 4300TIP3   OH237094   1.677   8.574  16.069 -0.3613 -0.2869 -0.2327
 4300TIP3    H137095   1.637   8.516  16.005 -2.4967  1.9354 -1.0736
 4300TIP3    H237096   1.679   8.660  16.026 -0.7438  1.0373  2.1992
 4301TIP3   OH237097   2.795   3.542  16.661 -0.5383 -0.4926 -0.2823
 4301TIP3    H137098   2.710   3.580  16.682  1.2187  2.1805  3.1639
 4301TIP3    H237099   2.804   3.468  16.721 -0.6719 -1.1585 -1.0776
 4302TIP3   OH237100   4.735   0.658  17.607 -0.6856 -0.0158  0.3700
 4302TIP3    H137101   4.754   0.715  17.681  0.9005  1.7423 -1.2668
 4302TIP3    H237102   4.819   0.619  17.583 -1.2174 -0.7937 -0.3220
 4303TIP3   OH237103   0.642   8.206  17.534  0.8067 -0.0268 -0.0305
 4303TIP3    H137104   0.685   8.151  17.470  0.9086  0.0524 -0.0318
 4303TIP3    H237105   0.702   8.280  17.546  0.2951  0.4928 -0.6320
 4304TIP3   OH237106   6.164   9.014  17.485 -0.5134 -0.5003  0.2159
 4304TIP3    H137107   6.177   8.932  17.437  1.3733  0.1885 -0.5599
 4304TIP3    H237108   6.252   9.047  17.502 -1.1936  1.6626 -0.0380
 4305TIP3   OH237109   3.877   1.159  17.760 -0.0626 -0.2512 -0.0198
 4305TIP3    H137110   3.841   1.244  17.784  0.5332 -0.0010  0.0200
 4305TIP3    H237111   3.972   1.170  17.771 -0.0286 -1.1684  0.7871
 4306TIP3   OH237112   2.091   3.284  16.114  0.2724 -0.0308 -0.1942
 4306TIP3    H137113   2.185   3.280  16.129  0.1749 -1.0187  0.2164
 4306TIP3    H237114   2.071   3.204  16.067 -0.0814  1.0792 -2.0055
 4307TIP3   OH237115   3.887   6.235  17.110  0.3470 -0.2313  0.2011
 4307TIP3    H137116   3.842   6.307  17.064 -0.6328 -0.9050  0.0758
 4307TIP3    H237117   3.846   6.156  17.076  1.1920 -0.8419  0.5862
 4308TIP3   OH237118   1.417   3.111  16.196 -0.4909  0.5856 -0.1569
 4308TIP3    H137119   1.492   3.054  16.179 -0.4495  0.6975 -0.3554
 4308TIP3    H237120   1.445   3.167  16.268 -0.5719  0.2824  0.1134
 4309TIP3   OH237121   5.980   3.178  16.905 -0.0122  0.2730 -0.3334
 4309TIP3    H137122   5.997   3.127  16.984 -0.7631  2.4174  1.3006
 4309TIP3    H237123   6.020   3.263  16.922 -1.6627  1.3541 -1.4992
 4310TIP3   OH237124   1.604   8.838  17.381 -0.1418 -0.4460  0.0331
 4310TIP3    H137125   1.609   8.918  17.329  0.8228 -0.2815  0.3753
 4310TIP3    H237126   1.691   8.799  17.376 -0.1685 -0.6944  1.1033
 4311TIP3   OH237127   6.314   3.982  16.893 -0.1321  0.3634 -0.4266
 4311TIP3    H137128   6.291   4.071  16.922  0.0654  0.3361 -0.1754
 4311TIP3    H237129   6.245   3.958  16.832 -2.1572 -0.6453  2.0650
 4312TIP3   OH237130   8.442   7.364  17.292 -0.5229 -0.4004 -0.1678
 4312TIP3    H137131   8.439   7.338  17.200 -2.9176 -2.9256  0.4994
 4312TIP3    H237132   8.355   7.346  17.325  0.5324 -0.4608  2.8574
 4313TIP3   OH237133   0.920   7.568  16.209 -0.0865  0.1236  0.8810
 4313TIP3    H137134   0.825   7.569  16.222 -0.2535  0.5259 -0.1971
 4313TIP3    H237135   0.953   7.638  16.265 -0.2571 -0.9090  2.3039
 4314TIP3   OH237136   4.172   6.071  17.625  0.0195 -0.3021 -0.1627
 4314TIP3    H137137   4.244   6.024  17.667 -1.7065 -1.3562  1.7841
 4314TIP3    H237138   4.161   6.150  17.678 -0.6319 -0.4592 -0.0543
 4315TIP3   OH237139   5.060   0.546  18.022  0.6372  0.0969  0.0303
 4315TIP3    H137140   5.126   0.510  18.081 -1.0315 -1.6949  0.9351
 4315TIP3    H237141   5.070   0.496  17.941  0.7518  0.2029 -0.0208
 4316TIP3   OH237142   6.301   0.814  16.668 -0.0965  0.4049  0.0156
 4316TIP3    H137143   6.246   0.844  16.596 -1.8773 -3.4201 -0.4701
 4316TIP3    H237144   6.361   0.751  16.628  0.9268  0.4288  1.4446
 4317TIP3   OH237145   8.452   3.337  16.814  0.3583 -0.1109  0.2020
 4317TIP3    H137146   8.387   3.290  16.866  0.2664 -0.7791 -0.4900
 4317TIP3    H237147   8.400   3.393  16.756  0.4763  1.3229  1.4101
 4318TIP3   OH237148   0.297   3.051  16.359  0.1343 -0.5433  0.1220
 4318TIP3    H137149   0.291   2.958  16.339  0.9659 -0.4743 -0.4979
 4318TIP3    H237150   0.326   3.092  16.277  1.6806 -0.0035  0.8986
 4319TIP3   OH237151   8.549   5.559  16.859 -0.4183 -0.6619  0.0148
 4319TIP3    H137152   8.607   5.497  16.814  2.8931  1.7956  0.5234
 4319TIP3    H237153   8.566   5.545  16.952  0.4027  0.9899  0.1321
 4320TIP3   OH237154   6.886   2.530  18.000  0.1218  0.5072  0.3909
 4320TIP3    H137155   6.980   2.517  18.013  0.7742  0.1608 -3.6606
 4320TIP3    H237156   6.878   2.621  17.971 -0.4075 -0.1250 -1.5946
 4321TIP3   OH237157   4.179   5.465  16.626  0.2898  0.1729  0.9009
 4321TIP3    H137158   4.226   5.386  16.598  0.2389 -0.3013  2.0858
 4321TIP3    H237159   4.221   5.491  16.708  1.2145  2.2087 -0.1502
 4322TIP3   OH237160   5.457   7.980  17.652 -0.0670  0.1849 -0.3573
 4322TIP3    H137161   5.452   8.046  17.721  1.6606  1.1998 -1.1123
 4322TIP3    H237162   5.404   7.907  17.683  2.0155 -0.1185  2.8456
 4323TIP3   OH237163   3.113   5.777  16.640  0.2250  1.6328 -0.2328
 4323TIP3    H137164   3.048   5.820  16.584  0.9179  1.4527 -1.2174
 4323TIP3    H237165   3.181   5.747  16.578  0.5707  0.6133  0.6131
 4324TIP3   OH237166   3.697   9.022  17.453  0.2817 -0.8990  0.3828
 4324TIP3    H137167   3.708   9.083  17.380 -0.5878 -0.2092  0.8077
 4324TIP3    H237168   3.709   9.076  17.531 -1.5815 -1.0060  0.7857
 4325TIP3   OH237169   5.632   8.941  16.000 -0.1998 -0.1939  0.1672
 4325TIP3    H137170   5.549   8.969  16.038  0.0056  0.0981  0.4000
 4325TIP3    H237171   5.667   8.878  16.062 -0.9039 -1.3742 -0.5989
 4326TIP3   OH237172   4.379   4.286  16.014 -0.0040 -0.2305  1.3252
 4326TIP3    H137173   4.368   4.337  15.934  0.8334 -0.6814  0.9149
 4326TIP3    H237174   4.312   4.321  16.073 -0.7828 -0.0449  0.3639
 4327TIP3   OH237175   5.456   3.865  16.549  0.1648  0.6245 -0.3639
 4327TIP3    H137176   5.368   3.889  16.518  0.4086  1.5625 -0.3673
 4327TIP3    H237177   5.496   3.821  16.474 -0.9389 -1.5481  0.2423
 4328TIP3   OH237178   4.327   5.265  16.274 -0.2960 -0.7396 -0.5068
 4328TIP3    H137179   4.323   5.256  16.369  2.8578  0.5262 -0.1348
 4328TIP3    H237180   4.325   5.359  16.258  1.0649 -0.8450 -1.5082
 4329TIP3   OH237181   3.725   0.955  17.850  0.3717 -0.4881 -0.1090
 4329TIP3    H137182   3.789   1.022  17.824 -0.4473  1.1265  1.7056
 4329TIP3    H237183   3.774   0.898  17.909  0.5929 -0.3115 -0.1189
 4330TIP3   OH237184   8.365   7.230  17.030 -0.3293 -0.1358  0.1730
 4330TIP3    H137185   8.336   7.160  16.971  0.6768  0.3228 -0.9261
 4330TIP3    H237186   8.388   7.302  16.971 -0.3381  0.7469  1.2151
 4331TIP3   OH237187   6.931   5.237  16.678 -0.0032  0.1272 -0.1035
 4331TIP3    H137188   6.975   5.241  16.593 -0.4032 -1.3195 -0.4122
 4331TIP3    H237189   6.839   5.251  16.659 -0.1362 -0.5248  0.0437
 4332TIP3   OH237190   5.898   8.355  17.260  0.2793  0.2678 -0.0012
 4332TIP3    H137191   5.948   8.292  17.208 -1.1260 -0.2217 -0.8136
 4332TIP3    H237192   5.840   8.301  17.314 -1.3351  0.8188 -1.1003
 4333TIP3   OH237193   5.358   5.638  17.147 -0.1375  0.6225  0.2453
 4333TIP3    H137194   5.452   5.642  17.127 -0.3015  0.4868 -0.6103
 4333TIP3    H237195   5.353   5.633  17.242  0.8444 -2.6599  0.2501
 4334TIP3   OH237196   2.194   2.843  15.942 -0.0023  0.2777 -0.5767
 4334TIP3    H137197   2.280   2.845  15.984  0.0817  1.0695 -0.7637
 4334TIP3    H237198   2.212   2.817  15.852  0.2613  2.0249 -1.0635
 4335TIP3   OH237199   2.842   4.922  17.150  0.0893  0.4881  0.3414
 4335TIP3    H137200   2.757   4.884  17.174  1.4125 -1.1721  2.7733
 4335TIP3    H237201   2.887   4.851  17.104  1.1186  0.3962  1.4439
 4336TIP3   OH237202   0.563   0.247  17.254  0.2972 -0.2683 -0.0607
 4336TIP3    H137203   0.545   0.155  17.235 -0.4507 -0.5233  1.7410
 4336TIP3    H237204   0.494   0.295  17.209  0.5041 -0.5784 -0.7391
 4337TIP3   OH237205   6.639   3.574  17.025  1.4301  0.1509  0.1262
 4337TIP3    H137206   6.650   3.550  17.117 -0.7763  0.9622  0.6521
 4337TIP3    H237207   6.627   3.669  17.026 -1.2878 -0.1189 -0.6477
 4338TIP3   OH237208   8.711   6.289  16.507  0.0833 -0.0256 -0.4149
 4338TIP3    H137209   8.776   6.245  16.562  1.1142  1.7192 -0.1425
 4338TIP3    H237210   8.755   6.300  16.423  0.0426  0.8733 -0.3309
 4339TIP3   OH237211   5.454   6.209  17.200 -0.1725 -0.0724  0.0164
 4339TIP3    H137212   5.424   6.222  17.110  1.3921  1.6986 -0.3105
 4339TIP3    H237213   5.454   6.297  17.238  0.8054 -0.5719  1.2157
 4340TIP3   OH237214   0.365   5.269  17.840 -0.4515 -0.0875  0.3243
 4340TIP3    H137215   0.293   5.327  17.863 -0.6375 -0.6568  1.1860
 4340TIP3    H237216   0.324   5.187  17.813 -0.1725  0.0364 -0.5267
 4341TIP3   OH237217   2.156   8.828  17.293  0.0347  0.2499  0.5486
 4341TIP3    H137218   2.247   8.813  17.317  0.5741  0.9505 -0.9637
 4341TIP3    H237219   2.151   8.921  17.272 -0.1756 -0.3624 -2.6003
 4342TIP3   OH237220   4.111   3.446  17.766 -0.6257 -0.2968 -0.1111
 4342TIP3    H137221   4.075   3.524  17.724 -0.6499 -0.0470  0.3729
 4342TIP3    H237222   4.187   3.423  17.712 -0.2212  0.4511  0.1348
 4343TIP3   OH237223   4.229   7.429  17.280 -0.0990 -0.4802 -0.3110
 4343TIP3    H137224   4.141   7.403  17.305  0.1888  0.2152  1.6040
 4343TIP3    H237225   4.273   7.447  17.363  1.6686 -0.2360 -1.2513
 4344TIP3   OH237226   6.980   0.731  17.372 -0.1821 -0.0814  0.6172
 4344TIP3    H137227   6.987   0.638  17.392  0.9995  0.1918  1.5247
 4344TIP3    H237228   7.029   0.742  17.290 -0.7413 -0.3231  0.2400
 4345TIP3   OH237229   3.452   1.550  15.957  0.1196 -0.4700 -0.4305
 4345TIP3    H137230   3.443   1.505  16.041  0.0914 -0.8514 -0.6324
 4345TIP3    H237231   3.529   1.606  15.968  1.0260 -1.6347 -0.6309
 4346TIP3   OH237232   9.065   7.570  17.371 -0.3932  0.5240 -0.2503
 4346TIP3    H137233   9.127   7.500  17.389  1.2410  1.3431 -2.2952
 4346TIP3    H237234   9.074   7.630  17.445  0.3078 -0.0035  0.1003
 4347TIP3   OH237235   3.700   3.445  17.013 -0.4762 -0.4078 -0.0200
 4347TIP3    H137236   3.789   3.475  16.993 -0.5942  0.3000  0.4563
 4347TIP3    H237237   3.668   3.508  17.078 -0.4574 -2.0597  1.6690
 4348TIP3   OH237238   1.206   5.556  16.734  0.3389  0.3760  0.1262
 4348TIP3    H137239   1.204   5.492  16.663  1.4689 -1.0091  1.2962
 4348TIP3    H237240   1.139   5.620  16.709 -0.5429 -1.0074 -1.2963
 4349TIP3   OH237241   7.767   6.790  17.524  0.7857 -0.6778 -0.5011
 4349TIP3    H137242   7.822   6.866  17.545  1.5265 -1.7330  1.5948
 4349TIP3    H237243   7.745   6.802  17.432  1.6102  1.6173 -0.4721
 4350TIP3   OH237244   5.560   0.489  16.075  0.1307  0.0766 -0.1464
 4350TIP3    H137245   5.637   0.432  16.072 -0.2322 -0.3857 -2.0729
 4350TIP3    H237246   5.486   0.430  16.063 -0.3165  0.8000 -1.1288
 4351TIP3   OH237247   6.157   3.464  16.369 -0.1643  0.2980 -0.3902
 4351TIP3    H137248   6.101   3.410  16.425 -0.7946  0.8218 -0.4971
 4351TIP3    H237249   6.096   3.505  16.307  0.4989 -0.1660 -1.3811
 4352TIP3   OH237250   5.320   0.548  16.290 -0.4767  0.2504  0.1523
 4352TIP3    H137251   5.391   0.484  16.278  2.7908  3.7511 -1.3434
 4352TIP3    H237252   5.270   0.544  16.208  1.0409  0.9971 -0.8585
 4353TIP3   OH237253   7.326   6.889  17.629 -0.1935  0.1385  0.4743
 4353TIP3    H137254   7.237   6.879  17.596  0.3303 -0.6582 -0.7542
 4353TIP3    H237255   7.329   6.978  17.665 -0.4641  1.5591 -2.7437
 4354TIP3   OH237256   2.879   2.508  16.059 -0.0789 -0.7550  0.6998
 4354TIP3    H137257   2.945   2.504  16.128 -2.6006  0.0074  3.3504
 4354TIP3    H237258   2.839   2.421  16.059 -0.7574 -0.4473  0.9191
 4355TIP3   OH237259   2.063   6.954  17.323  0.0743 -0.4666 -0.3809
 4355TIP3    H137260   2.118   6.875  17.320 -0.3126 -0.7806  0.5168
 4355TIP3    H237261   2.115   7.018  17.372  0.0885 -0.4059 -0.4752
 4356TIP3   OH237262   6.801   7.156  17.547 -0.1753  0.3931  0.3237
 4356TIP3    H137263   6.771   7.211  17.475  1.0369  2.9425  1.6073
 4356TIP3    H237264   6.888   7.191  17.568 -0.0345 -0.9921  2.2758
 4357TIP3   OH237265   6.181   0.893  16.391 -0.1289  0.4518  0.5617
 4357TIP3    H137266   6.168   0.826  16.325 -1.9463  2.6399 -1.4934
 4357TIP3    H237267   6.093   0.914  16.422  0.3491  2.0382  0.9538
 4358TIP3   OH237268   7.908   0.128  17.137 -0.2235  0.3505 -0.3791
 4358TIP3    H137269   7.889   0.222  17.141 -2.3803 -0.0213 -0.5836
 4358TIP3    H237270   7.880   0.102  17.049 -2.0357 -0.8961  0.5127
 4359TIP3   OH237271   6.276   5.437  15.630  0.6290 -0.1260 -0.1149
 4359TIP3    H137272   6.364   5.463  15.604  0.5965  1.6881  1.3692
 4359TIP3    H237273   6.219   5.505  15.592  0.2385  0.5418  1.5610
 4360TIP3   OH237274   4.693   1.227  17.271 -0.1087 -0.3682 -0.5349
 4360TIP3    H137275   4.657   1.305  17.313 -0.6588 -0.1358 -1.4121
 4360TIP3    H237276   4.744   1.260  17.197 -0.1946 -0.8311 -0.8073
 4361TIP3   OH237277   4.304   8.176  16.362  0.2329 -0.2891 -0.1890
 4361TIP3    H137278   4.217   8.205  16.333 -0.3605  0.3863  2.1037
 4361TIP3    H237279   4.309   8.085  16.333 -2.3141 -1.1692  1.7131
 4362TIP3   OH237280   2.496   4.040  16.218 -1.1705 -0.2678 -0.2064
 4362TIP3    H137281   2.587   4.061  16.199 -1.4161 -0.2047 -1.3718
 4362TIP3    H237282   2.495   4.020  16.312 -0.1351  0.6347  0.0116
 4363TIP3   OH237283   1.429   7.169  16.870  0.0563  0.2272 -0.1670
 4363TIP3    H137284   1.484   7.124  16.806 -0.1183 -2.0108  1.1425
 4363TIP3    H237285   1.390   7.098  16.922  0.5301  1.9116  2.7069
 4364TIP3   OH237286   6.183   1.828  17.708 -0.4570  0.3373  0.0959
 4364TIP3    H137287   6.263   1.874  17.733 -0.5206  0.9524 -0.7810
 4364TIP3    H237288   6.212   1.760  17.647 -0.6323  0.7978 -0.5118
 4365TIP3   OH237289   6.939   3.017  15.998  0.2712  0.1752 -0.5260
 4365TIP3    H137290   6.857   3.029  16.045  0.0917  0.7732 -0.9801
 4365TIP3    H237291   6.981   3.103  15.999  0.8115 -0.0813 -0.4528
 4366TIP3   OH237292   1.768   5.751  15.884 -0.4027  0.0410 -0.0920
 4366TIP3    H137293   1.705   5.685  15.913 -0.3286  0.9591  2.3726
 4366TIP3    H237294   1.716   5.831  15.875 -0.3643 -0.1166 -2.4209
 4367TIP3   OH237295   4.154   1.738  17.719  0.4474 -0.5692  0.1901
 4367TIP3    H137296   4.178   1.824  17.755 -0.4586 -0.4828  0.6101
 4367TIP3    H237297   4.065   1.723  17.751 -0.3310 -0.6011 -1.8609
 4368TIP3   OH237298   1.081   3.140  16.716 -0.4270 -0.5044 -0.4393
 4368TIP3    H137299   1.096   3.053  16.678  1.5411  0.4181 -1.9307
 4368TIP3    H237300   1.115   3.201  16.651 -1.7211  1.4227  0.5931
 4369TIP3   OH237301   0.238   7.429  16.178 -0.2207  0.3862  0.0472
 4369TIP3    H137302   0.293   7.379  16.238  0.2988  1.2781  0.3319
 4369TIP3    H237303   0.283   7.512  16.167 -1.0530  0.7930 -0.4379
 4370TIP3   OH237304   8.963   7.305  16.764 -0.0033  0.4761 -0.2094
 4370TIP3    H137305   9.016   7.281  16.840 -0.2804 -0.2722 -0.2399
 4370TIP3    H237306   9.026   7.332  16.698  0.1747  2.7397  0.7913
 4371TIP3   OH237307   2.725   0.393  16.553  0.2335  0.1718  0.1898
 4371TIP3    H137308   2.719   0.488  16.541  0.7235  0.3374  1.1183
 4371TIP3    H237309   2.812   0.370  16.521  0.5033  0.2010  0.8805
 4372TIP3   OH237310   5.236   3.260  17.683  0.2762  0.2400 -0.0815
 4372TIP3    H137311   5.186   3.180  17.702  1.4937 -0.5054  0.0832
 4372TIP3    H237312   5.171   3.321  17.647 -1.3032  0.2691  2.5923
 4373TIP3   OH237313   2.798   4.930  16.206  0.1686 -0.2762  0.0514
 4373TIP3    H137314   2.762   4.850  16.170 -1.5518  0.8736 -0.9020
 4373TIP3    H237315   2.882   4.941  16.162  0.6833 -1.7878  0.5905
 4374TIP3   OH237316   7.700   8.488  17.254 -0.2425 -0.3720 -0.0011
 4374TIP3    H137317   7.659   8.571  17.279 -0.1170 -0.4246  0.3941
 4374TIP3    H237318   7.672   8.472  17.164  0.2264  0.4046 -0.2907
 4375TIP3   OH237319   0.466   5.869  16.372 -0.6838  0.7801 -0.2355
 4375TIP3    H137320   0.497   5.838  16.456  1.4589 -0.1277 -1.2950
 4375TIP3    H237321   0.372   5.850  16.372 -1.1952  2.6805  2.6986
 4376TIP3   OH237322   3.658   5.860  16.504 -0.2102  0.1168  0.1503
 4376TIP3    H137323   3.716   5.917  16.555 -0.0343  0.1152 -0.0475
 4376TIP3    H237324   3.716   5.792  16.469 -0.2176  0.4921 -0.5998
 4377TIP3   OH237325   2.704   2.011  17.215  0.1035 -0.1915 -0.9105
 4377TIP3    H137326   2.733   1.995  17.126 -0.1597 -1.1002 -0.8396
 4377TIP3    H237327   2.750   1.946  17.268 -0.1045  0.0303 -0.4457
 4378TIP3   OH237328   4.867   9.075  16.839  0.4509 -0.2826  0.5887
 4378TIP3    H137329   4.951   9.048  16.876 -0.0501 -1.5997  0.7997
 4378TIP3    H237330   4.838   9.000  16.787 -0.2229  0.4639 -0.1332
 4379TIP3   OH237331   5.532   1.305  17.127  0.2892  0.0410 -0.7301
 4379TIP3    H137332   5.542   1.370  17.058  1.4957 -0.4180 -1.0221
 4379TIP3    H237333   5.437   1.294  17.137  0.0872  1.0659 -1.3959
 4380TIP3   OH237334   1.630   2.878  17.630 -0.2698 -0.9310  0.1903
 4380TIP3    H137335   1.536   2.877  17.649 -0.4854  1.1440 -0.5313
 4380TIP3    H237336   1.637   2.834  17.545 -0.8822  0.6543 -0.7225
 4381TIP3   OH237337   3.687   1.739  17.944 -0.6451  0.5968 -0.4197
 4381TIP3    H137338   3.660   1.792  17.869  0.5096  1.4792 -0.2541
 4381TIP3    H237339   3.630   1.768  18.015 -0.3964  1.2237 -0.4697
 4382TIP3   OH237340   1.351   8.341  16.673  0.2884 -0.2317 -0.0970
 4382TIP3    H137341   1.372   8.387  16.754  0.4387  0.8875 -0.7514
 4382TIP3    H237342   1.294   8.402  16.625 -0.1028 -1.0331 -0.6702
 4383TIP3   OH237343   4.792   6.043  16.968  0.1202  0.0858 -0.1052
 4383TIP3    H137344   4.855   6.095  16.917  0.3415  0.6982  0.7667
 4383TIP3    H237345   4.816   6.059  17.059 -0.7986 -0.3159  0.2174
 4384TIP3   OH237346   3.441   0.752  17.901  0.4730  0.3898  0.3212
 4384TIP3    H137347   3.368   0.814  17.902  0.5092  0.5082 -1.4794
 4384TIP3    H237348   3.504   0.791  17.841  0.7755 -1.0708 -0.3428
 4385TIP3   OH237349   6.837   5.841  17.700  0.6505 -0.3908 -0.4497
 4385TIP3    H137350   6.882   5.925  17.712 -0.6206  0.5636 -1.9604
 4385TIP3    H237351   6.774   5.837  17.772  2.0025 -1.0017  0.7569
 4386TIP3   OH237352   6.879   7.399  16.462 -0.2844 -0.2542 -0.4179
 4386TIP3    H137353   6.863   7.440  16.546  0.1490  1.5397 -1.1668
 4386TIP3    H237354   6.866   7.306  16.478 -1.5979  0.1733  1.2915
 4387TIP3   OH237355   3.332   0.967  17.252 -0.3541 -0.0978  0.3292
 4387TIP3    H137356   3.340   0.871  17.254 -1.3376 -0.1850  1.4527
 4387TIP3    H237357   3.394   0.997  17.319 -0.9195 -0.0411  0.8370
 4388TIP3   OH237358   3.632   1.988  15.816 -0.0678  0.1073 -0.5397
 4388TIP3    H137359   3.542   1.974  15.787  0.0841  0.2083 -1.0694
 4388TIP3    H237360   3.674   1.903  15.807 -0.4601 -0.2841  1.0178
 4389TIP3   OH237361   4.508   0.494  17.623  0.1317  0.4521 -0.7045
 4389TIP3    H137362   4.454   0.510  17.545 -1.7704  1.9320  0.7949
 4389TIP3    H237363   4.590   0.540  17.605  0.1521 -0.1198 -2.2273
 4390TIP3   OH237364   3.446   6.951  17.551 -0.1153  0.1131  0.0304
 4390TIP3    H137365   3.467   7.028  17.605  1.1345  0.5971 -1.1067
 4390TIP3    H237366   3.429   6.987  17.464  0.3366 -0.8772 -0.4815
 4391TIP3   OH237367   3.253   4.029  16.918 -0.1533  0.0091 -0.0356
 4391TIP3    H137368   3.172   4.079  16.919 -0.3256 -0.2143 -1.4415
 4391TIP3    H237369   3.256   3.988  16.832  1.0744 -0.6193  0.2708
 4392TIP3   OH237370   8.463   2.931  16.054 -0.5875 -0.7624 -0.3238
 4392TIP3    H137371   8.424   3.015  16.030  0.3733 -0.5161 -1.0704
 4392TIP3    H237372   8.424   2.910  16.139 -1.1356  0.2423 -0.3112
 4393TIP3   OH237373   4.236   2.163  17.637 -0.5417  0.0089  0.1377
 4393TIP3    H137374   4.244   2.088  17.697 -0.1164  1.8016  2.4568
 4393TIP3    H237375   4.206   2.124  17.555  0.9068 -2.8723  0.8285
 4394TIP3   OH237376   7.225   1.969  17.247 -0.2654  0.6802 -0.2233
 4394TIP3    H137377   7.199   1.989  17.337  0.6479 -0.3896  0.2972
 4394TIP3    H237378   7.152   1.917  17.212  0.6949 -1.6277  0.9685
 4395TIP3   OH237379   8.768   1.236  16.714 -0.0182 -0.1531  0.0998
 4395TIP3    H137380   8.803   1.166  16.659  0.7892  0.7870 -0.6280
 4395TIP3    H237381   8.846   1.283  16.745 -0.5778  1.9716 -1.5038
 4396TIP3   OH237382   5.721   8.626  18.092 -0.0146  0.0997  0.0479
 4396TIP3    H137383   5.644   8.599  18.142 -0.6546 -0.8371 -1.3785
 4396TIP3    H237384   5.712   8.582  18.007  0.3522  2.6225 -1.4052
 4397TIP3   OH237385   6.427   7.501  17.298 -0.1114 -0.3249  0.3684
 4397TIP3    H137386   6.422   7.417  17.343 -1.7386 -0.9394 -0.8549
 4397TIP3    H237387   6.519   7.527  17.305  0.9658 -3.2839 -1.0968
 4398TIP3   OH237388   8.724   3.794  17.212  0.2679  0.0274 -0.0709
 4398TIP3    H137389   8.770   3.790  17.128  0.0892  0.3689 -0.1866
 4398TIP3    H237390   8.634   3.816  17.189  0.4208  1.0616  0.2675
 4399TIP3   OH237391   1.660   4.872  17.160  0.0436 -0.5387 -0.7152
 4399TIP3    H137392   1.589   4.924  17.122  0.0147  0.4345  0.5587
 4399TIP3    H237393   1.620   4.828  17.235  0.3336 -1.5701 -1.1519
 4400TIP3   OH237394   1.591   1.948  16.362 -0.1828  0.0291  0.6590
 4400TIP3    H137395   1.573   1.990  16.446 -1.0064 -0.1887  0.5992
 4400TIP3    H237396   1.632   1.865  16.385 -0.4298 -0.0410  0.8476
 4401TIP3   OH237397   1.027   1.093  17.004 -0.5324  0.1567 -0.3426
 4401TIP3    H137398   0.995   1.129  17.087 -1.1604  0.5017 -0.7246
 4401TIP3    H237399   0.995   1.003  17.002  1.7260 -0.7321  0.9887
 4402TIP3   OH237400   3.254   9.072  17.049 -0.2265 -0.0308 -0.1488
 4402TIP3    H137401   3.179   9.071  17.108  0.0921 -3.2237  0.4071
 4402TIP3    H237402   3.328   9.044  17.103  1.4029  2.7832 -0.7469
 4403TIP3   OH237403   1.705   8.049  16.168 -0.1446  0.0549 -0.3366
 4403TIP3    H137404   1.621   8.079  16.204  0.1159  0.0309  0.3008
 4403TIP3    H237405   1.757   8.129  16.161  0.8100 -0.2679  2.0492
 4404TIP3   OH237406   0.487   5.044  17.530 -0.5210  0.3334 -0.3826
 4404TIP3    H137407   0.410   5.070  17.580  0.3760  1.4678  0.4590
 4404TIP3    H237408   0.519   5.125  17.490  0.2063 -0.1294 -0.7797
 4405TIP3   OH237409   8.949   9.168  17.573  0.3200  0.7605  0.2645
 4405TIP3    H137410   8.892   9.229  17.620  0.9991  0.5585  1.3878
 4405TIP3    H237411   9.028   9.219  17.555  0.2141  0.7185 -0.3325
 4406TIP3   OH237412   5.850   8.481  17.602  0.0719 -0.3521  0.4113
 4406TIP3    H137413   5.935   8.437  17.595  0.0991 -0.3070  0.4496
 4406TIP3    H237414   5.866   8.568  17.568 -0.3975 -0.9004 -1.2881
 4407TIP3   OH237415   7.071   0.736  17.749  0.7511 -0.7153 -0.6419
 4407TIP3    H137416   7.045   0.814  17.699  1.3709 -0.9546 -1.3705
 4407TIP3    H237417   7.145   0.765  17.803 -0.2515 -0.3261  0.5482
 4408TIP3   OH237418   3.664   4.709  16.569  0.3868  0.0063 -0.1633
 4408TIP3    H137419   3.611   4.631  16.551  0.8519 -0.1712 -0.7769
 4408TIP3    H237420   3.753   4.676  16.576  0.7983  0.6648 -1.8671
 4409TIP3   OH237421   1.588   7.181  17.191 -0.3174 -0.4341  0.5886
 4409TIP3    H137422   1.530   7.257  17.183  0.1231 -0.2129 -1.1459
 4409TIP3    H237423   1.674   7.219  17.211 -0.5583 -0.6941  2.2542
 4410TIP3   OH237424   7.176   5.627  16.502 -0.2493 -0.5176  0.3416
 4410TIP3    H137425   7.090   5.631  16.545  0.9585 -1.1254  2.9673
 4410TIP3    H237426   7.190   5.716  16.470 -2.5716 -0.7874 -1.8024
 4411TIP3   OH237427   2.843   7.028  16.910  0.3879  0.3623  0.1307
 4411TIP3    H137428   2.924   7.077  16.895  1.2450 -1.2354 -0.7040
 4411TIP3    H237429   2.871   6.937  16.917 -1.4728 -0.4723 -1.9604
 4412TIP3   OH237430   2.444   8.049  16.496 -0.3483 -0.0078  0.0721
 4412TIP3    H137431   2.422   8.132  16.539 -1.7564 -0.6045  0.5292
 4412TIP3    H237432   2.403   8.055  16.410 -0.6382 -0.3126  0.1866
 4413TIP3   OH237433   1.787   0.080  17.189  0.5180  0.0190  0.1316
 4413TIP3    H137434   1.800   0.033  17.107 -1.7367 -1.5494  0.5704
 4413TIP3    H237435   1.702   0.123  17.179  0.5479  0.4126  1.3688
 4414TIP3   OH237436   1.165   0.567  17.095 -0.0011  0.2442 -0.3394
 4414TIP3    H137437   1.213   0.496  17.139 -1.1561 -0.4775 -0.2147
 4414TIP3    H237438   1.213   0.579  17.013 -0.1293 -1.1278 -0.6478
 4415TIP3   OH237439   4.277   6.319  15.726 -0.2149 -0.5199 -0.2573
 4415TIP3    H137440   4.244   6.326  15.816 -1.1432 -2.7716 -0.3391
 4415TIP3    H237441   4.371   6.336  15.733 -0.7674  2.9387  0.5022
 4416TIP3   OH237442   6.101   2.608  17.099  0.7687  0.5143  0.1385
 4416TIP3    H137443   6.140   2.580  17.181  0.7756  0.8644  0.2588
 4416TIP3    H237444   6.176   2.622  17.040  0.7124 -0.5636 -0.1966
 4417TIP3   OH237445   7.153   8.426  16.161 -0.9606 -0.5574  0.2900
 4417TIP3    H137446   7.156   8.352  16.101  0.6265  0.4753 -1.0000
 4417TIP3    H237447   7.060   8.443  16.174 -1.3765 -0.6570 -2.1274
 4418TIP3   OH237448   9.209   5.106  17.724 -0.7068 -0.1173  0.2977
 4418TIP3    H137449   9.209   5.017  17.689  2.5699  0.2446 -0.9663
 4418TIP3    H237450   9.291   5.113  17.773 -2.0690  1.5007  2.5332
 4419TIP3   OH237451   3.280   0.473  17.527  0.3168 -0.8972  0.1035
 4419TIP3    H137452   3.346   0.472  17.458  1.2389  0.0282  0.9346
 4419TIP3    H237453   3.217   0.406  17.501  1.3394 -1.4860 -0.9580
 4420TIP3   OH237454   5.430   2.809  17.204 -0.2775  0.3546 -0.1391
 4420TIP3    H137455   5.406   2.737  17.145 -0.6812 -0.1267  0.5935
 4420TIP3    H237456   5.422   2.888  17.151  1.5718 -0.2297 -1.3928
 4421TIP3   OH237457   0.223   2.306  17.695 -0.1674  0.3917 -0.6737
 4421TIP3    H137458   0.293   2.244  17.715  0.1511  0.5493 -1.2898
 4421TIP3    H237459   0.168   2.306  17.774  0.7196  0.5363 -0.0417
 4422TIP3   OH237460   5.162   9.154  17.133  0.7702  0.1869 -0.2656
 4422TIP3    H137461   5.120   9.240  17.121  1.5394  0.4843 -0.9040
 4422TIP3    H237462   5.157   9.112  17.048 -0.8376 -1.0093  0.3612
 4423TIP3   OH237463   6.124   3.925  17.315  0.4288  0.5467 -0.0728
 4423TIP3    H137464   6.171   3.939  17.397  0.4620 -1.1296  0.2388
 4423TIP3    H237465   6.192   3.933  17.247  0.2004  3.0813 -0.1046
 4424TIP3   OH237466   2.115   3.333  17.212  1.1005 -0.4265 -0.4077
 4424TIP3    H137467   2.024   3.307  17.220  0.5644  0.8985 -1.7093
 4424TIP3    H237468   2.163   3.273  17.270 -0.8486  0.4672  2.2796
 4425TIP3   OH237469   8.185   1.144  17.070  0.1342 -0.8164  0.2589
 4425TIP3    H137470   8.200   1.225  17.020 -1.0265 -1.9216 -2.0361
 4425TIP3    H237471   8.263   1.135  17.124  1.9012  0.1084 -1.9404
 4426TIP3   OH237472   7.439   8.401  17.630  0.3667 -0.1712  0.6055
 4426TIP3    H137473   7.473   8.466  17.691 -0.6384  1.9119 -0.9449
 4426TIP3    H237474   7.358   8.370  17.671  0.0231  0.7534  0.6413
 4427TIP3   OH237475   7.365   8.199  17.462  0.4720 -0.5948 -0.5576
 4427TIP3    H137476   7.344   8.280  17.508  0.2013 -1.2679  0.5443
 4427TIP3    H237477   7.430   8.156  17.518  0.2023 -1.3959 -0.8462
 4428TIP3   OH237478   5.551   0.397  17.637  0.4531 -0.0109  0.2733
 4428TIP3    H137479   5.613   0.341  17.591 -1.2063  0.1662 -2.3464
 4428TIP3    H237480   5.472   0.345  17.645 -0.5133  1.2704 -0.5285
 4429TIP3   OH237481   0.996   3.223  17.095 -0.1729  0.3756 -0.9812
 4429TIP3    H137482   0.993   3.256  17.006  0.9025  1.3151 -0.6870
 4429TIP3    H237483   1.047   3.288  17.144 -3.1388  1.4837  1.0023
 4430TIP3   OH237484   3.704   9.011  17.922 -0.4565  0.0911  0.0869
 4430TIP3    H137485   3.782   8.979  17.967 -0.4352 -2.0578 -1.3336
 4430TIP3    H237486   3.656   9.060  17.989  1.7889  0.9781  1.1484
 4431TIP3   OH237487   5.087   8.334  16.041 -0.0810  0.4127 -0.0475
 4431TIP3    H137488   4.996   8.345  16.014 -0.4600 -2.0570 -0.0414
 4431TIP3    H237489   5.136   8.328  15.959 -0.4438 -1.5213 -0.1753
 4432TIP3   OH237490   5.738   4.827  16.678 -0.2399 -0.0816 -0.0493
 4432TIP3    H137491   5.755   4.751  16.733  0.8000 -0.8118 -1.3382
 4432TIP3    H237492   5.792   4.896  16.715 -0.3510 -0.2650  0.4628
 4433TIP3   OH237493   0.273   8.878  15.599 -0.3269 -0.1195 -0.1700
 4433TIP3    H137494   0.316   8.929  15.667 -0.8138 -0.4171  0.3687
 4433TIP3    H237495   0.221   8.941  15.551  0.5147  0.2062 -0.6866
 4434TIP3   OH237496   2.801   2.834  17.252  0.2680  0.0553  0.0182
 4434TIP3    H137497   2.837   2.886  17.180 -1.2971 -2.4069 -2.7072
 4434TIP3    H237498   2.869   2.769  17.271 -0.2088 -0.7047 -0.8317
 4435TIP3   OH237499   9.044   7.107  17.329 -0.3201  0.2177  0.3259
 4435TIP3    H137500   9.139   7.117  17.340  0.0478 -0.9152 -1.4057
 4435TIP3    H237501   9.021   7.036  17.388  0.6159 -1.9610 -1.7428
 4436TIP3   OH237502   0.468   6.087  16.791 -0.3412 -0.8272  0.0146
 4436TIP3    H137503   0.409   6.136  16.849 -0.5943 -0.3001 -0.6771
 4436TIP3    H237504   0.432   6.102  16.703 -0.5230 -2.3857 -0.2026
 4437TIP3   OH237505   2.413   8.598  17.093 -0.2722 -0.0430 -0.1120
 4437TIP3    H137506   2.442   8.685  17.066 -0.7477  0.5103  1.1099
 4437TIP3    H237507   2.363   8.566  17.018 -1.0583  1.2057 -0.1448
 4438TIP3   OH237508   9.152   5.984  16.711  0.3815  0.4006 -0.2183
 4438TIP3    H137509   9.222   5.926  16.742 -1.2751 -0.8613  1.4170
 4438TIP3    H237510   9.071   5.940  16.739 -1.0092  2.6173 -0.5534
 4439TIP3   OH237511   7.848   8.088  17.480  0.3325 -0.7400  0.4928
 4439TIP3    H137512   7.940   8.105  17.498  0.0868 -0.7783  1.8844
 4439TIP3    H237513   7.803   8.168  17.507  0.2599  0.8779 -3.7425
 4440TIP3   OH237514   8.397   7.523  16.689  0.7519 -0.2865 -0.7405
 4440TIP3    H137515   8.434   7.467  16.621  2.8411  1.9177 -1.5904
 4440TIP3    H237516   8.433   7.489  16.771  0.1823 -1.4974 -0.9857
 4441TIP3   OH237517   0.578   7.876  17.853  0.4391 -0.3375  0.1037
 4441TIP3    H137518   0.657   7.850  17.806  0.1192 -1.3908  0.1155
 4441TIP3    H237519   0.592   7.847  17.943  0.9306  1.4185  0.6272
 4442TIP3   OH237520   3.262   3.292  17.607 -0.0805  0.6384  0.3309
 4442TIP3    H137521   3.339   3.244  17.575  0.2879  0.8757  0.8402
 4442TIP3    H237522   3.292   3.383  17.612 -1.1691  1.2071 -1.9683
 4443TIP3   OH237523   9.146   8.067  16.598 -0.5507 -0.4107  0.0403
 4443TIP3    H137524   9.198   8.128  16.651  0.7062 -1.7783  0.4693
 4443TIP3    H237525   9.159   8.097  16.508  0.0926 -0.0684  0.2347
 4444TIP3   OH237526   6.337   5.796  16.851 -0.2311  0.2515  0.0263
 4444TIP3    H137527   6.394   5.872  16.837  0.0972 -0.1788 -1.0439
 4444TIP3    H237528   6.310   5.803  16.943  0.8316  0.9396  0.2989
 4445TIP3   OH237529   3.158   3.663  15.928  0.2055  0.0437 -0.6348
 4445TIP3    H137530   3.210   3.591  15.891 -2.4135 -1.5653 -1.5344
 4445TIP3    H237531   3.110   3.622  16.000 -2.0357  0.5434 -1.7386
 4446TIP3   OH237532   4.987   7.862  16.253  0.5930 -0.2997  0.1169
 4446TIP3    H137533   4.960   7.929  16.315  2.0175  0.0762  0.3633
 4446TIP3    H237534   4.959   7.780  16.294 -1.3092  0.1024 -0.2636
 4447TIP3   OH237535   4.356   4.145  16.346 -0.0386 -0.0508  0.1762
 4447TIP3    H137536   4.289   4.078  16.360  1.5968 -1.6805  0.6081
 4447TIP3    H237537   4.397   4.122  16.263  1.0348 -0.0544  0.6864
 4448TIP3   OH237538   5.604   9.032  17.163  0.2058 -0.2929  0.1968
 4448TIP3    H137539   5.529   9.090  17.169 -0.7956 -1.6398  1.2962
 4448TIP3    H237540   5.680   9.088  17.181 -0.5751  0.9361 -0.2228
 4449TIP3   OH237541   1.688   1.716  17.826 -0.0627  0.2628 -0.2670
 4449TIP3    H137542   1.660   1.807  17.818  0.4699  0.3922 -0.7146
 4449TIP3    H237543   1.613   1.665  17.795 -0.0658  0.5791 -0.7901
 4450TIP3   OH237544   5.075   4.376  17.127 -0.1769 -0.1912  0.4664
 4450TIP3    H137545   5.067   4.403  17.219  0.7560 -1.6853  1.0297
 4450TIP3    H237546   5.063   4.281  17.129 -0.7053 -0.1796 -1.0581
 4451TIP3   OH237547   2.314   5.781  17.462 -0.0546 -0.3157  0.1757
 4451TIP3    H137548   2.346   5.754  17.548 -0.0692  0.4669  0.4423
 4451TIP3    H237549   2.286   5.700  17.419 -0.0995 -0.7061  0.9273
 4452TIP3   OH237550   5.075   1.541  16.812  0.0471  0.4087  0.0933
 4452TIP3    H137551   5.145   1.597  16.843 -0.8707  1.4415  0.3472
 4452TIP3    H237552   5.090   1.533  16.718  0.5783  0.4957  0.1693
 4453TIP3   OH237553   3.628   3.195  16.540  0.2451 -0.0821 -0.4181
 4453TIP3    H137554   3.641   3.241  16.624  0.7747  0.3917 -0.7518
 4453TIP3    H237555   3.716   3.182  16.506 -0.0240  1.7950 -2.0029
 4454TIP3   OH237556   8.840   2.941  17.291  0.0278 -0.1817  0.1963
 4454TIP3    H137557   8.851   2.878  17.221  1.2712 -0.3116  0.4788
 4454TIP3    H237558   8.930   2.960  17.320 -0.4968 -1.0904  2.5911
 4455TIP3   OH237559   1.991   6.973  16.145  0.1017 -0.0505 -0.6926
 4455TIP3    H137560   2.009   7.050  16.199  1.1160 -0.0533 -1.0016
 4455TIP3    H237561   1.930   6.921  16.196  1.3178 -0.2350  0.6198
 4456TIP3   OH237562   7.516   1.507  17.248 -1.1008  0.1287 -0.3041
 4456TIP3    H137563   7.470   1.563  17.186 -0.0632  1.5076  0.1258
 4456TIP3    H237564   7.581   1.460  17.195  1.2775  2.8936 -0.0839
 4457TIP3   OH237565   0.206   6.040  17.526  0.3067  0.2051 -1.1530
 4457TIP3    H137566   0.247   5.958  17.498 -0.4704 -0.1779 -1.2217
 4457TIP3    H237567   0.120   6.039  17.484 -0.8018 -0.2479  0.9333
 4458TIP3   OH237568   7.552   9.207  16.050 -0.0414  0.1786  0.1319
 4458TIP3    H137569   7.624   9.165  16.002  0.6360 -1.1734  2.1751
 4458TIP3    H237570   7.595   9.273  16.104 -0.2769 -0.6629  1.4015
 4459TIP3   OH237571   0.642   6.637  16.981  0.1547 -0.4156  0.3387
 4459TIP3    H137572   0.586   6.714  16.991 -0.0464 -0.5244  0.0701
 4459TIP3    H237573   0.584   6.563  16.998  0.2660 -0.5196  0.2674
 4460TIP3   OH237574   0.419   1.118  17.750 -0.4706 -0.1138 -0.6221
 4460TIP3    H137575   0.510   1.112  17.778  0.2866  3.7350 -1.5521
 4460TIP3    H237576   0.371   1.065  17.812  2.2616 -1.3550  0.6237
 4461TIP3   OH237577   4.676   8.983  16.157 -0.3355 -0.4529  0.0120
 4461TIP3    H137578   4.769   8.990  16.132  0.1571 -3.4781  0.6099
 4461TIP3    H237579   4.678   8.964  16.250 -1.5559 -0.9460 -0.0543
 4462TIP3   OH237580   0.750   0.444  16.732  0.8821  0.8478 -0.5852
 4462TIP3    H137581   0.693   0.438  16.808 -0.3264 -0.5325 -1.5275
 4462TIP3    H237582   0.815   0.375  16.745  0.0076 -0.1467 -1.2734
 4463TIP3   OH237583   5.188   5.291  15.785 -0.2424 -0.0171  0.0553
 4463TIP3    H137584   5.218   5.365  15.732 -3.6489  2.2582  0.9188
 4463TIP3    H237585   5.268   5.253  15.821  1.9368  0.6969 -3.5455
 4464TIP3   OH237586   6.977   0.349  17.313 -0.1937 -0.2430 -0.3586
 4464TIP3    H137587   6.944   0.292  17.383  2.7947  0.8067  2.1535
 4464TIP3    H237588   7.042   0.296  17.267  1.8240  0.6603  1.3064
 4465TIP3   OH237589   3.586   0.122  16.393  0.2929 -0.0033 -0.4246
 4465TIP3    H137590   3.617   0.128  16.484  0.5982  1.5001 -0.6039
 4465TIP3    H237591   3.632   0.192  16.348  0.6868 -1.1814 -1.9260
 4466TIP3   OH237592   8.965   0.816  17.243  0.5297 -0.3068 -0.0747
 4466TIP3    H137593   9.009   0.874  17.181  0.4846  1.8063  1.7171
 4466TIP3    H237594   9.035   0.759  17.275  0.6065 -1.2321 -1.7778
 4467TIP3   OH237595   6.344   3.895  17.129 -0.1781 -0.0479 -0.5570
 4467TIP3    H137596   6.327   3.933  17.043  0.8092  1.2939 -0.2075
 4467TIP3    H237597   6.395   3.962  17.175 -0.3636 -0.8776  0.9456
 4468TIP3   OH237598   3.415   6.716  16.460 -0.3123  0.8031 -0.1164
 4468TIP3    H137599   3.359   6.745  16.532 -1.2080 -0.9985 -0.0282
 4468TIP3    H237600   3.496   6.686  16.502 -0.7294  0.0028  0.1236
 4469TIP3   OH237601   1.596   0.997  17.825  0.1924  0.8538  0.1231
 4469TIP3    H137602   1.582   0.937  17.899  0.2272  0.7187  0.0201
 4469TIP3    H237603   1.509   1.010  17.788  0.4543 -0.8332 -1.1769
 4470TIP3   OH237604   5.016   6.940  16.242 -0.3538  0.0739  0.1007
 4470TIP3    H137605   5.000   6.941  16.147 -1.5256  0.3116  0.2843
 4470TIP3    H237606   5.033   6.848  16.263 -1.1000 -0.1360 -0.1878
 4471TIP3   OH237607   0.514   2.699  16.914  0.2719 -0.0422  0.0751
 4471TIP3    H137608   0.457   2.636  16.869  2.6472 -1.6394 -0.9009
 4471TIP3    H237609   0.509   2.778  16.860 -0.7074 -0.2712 -0.1965
 4472TIP3   OH237610   0.716   8.421  16.585 -0.3908 -0.1610 -0.2858
 4472TIP3    H137611   0.644   8.365  16.616 -1.2642  0.7015 -0.6861
 4472TIP3    H237612   0.723   8.402  16.492 -0.4426  0.1163 -0.3488
 4473TIP3   OH237613   5.306   7.043  16.766  0.1909 -0.7396  0.0159
 4473TIP3    H137614   5.299   7.093  16.684  2.1093 -0.7508 -0.2035
 4473TIP3    H237615   5.253   7.093  16.828  0.7128  0.6922 -0.6205
 4474TIP3   OH237616   7.660   8.245  17.929  0.1433  0.1109 -0.1933
 4474TIP3    H137617   7.582   8.199  17.899  1.2763 -1.2545 -1.1480
 4474TIP3    H237618   7.714   8.178  17.970  1.3936  0.7621 -0.7168
 4475TIP3   OH237619   8.833   6.720  16.831  0.5461 -0.1124 -0.1350
 4475TIP3    H137620   8.826   6.692  16.739 -1.1792  0.7668 -0.3265
 4475TIP3    H237621   8.886   6.800  16.827 -0.0490  0.2799 -0.4821
 4476TIP3   OH237622   2.073   4.886  16.150  0.4930 -0.0872  0.5063
 4476TIP3    H137623   2.065   4.970  16.106  1.3781  0.7082  1.7883
 4476TIP3    H237624   2.013   4.828  16.103 -1.6753  1.7754  0.8383
 4477TIP3   OH237625   6.364   4.933  17.266 -0.7187 -0.0356 -0.0152
 4477TIP3    H137626   6.417   4.969  17.195 -1.5540  0.1398 -0.5762
 4477TIP3    H237627   6.338   4.846  17.235  0.2021 -0.6061  0.7663
 4478TIP3   OH237628   1.630   6.910  17.252 -0.1499 -0.3283  0.0592
 4478TIP3    H137629   1.574   6.897  17.329  0.8530 -1.4544  0.6323
 4478TIP3    H237630   1.624   7.004  17.234 -2.5261 -0.4561 -0.1649
 4479TIP3   OH237631   5.830   0.549  17.289 -0.5206 -0.3625  0.7938
 4479TIP3    H137632   5.756   0.575  17.234 -0.0018 -0.0725  0.2186
 4479TIP3    H237633   5.874   0.632  17.311  0.9662 -0.6859 -0.7950
 4480TIP3   OH237634   2.318   5.091  16.237  0.4342  0.1580 -0.1319
 4480TIP3    H137635   2.267   5.171  16.223  0.5784 -0.0230 -2.0238
 4480TIP3    H237636   2.364   5.077  16.154  0.9344 -1.5314  0.3794
 4481TIP3   OH237637   3.248   0.927  16.959 -0.2112 -0.2213 -0.1802
 4481TIP3    H137638   3.173   0.886  16.917 -1.0268  0.8973  0.1448
 4481TIP3    H237639   3.236   0.910  17.052 -0.4789  0.6346 -0.0583
 4482TIP3   OH237640   6.984   6.596  17.735 -0.4801 -0.2488 -0.0002
 4482TIP3    H137641   7.029   6.676  17.706 -2.8723  1.6146  1.1099
 4482TIP3    H237642   6.900   6.597  17.688 -1.4389 -0.9569  1.6118
 4483TIP3   OH237643   0.204   7.200  16.760 -0.6527  0.0249  0.1198
 4483TIP3    H137644   0.175   7.171  16.674 -1.7384 -0.4305  0.6167
 4483TIP3    H237645   0.224   7.119  16.807  1.8804  0.3231 -0.3078
 4484TIP3   OH237646   3.496   6.302  16.624 -0.0392  0.3435  0.5506
 4484TIP3    H137647   3.570   6.265  16.575 -0.0655  1.4980 -0.4090
 4484TIP3    H237648   3.429   6.317  16.558 -1.2697 -0.9360  1.4537
 4485TIP3   OH237649   6.546   8.426  17.471 -0.0988  0.2655 -0.2174
 4485TIP3    H137650   6.583   8.450  17.555 -0.9194  0.0426  0.2231
 4485TIP3    H237651   6.598   8.351  17.442 -0.2558 -0.0961  0.4262
 4486TIP3   OH237652   7.303   6.770  16.346 -0.0411 -0.6369  0.3400
 4486TIP3    H137653   7.221   6.820  16.352  0.4357  0.2197 -0.1346
 4486TIP3    H237654   7.306   6.739  16.256  0.0960 -0.7769  0.3915
 4487TIP3   OH237655   1.369   3.600  17.166  0.5434  0.8091 -0.8727
 4487TIP3    H137656   1.388   3.619  17.074  1.2255 -0.7132 -1.0793
 4487TIP3    H237657   1.437   3.647  17.215  0.9459  0.6093 -1.2312
 4488TIP3   OH237658   0.688   4.193  17.582  0.2363 -0.1042  0.9158
 4488TIP3    H137659   0.682   4.099  17.599  0.3438 -0.5878 -1.3913
 4488TIP3    H237660   0.779   4.215  17.603  0.1486 -0.4490  1.6944
 4489TIP3   OH237661   3.147   0.178  16.882  0.1416  0.2315 -0.2082
 4489TIP3    H137662   3.110   0.115  16.943 -2.6677  1.7280 -0.2327
 4489TIP3    H237663   3.167   0.126  16.804 -0.9171 -0.8468  0.2114
 4490TIP3   OH237664   5.213   5.854  17.488  0.4320  0.0470  0.5757
 4490TIP3    H137665   5.143   5.913  17.458  0.3251 -0.0487  0.6385
 4490TIP3    H237666   5.285   5.913  17.511  0.6983  0.0961 -0.3369
 4491TIP3   OH237667   0.258   8.445  15.920 -0.2661  0.3522  0.2175
 4491TIP3    H137668   0.213   8.499  15.855 -1.7694 -0.7175  0.3362
 4491TIP3    H237669   0.339   8.493  15.939  0.6009  0.3301 -2.9609
 4492TIP3   OH237670   8.968   1.623  17.864  0.0807 -0.3216 -0.2352
 4492TIP3    H137671   8.888   1.571  17.858  0.4049 -0.8987  0.2425
 4492TIP3    H237672   9.036   1.567  17.827  0.7179 -0.8964  1.6692
 4493TIP3   OH237673   0.830   7.312  15.804 -0.0318 -0.2460  0.5817
 4493TIP3    H137674   0.874   7.355  15.878 -1.9044 -0.3800  1.8415
 4493TIP3    H237675   0.833   7.377  15.734  3.5302 -0.8367  0.0172
 4494TIP3   OH237676   7.988   2.298  17.215  0.3097  0.3255 -0.2738
 4494TIP3    H137677   7.911   2.249  17.243  0.5796 -0.1539 -0.3772
 4494TIP3    H237678   7.984   2.380  17.266  1.3888 -0.9669  2.0482
 4495TIP3   OH237679   6.498   5.416  17.235 -0.0722  0.2126 -0.5784
 4495TIP3    H137680   6.453   5.439  17.317  1.0838  1.6745 -0.3203
 4495TIP3    H237681   6.481   5.490  17.177  0.3247 -0.1618 -1.1822
 4496TIP3   OH237682   0.949   6.817  16.165  0.4002  0.5041 -0.8410
 4496TIP3    H137683   1.015   6.802  16.096  0.9995  1.6511 -0.5491
 4496TIP3    H237684   0.885   6.875  16.124  0.8908  1.3955 -0.3778
 4497TIP3   OH237685   6.926   4.870  17.660  0.1499  0.2715 -0.3249
 4497TIP3    H137686   6.987   4.899  17.592 -1.6833  0.8614 -1.8211
 4497TIP3    H237687   6.968   4.894  17.742  2.4002 -0.3400 -1.2258
 4498TIP3   OH237688   7.013   2.538  17.622  0.9445 -0.7931 -0.3141
 4498TIP3    H137689   7.060   2.605  17.572  1.3647 -0.0745  0.9809
 4498TIP3    H237690   6.921   2.552  17.600  0.8477  1.3558  1.1833
 4499TIP3   OH237691   3.504   6.251  15.701  0.1197 -0.2822 -0.3564
 4499TIP3    H137692   3.449   6.251  15.779 -0.9608 -0.8860 -1.0934
 4499TIP3    H237693   3.449   6.288  15.632  1.1767  0.5615 -0.7662
 4500TIP3   OH237694   2.282   3.105  16.709  0.8497  0.2130 -0.1114
 4500TIP3    H137695   2.321   3.153  16.636 -0.4618 -0.1996 -1.1192
 4500TIP3    H237696   2.200   3.072  16.675 -0.0009  0.3399  1.6786
 4501TIP3   OH237697   8.493   8.737  15.961 -0.4123 -0.0749 -0.0668
 4501TIP3    H137698   8.502   8.741  15.866  0.7706 -0.1203  0.0274
 4501TIP3    H237699   8.573   8.694  15.991  0.4087  2.1205  1.1220
 4502TIP3   OH237700   0.164   5.337  16.198 -0.3667 -0.0504 -0.1596
 4502TIP3    H137701   0.191   5.402  16.133 -1.4654 -0.8993 -1.5178
 4502TIP3    H237702   0.147   5.387  16.277  0.3341  1.0979 -0.7083
 4503TIP3   OH237703   1.395   9.141  16.530  0.7056 -0.5225 -0.1607
 4503TIP3    H137704   1.392   9.099  16.616  0.7204  0.4782  0.3356
 4503TIP3    H237705   1.432   9.074  16.472  3.8418 -0.1639  1.2335
 4504TIP3   OH237706   2.598   9.217  16.748 -0.3029 -0.1354 -0.1997
 4504TIP3    H137707   2.505   9.201  16.733 -0.1024 -1.2027 -0.4396
 4504TIP3    H237708   2.631   9.248  16.664 -0.4991  0.5555 -0.0252
 4505TIP3   OH237709   2.045   1.704  17.428 -0.5180 -0.2138 -0.4148
 4505TIP3    H137710   1.995   1.719  17.348  0.2576  1.0418 -0.7056
 4505TIP3    H237711   1.979   1.689  17.496 -1.1933 -0.9371 -1.2114
 4506TIP3   OH237712   2.035   7.116  16.673  0.0911 -0.1599 -0.1191
 4506TIP3    H137713   1.948   7.114  16.632  0.3312  2.3513 -0.9662
 4506TIP3    H237714   2.021   7.162  16.756 -0.0497 -3.5636  1.9149
 4507TIP3   OH237715   8.506   4.960  17.039  0.6736  0.1494  0.3554
 4507TIP3    H137716   8.450   4.886  17.063  0.4879  0.3762  0.6209
 4507TIP3    H237717   8.594   4.930  17.057  0.6483 -0.2342 -0.1249
 4508TIP3   OH237718   7.746   1.383  17.113  0.2246 -0.8388  0.7027
 4508TIP3    H137719   7.804   1.313  17.144  0.6161 -0.7976  0.0891
 4508TIP3    H237720   7.740   1.368  17.018 -0.5037 -0.6393  0.7065
 4509TIP3   OH237721   7.619   1.001  17.065  0.0987  0.2092  0.9590
 4509TIP3    H137722   7.538   0.963  17.099  1.6943 -3.3719  1.0916
 4509TIP3    H237723   7.662   1.039  17.141 -1.0663  1.5655  0.9910
 4510TIP3   OH237724   7.784   7.775  17.946 -0.0090  0.0315 -0.7987
 4510TIP3    H137725   7.706   7.774  17.890 -1.5827 -3.6471  1.1087
 4510TIP3    H237726   7.838   7.703  17.913  1.6512  1.2444 -0.8304
 4511TIP3   OH237727   0.263   1.689  17.720  0.3192 -1.1473  0.5538
 4511TIP3    H137728   0.171   1.668  17.729 -0.2088  0.5972 -0.2443
 4511TIP3    H237729   0.291   1.643  17.642 -0.6312  0.4437 -0.7858
 4512TIP3   OH237730   2.847   2.507  17.511 -0.3281 -0.3063 -0.2468
 4512TIP3    H137731   2.762   2.534  17.545  0.2947 -0.9950  2.0580
 4512TIP3    H237732   2.897   2.588  17.503  0.0266 -0.2131  2.1967
 4513TIP3   OH237733   5.669   0.609  16.799 -0.1775 -0.0760  0.0914
 4513TIP3    H137734   5.615   0.572  16.729  0.7702  0.6593 -1.0557
 4513TIP3    H237735   5.655   0.703  16.793 -0.5159 -0.0255  1.2852
 4514TIP3   OH237736   4.056   5.317  17.118  0.0628  0.3074  0.2318
 4514TIP3    H137737   4.076   5.330  17.211  0.5791 -1.5326  0.4132
 4514TIP3    H237738   4.126   5.365  17.073  0.9836 -0.4217  0.8320
 4515TIP3   OH237739   4.216   2.835  16.493  0.5848  0.2191  0.2983
 4515TIP3    H137740   4.169   2.751  16.493  0.0251  0.5149 -0.8075
 4515TIP3    H237741   4.202   2.871  16.580 -0.8584  0.0833  0.1440
 4516TIP3   OH237742   8.361   1.767  17.791  0.3875 -0.3783 -0.2473
 4516TIP3    H137743   8.332   1.695  17.735  0.4869 -0.1418 -0.6077
 4516TIP3    H237744   8.455   1.752  17.802  0.3661 -0.4307 -0.1325
 4517TIP3   OH237745   3.224   4.304  17.435  0.3039  0.2616 -0.0024
 4517TIP3    H137746   3.273   4.237  17.388 -0.2585  0.9237 -1.6053
 4517TIP3    H237747   3.282   4.381  17.433 -0.3275  0.7295 -0.9569
 4518TIP3   OH237748   6.162   7.568  17.247 -0.0195 -0.3152 -0.0312
 4518TIP3    H137749   6.142   7.503  17.180  0.6711 -0.0032 -0.5394
 4518TIP3    H237750   6.256   7.559  17.263  0.5627  2.0432 -1.7042
 4519TIP3   OH237751   3.212   0.640  16.341 -0.2330 -0.6615 -0.3189
 4519TIP3    H137752   3.262   0.617  16.262  0.0037  0.6436 -0.5807
 4519TIP3    H237753   3.134   0.585  16.336  0.4321 -1.5996 -0.7291
 4520TIP3   OH237754   5.876   3.505  17.074 -0.0380 -0.3609  0.1320
 4520TIP3    H137755   5.950   3.475  17.023 -0.3016 -0.2635 -0.3100
 4520TIP3    H237756   5.859   3.594  17.043  0.2412 -0.0393  0.8795
 4521TIP3   OH237757   7.838   3.426  17.732  0.1046 -0.1078 -0.0047
 4521TIP3    H137758   7.849   3.332  17.743 -1.5028 -0.2039  1.1953
 4521TIP3    H237759   7.757   3.436  17.682  0.7952  0.6431 -1.0256
 4522TIP3   OH237760   0.541   1.527  17.282 -0.4204 -0.0761 -0.0821
 4522TIP3    H137761   0.532   1.622  17.288 -0.8448 -0.1403  0.3819
 4522TIP3    H237762   0.635   1.511  17.291 -0.0504  0.4516 -2.5293
 4523TIP3   OH237763   2.701   0.034  16.459 -0.2581  0.3328 -0.0264
 4523TIP3    H137764   2.672   0.085  16.383 -0.6119  0.4420  0.1795
 4523TIP3    H237765   2.789   0.066  16.477 -0.3120  0.5642 -0.1699
 4524TIP3   OH237766   1.202   3.310  16.494 -0.8705  0.3777  0.1142
 4524TIP3    H137767   1.120   3.354  16.473 -0.3287  0.9016 -0.9710
 4524TIP3    H237768   1.269   3.378  16.486 -0.1195 -0.4288 -0.7617
 4525TIP3   OH237769   1.952   6.175  17.921  0.3045  0.2306 -0.3488
 4525TIP3    H137770   2.007   6.248  17.949  1.5118 -1.2886  1.5421
 4525TIP3    H237771   1.879   6.216  17.874  1.6701  2.5059 -0.6325
 4526TIP3   OH237772   3.174   3.659  17.118  0.2323 -0.1151 -0.6309
 4526TIP3    H137773   3.152   3.595  17.186  0.9693 -2.3471 -2.3668
 4526TIP3    H237774   3.201   3.737  17.167 -1.7172 -0.7047  1.5888
 4527TIP3   OH237775   7.294   7.188  17.742  0.2448 -0.2344 -0.4845
 4527TIP3    H137776   7.297   7.247  17.818 -0.1273  1.0228 -1.4264
 4527TIP3    H237777   7.358   7.225  17.681 -1.5254  0.4855 -1.9827
 4528TIP3   OH237778   3.784   4.551  17.494 -0.4520  0.4346 -0.0434
 4528TIP3    H137779   3.844   4.585  17.561 -1.2007 -0.2195  0.9860
 4528TIP3    H237780   3.701   4.596  17.510 -0.1946  1.6292 -1.7076
 4529TIP3   OH237781   2.488   5.848  16.762 -0.1267 -0.1733  0.4914
 4529TIP3    H137782   2.521   5.759  16.777 -1.5023 -0.8159 -0.0969
 4529TIP3    H237783   2.511   5.867  16.671  1.5057  0.7123  1.0435
 4530TIP3   OH237784   1.944   8.061  17.988  0.5435  0.2303 -0.1574
 4530TIP3    H137785   2.024   8.011  17.971  0.5078  0.5084 -1.2377
 4530TIP3    H237786   1.888   8.001  18.037  1.2110 -0.1436  0.1622
 4531TIP3   OH237787   3.038   4.982  16.065  0.0468  0.2947 -0.0838
 4531TIP3    H137788   3.019   4.889  16.055 -1.5634  0.6592 -0.7314
 4531TIP3    H237789   3.123   4.985  16.109  0.0225 -1.4695  0.1346
 4532TIP3   OH237790   7.732   8.482  15.864  0.5192 -0.2365  0.0596
 4532TIP3    H137791   7.734   8.386  15.863  0.6657 -0.2555  1.0856
 4532TIP3    H237792   7.657   8.504  15.918  0.8513  0.2243  0.3413
 4533TIP3   OH237793   4.649   5.029  17.316 -0.3617  0.8758 -0.2186
 4533TIP3    H137794   4.616   4.969  17.383  1.4036 -1.0305 -0.9877
 4533TIP3    H237795   4.571   5.053  17.265 -0.9434 -1.9730 -0.8206
 4534TIP3   OH237796   5.744   5.515  17.209  0.5569 -0.1247  0.1478
 4534TIP3    H137797   5.815   5.454  17.192  1.6113  0.9757  0.4857
 4534TIP3    H237798   5.703   5.529  17.124  0.2752 -1.3019  0.0685
 4535TIP3   OH237799   5.988   0.389  16.913  0.4469  0.1051 -0.8120
 4535TIP3    H137800   6.055   0.424  16.972  0.2461 -0.5268 -0.1942
 4535TIP3    H237801   6.035   0.368  16.832  0.8281  0.4748 -0.6857
 4536TIP3   OH237802   4.227   2.404  17.749  0.1715 -0.2909 -0.2360
 4536TIP3    H137803   4.243   2.319  17.708 -0.2912 -0.3030 -0.3881
 4536TIP3    H237804   4.210   2.384  17.841  0.1153 -0.3547 -0.2613
 4537TIP3   OH237805   9.151   8.887  16.867 -0.1783  0.0852 -0.1910
 4537TIP3    H137806   9.215   8.937  16.918 -0.8622  1.4880 -0.6296
 4537TIP3    H237807   9.073   8.885  16.923 -0.2322 -0.2641 -0.2809
 4538TIP3   OH237808   1.204   1.219  17.615 -0.0117  0.2326 -0.3151
 4538TIP3    H137809   1.200   1.292  17.676  1.4586  0.3043 -0.2655
 4538TIP3    H237810   1.255   1.252  17.541 -1.5384  0.0673 -1.5027
 4539TIP3   OH237811   1.050   8.285  16.126  0.3161 -0.2399  0.2830
 4539TIP3    H137812   0.985   8.297  16.195 -1.0686 -1.7248 -0.6694
 4539TIP3    H237813   1.083   8.196  16.139  2.9658  0.8005  1.3341
 4540TIP3   OH237814   4.594   0.374  17.896  0.1006 -0.1503 -0.0481
 4540TIP3    H137815   4.567   0.402  17.809  1.8515 -2.0159 -1.2840
 4540TIP3    H237816   4.645   0.447  17.931  1.5809 -0.3221 -1.7104
 4541TIP3   OH237817   1.210   2.578  16.035 -0.2562  0.5548  0.2006
 4541TIP3    H137818   1.145   2.542  15.975 -0.3935  0.5148  0.3734
 4541TIP3    H237819   1.173   2.662  16.063  0.4858  1.2794 -0.9258
 4542TIP3   OH237820   6.215   1.944  16.705  0.0717 -0.4436 -0.1780
 4542TIP3    H137821   6.251   1.967  16.619 -0.2038 -1.2559 -0.5179
 4542TIP3    H237822   6.121   1.955  16.696  0.1814  3.7197  1.3094
 4543TIP3   OH237823   5.023   8.684  16.047  0.3212  0.3710 -0.2629
 4543TIP3    H137824   4.996   8.748  15.981 -2.1166  0.1494  0.4258
 4543TIP3    H237825   4.972   8.606  16.026  0.5435 -0.1526  1.0481
 4544TIP3   OH237826   7.765   4.545  17.240  0.0566  0.1095  0.1509
 4544TIP3    H137827   7.831   4.476  17.253  1.1836  1.1239 -0.0382
 4544TIP3    H237828   7.753   4.549  17.146  0.7416  0.8453  0.0897
 4545TIP3   OH237829   8.293   1.004  16.686  0.3309 -0.1418  0.3377
 4545TIP3    H137830   8.224   0.993  16.621  0.7896 -0.8825 -0.0339
 4545TIP3    H237831   8.263   0.952  16.761  0.0498  0.2933  0.5335
 4546TIP3   OH237832   7.214   1.584  16.740  0.4265 -0.2183  0.4845
 4546TIP3    H137833   7.242   1.624  16.658  1.4589 -1.5480  0.1575
 4546TIP3    H237834   7.294   1.577  16.792 -0.0739 -0.1410  1.2932
 4547TIP3   OH237835   3.762   4.288  17.046 -0.4336  0.1335  0.1364
 4547TIP3    H137836   3.735   4.266  17.136 -1.9296 -0.0605 -0.3254
 4547TIP3    H237837   3.724   4.375  17.030 -0.0690  0.2208 -0.2648
 4548TIP3   OH237838   8.526   3.526  16.995  0.3277 -0.5559  0.4987
 4548TIP3    H137839   8.607   3.536  16.946 -1.1335 -0.4420 -2.0460
 4548TIP3    H237840   8.485   3.448  16.960 -0.7393 -0.5629  1.6637
 4549TIP3   OH237841   1.409   8.646  16.687  0.4855 -0.0032 -0.2489
 4549TIP3    H137842   1.352   8.649  16.764 -0.2053 -2.0756 -0.6239
 4549TIP3    H237843   1.490   8.688  16.716 -0.7284  1.8398  0.6866
 4550TIP3   OH237844   4.824   9.119  17.139 -0.2710 -0.1284  0.6305
 4550TIP3    H137845   4.841   9.183  17.069 -2.5265 -0.4049 -0.2579
 4550TIP3    H237846   4.820   9.035  17.093  0.9917 -0.7297  1.5514
 4551TIP3   OH237847   5.746   8.809  16.960  0.0921 -0.1421 -0.1920
 4551TIP3    H137848   5.702   8.749  16.900 -0.2025 -1.7207  1.5012
 4551TIP3    H237849   5.701   8.796  17.044  1.7110  0.5607  0.8291
 4552TIP3   OH237850   1.078   5.975  16.190  0.3509  0.2092  0.4724
 4552TIP3    H137851   1.128   5.899  16.219 -0.4721 -0.7996 -0.6613
 4552TIP3    H237852   1.143   6.029  16.144  1.0492  0.4714  1.7150
 4553TIP3   OH237853   3.486   1.074  16.597  0.5890  0.1784  0.3956
 4553TIP3    H137854   3.433   1.097  16.520  0.1228 -2.8012 -0.2928
 4553TIP3    H237855   3.424   1.073  16.669 -0.0970 -1.9799 -0.1680
 4554TIP3   OH237856   0.346   3.622  17.433 -0.8693 -0.3047  0.1249
 4554TIP3    H137857   0.265   3.572  17.422 -0.5371 -0.7573 -0.2982
 4554TIP3    H237858   0.404   3.589  17.365 -0.6164  0.6157 -0.1166
 4555TIP3   OH237859   2.751   0.101  17.470 -0.1842  0.1654  0.3220
 4555TIP3    H137860   2.712   0.037  17.530 -1.3686  0.3662 -0.1921
 4555TIP3    H237861   2.742   0.185  17.514 -0.2550  0.2006  0.2427
 4556TIP3   OH237862   9.086   2.262  17.558 -0.1902  0.4811 -0.3235
 4556TIP3    H137863   9.065   2.355  17.546 -1.4175  0.3367  0.4861
 4556TIP3    H237864   9.059   2.243  17.648  2.1666 -0.1316  0.3146
 4557TIP3   OH237865   8.180   6.077  16.240  0.0834 -0.2600  0.3621
 4557TIP3    H137866   8.130   6.091  16.160 -0.4046  2.6552  1.0369
 4557TIP3    H237867   8.137   6.003  16.284  0.3632 -1.9022 -1.9751
 4558TIP3   OH237868   1.407   2.204  15.836 -0.8118 -0.5852 -0.2926
 4558TIP3    H137869   1.398   2.109  15.844 -0.4477 -0.5527  0.6794
 4558TIP3    H237870   1.320   2.234  15.811 -1.0790 -1.1239 -0.0387
 4559TIP3   OH237871   2.748   5.370  17.539  0.1760  0.0573  0.7285
 4559TIP3    H137872   2.825   5.329  17.577  2.4251  2.8837 -0.3653
 4559TIP3    H237873   2.716   5.429  17.608  0.5584  0.7028  0.3712
 4560TIP3   OH237874   9.001   4.023  16.672 -0.4903 -0.0994 -0.1226
 4560TIP3    H137875   9.022   3.950  16.613 -1.4914  0.5095 -1.2738
 4560TIP3    H237876   9.076   4.082  16.665  0.3438 -1.0059  0.8431
 4561TIP3   OH237877   8.850   6.916  16.648 -0.5424 -0.4072 -0.1248
 4561TIP3    H137878   8.937   6.924  16.608 -0.4768 -1.0294 -0.1200
 4561TIP3    H237879   8.789   6.928  16.576 -0.4799  0.9616  0.0267
 4562TIP3   OH237880   5.581   4.934  16.022 -0.4844 -0.6022  0.1276
 4562TIP3    H137881   5.601   4.845  16.050  0.1842 -0.1608  1.1166
 4562TIP3    H237882   5.663   4.982  16.035 -1.0813  0.3535  0.4737
 4563TIP3   OH237883   4.659   8.945  16.431  0.4841 -0.0558  0.2436
 4563TIP3    H137884   4.635   8.859  16.466 -0.3996  0.2074  0.3213
 4563TIP3    H237885   4.732   8.973  16.485  1.3527 -1.1219 -0.3287
 4564TIP3   OH237886   7.849   1.426  17.436 -0.1394  1.0836 -0.1872
 4564TIP3    H137887   7.840   1.332  17.421  0.8330  1.0275 -0.5282
 4564TIP3    H237888   7.759   1.459  17.439 -0.5154  0.0444  0.6701
 4565TIP3   OH237889   0.129   8.978  16.275  0.0703  0.7758 -0.2269
 4565TIP3    H137890   0.066   8.937  16.216  0.4141  0.7065 -0.5517
 4565TIP3    H237891   0.157   9.057  16.229  0.1251  0.8736 -0.0266
 4566TIP3   OH237892   3.650   6.568  15.547 -0.4554  0.1737  0.2839
 4566TIP3    H137893   3.604   6.606  15.623 -0.3546  1.2198 -0.1587
 4566TIP3    H237894   3.614   6.615  15.472 -0.1283 -0.4471 -0.2648
 4567TIP3   OH237895   2.888   7.264  15.847 -0.5778  0.1441  0.2838
 4567TIP3    H137896   2.810   7.222  15.883 -0.8907 -1.7295 -2.3386
 4567TIP3    H237897   2.862   7.355  15.834 -1.4947  0.1068  1.6255
 4568TIP3   OH237898   3.179   4.437  17.710 -0.0790 -0.0815  0.3452
 4568TIP3    H137899   3.090   4.434  17.673  0.4175  1.7734 -1.1457
 4568TIP3    H237900   3.230   4.378  17.655 -0.2329 -0.5934  0.7489
 4569TIP3   OH237901   4.078   7.097  17.502  0.1059 -0.1215 -0.2411
 4569TIP3    H137902   4.066   7.188  17.527 -1.4572  0.2638 -2.1020
 4569TIP3    H237903   4.136   7.101  17.426 -0.2559 -0.6228 -0.5515
 4570TIP3   OH237904   7.317   1.678  16.495  0.5112 -0.2936 -0.4087
 4570TIP3    H137905   7.398   1.641  16.528  0.5269  0.0610 -0.0279
 4570TIP3    H237906   7.273   1.606  16.450  0.2440 -0.9390  0.8530
 4571TIP3   OH237907   8.168   9.035  17.150  0.2947  0.1974  0.3421
 4571TIP3    H137908   8.103   9.084  17.100 -1.0530 -2.4700 -0.6864
 4571TIP3    H237909   8.188   9.092  17.225 -1.6346  1.9950 -0.4076
 4572TIP3   OH237910   1.779   1.553  16.754 -0.3686 -0.0489  0.1055
 4572TIP3    H137911   1.694   1.543  16.796 -0.1284  3.1981  1.6227
 4572TIP3    H237912   1.779   1.641  16.718  1.3053 -1.0032 -2.5871
 4573TIP3   OH237913   4.549   0.715  16.005 -0.5153 -0.4112 -0.3096
 4573TIP3    H137914   4.592   0.632  16.023 -0.2756  0.0629  1.5260
 4573TIP3    H237915   4.466   0.691  15.964 -1.6405 -1.7889  2.4771
 4574TIP3   OH237916   8.160   2.032  17.596 -0.2954  0.2579 -0.0795
 4574TIP3    H137917   8.095   2.048  17.664  0.1145  0.8103  0.1970
 4574TIP3    H237918   8.244   2.034  17.643 -0.0452  0.1586 -0.5213
 4575TIP3   OH237919   5.436   1.665  18.045  0.2870  0.0039 -0.0907
 4575TIP3    H137920   5.498   1.713  17.990  0.2571 -1.4163 -1.3995
 4575TIP3    H237921   5.350   1.696  18.017  0.3068  0.4280  0.2827
 4576TIP3   OH237922   4.108   8.938  16.351  0.3546 -0.1572  0.0763
 4576TIP3    H137923   4.099   8.980  16.266  2.4734  0.6271  0.1750
 4576TIP3    H237924   4.118   9.010  16.413  0.0285 -0.7422  0.8271
 4577TIP3   OH237925   3.917   5.460  16.684  0.2294  0.2564  0.2783
 4577TIP3    H137926   3.888   5.373  16.659  0.5820  0.6421 -1.6698
 4577TIP3    H237927   4.009   5.464  16.656  1.0855  0.3276  2.8877
 4578TIP3   OH237928   5.902   7.765  17.780 -0.2699 -0.2499  0.3151
 4578TIP3    H137929   5.884   7.805  17.695 -1.2236 -1.0337  0.1282
 4578TIP3    H237930   5.947   7.833  17.830  0.0221  0.3260 -0.7008
 4579TIP3   OH237931   7.203   7.451  16.677  0.1361 -0.0213 -0.4135
 4579TIP3    H137932   7.157   7.534  16.682  0.1546 -0.0283 -0.0736
 4579TIP3    H237933   7.218   7.436  16.584 -0.5254 -0.0060 -0.5202
 4580TIP3   OH237934   1.237   8.764  17.160 -0.4595 -0.0144 -0.1902
 4580TIP3    H137935   1.254   8.742  17.068  0.4261 -0.6306  0.1068
 4580TIP3    H237936   1.149   8.732  17.176  0.3632 -2.4542 -0.0857
 4581TIP3   OH237937   2.989   3.948  17.375 -0.0167  0.1370 -0.1858
 4581TIP3    H137938   2.934   3.997  17.438 -0.2423 -0.5466  0.1598
 4581TIP3    H237939   2.984   3.857  17.405  0.8426 -0.0212 -0.5013
 4582TIP3   OH237940   2.349   9.098  16.728  0.3484  0.2961  0.2323
 4582TIP3    H137941   2.378   9.007  16.740  0.4403  0.2842 -0.0721
 4582TIP3    H237942   2.312   9.099  16.640  0.4981  0.5947  0.1721
 4583TIP3   OH237943   8.528   7.028  15.612  0.6558 -0.3030  0.4260
 4583TIP3    H137944   8.520   6.980  15.694 -1.2274  0.4075  0.6948
 4583TIP3    H237945   8.440   7.025  15.573  0.4789  2.7269  0.3646
 4584TIP3   OH237946   8.608   8.377  16.628 -0.3042  0.0052  0.2734
 4584TIP3    H137947   8.625   8.464  16.665 -0.5390  1.6475 -3.0557
 4584TIP3    H237948   8.694   8.345  16.600 -0.5448  0.7472 -1.4694
 4585TIP3   OH237949   7.901   5.813  17.120  0.0098 -0.8943 -0.0838
 4585TIP3    H137950   7.970   5.836  17.182  2.3611  1.4146 -3.2347
 4585TIP3    H237951   7.928   5.729  17.083  1.2157 -0.0225 -1.2697
 4586TIP3   OH237952   6.554   4.841  16.084 -0.8749 -0.0287 -0.6479
 4586TIP3    H137953   6.586   4.866  16.170  0.5759  2.0963 -1.7321
 4586TIP3    H237954   6.568   4.746  16.080 -1.1798 -0.2060  1.4865
 4587TIP3   OH237955   4.746   0.621  16.408 -0.1095  0.0748 -0.1225
 4587TIP3    H137956   4.816   0.621  16.343 -0.9245  0.8941 -1.0381
 4587TIP3    H237957   4.684   0.556  16.376 -0.2595  0.0849  0.1427
 4588TIP3   OH237958   0.007   6.272  16.980 -0.3792  0.3480  0.6239
 4588TIP3    H137959  -0.035   6.354  16.955 -1.3789 -0.1196  0.7084
 4588TIP3    H237960  -0.064   6.207  16.976  0.4183 -0.5325  0.4298
 4589TIP3   OH237961   5.432   1.966  16.883 -0.0794  0.3607 -0.1981
 4589TIP3    H137962   5.513   1.951  16.932 -0.2163 -1.0929 -0.3982
 4589TIP3    H237963   5.451   1.936  16.795 -0.1367  2.1187 -0.8647
 4590TIP3   OH237964   7.820   6.297  17.243 -0.7940 -0.2726 -1.0315
 4590TIP3    H137965   7.819   6.342  17.328 -1.5083 -1.6553 -0.2644
 4590TIP3    H237966   7.877   6.221  17.258 -1.4641 -0.8915 -1.5843
 4591TIP3   OH237967   6.186   7.500  17.510 -0.2634  0.8163 -0.4144
 4591TIP3    H137968   6.238   7.422  17.490 -1.1929  0.5772 -2.1307
 4591TIP3    H237969   6.161   7.534  17.424 -2.0350  1.5198  0.3406
 4592TIP3   OH237970   1.739   4.044  17.479  0.1069  0.2850  0.0801
 4592TIP3    H137971   1.678   4.033  17.552  1.1839  0.2515  0.9976
 4592TIP3    H237972   1.732   4.137  17.456  1.0294  0.7163  1.4099
 4593TIP3   OH237973   1.622   4.017  16.342 -0.6672  0.6435 -0.3855
 4593TIP3    H137974   1.705   4.020  16.390 -1.4518  1.2882  0.9945
 4593TIP3    H237975   1.596   4.109  16.334 -2.2426  0.3661  1.0444
 4594TIP3   OH237976   9.007   6.615  16.439 -0.2533  0.2267  0.2555
 4594TIP3    H137977   9.046   6.589  16.355 -0.4476 -0.1953  0.2940
 4594TIP3    H237978   8.914   6.624  16.420 -0.4452 -0.7872  0.6307
 4595TIP3   OH237979   0.936   1.009  16.342 -0.3580  0.5639 -0.2363
 4595TIP3    H137980   0.863   1.062  16.373 -1.0180 -0.4444 -0.0562
 4595TIP3    H237981   0.999   1.009  16.414  0.5919  2.7761 -0.9759
 4596TIP3   OH237982   3.180   1.924  15.773  0.9174  0.1118  0.5108
 4596TIP3    H137983   3.086   1.924  15.792  0.8785 -0.1456  0.3254
 4596TIP3    H237984   3.201   2.016  15.756  0.7993  0.2401  1.0352
 4597TIP3   OH237985   4.725   3.725  16.947 -0.4019 -0.4355  0.5672
 4597TIP3    H137986   4.697   3.657  16.886 -1.9221 -0.1468  0.8982
 4597TIP3    H237987   4.701   3.692  17.033 -1.7083  0.7274  0.6905
 4598TIP3   OH237988   6.518   8.401  17.907  0.1503 -0.1471 -0.3826
 4598TIP3    H137989   6.476   8.440  17.983  0.6003  0.6867 -0.5541
 4598TIP3    H237990   6.515   8.307  17.924 -0.5459 -0.0205  0.2463
 4599TIP3   OH237991   6.368   8.416  16.374 -0.0501  0.1570  0.1029
 4599TIP3    H137992   6.365   8.326  16.340  0.7389  0.1656 -0.0147
 4599TIP3    H237993   6.319   8.412  16.457  0.5442 -0.5360  0.4306
 4600TIP3   OH237994   5.011   6.568  17.119 -0.1705  0.0407  0.1721
 4600TIP3    H137995   5.073   6.522  17.062  0.8475  1.1753  0.3382
 4600TIP3    H237996   5.019   6.523  17.203 -2.4863 -2.3822 -0.7234
 4601TIP3   OH237997   5.957   9.046  17.261 -0.1566 -0.3026  0.1049
 4601TIP3    H137998   6.021   9.015  17.326  0.9055  2.1051  0.2936
 4601TIP3    H237999   6.009   9.067  17.184 -1.1542 -1.1737 -0.8453
 4602TIP3   OH238000   0.426   2.826  18.036 -0.0631  0.0742  0.7243
 4602TIP3    H138001   0.481   2.769  18.091 -0.3790  0.2500  1.2336
 4602TIP3    H238002   0.341   2.783  18.036 -0.1215  0.1905  0.5438
 4603TIP3   OH238003   9.072   0.575  16.752  0.4006 -0.8784 -0.0954
 4603TIP3    H138004   8.994   0.581  16.697  1.9659  0.1909 -2.2973
 4603TIP3    H238005   9.081   0.662  16.791 -1.7418 -2.0603  3.6242
 4604TIP3   OH238006   3.278   4.585  15.611 -0.1339  0.0973 -0.1006
 4604TIP3    H138007   3.268   4.613  15.702 -1.3560 -3.3554  0.9583
 4604TIP3    H238008   3.191   4.594  15.573 -0.1593 -0.6336 -0.2260
 4605TIP3   OH238009   0.729   6.492  17.270  0.1085 -0.2875 -0.0845
 4605TIP3    H138010   0.760   6.543  17.345  0.0447 -0.6222  0.1720
 4605TIP3    H238011   0.662   6.434  17.307 -0.0857 -0.2953 -0.4433
 4606TIP3   OH238012   2.885   1.283  17.908  0.1776  0.0197  0.1648
 4606TIP3    H138013   2.945   1.354  17.887  1.3146 -0.7628  0.6281
 4606TIP3    H238014   2.876   1.286  18.003 -0.4702  0.0881  0.1050
 4607TIP3   OH238015   0.329   4.356  17.438  0.4204  0.1095 -0.2585
 4607TIP3    H138016   0.378   4.275  17.421  1.0340  0.3521  0.3147
 4607TIP3    H238017   0.351   4.378  17.528 -1.6792 -0.4155  0.4269
 4608TIP3   OH238018   5.431   6.712  17.195  0.0772 -0.1520 -0.0455
 4608TIP3    H138019   5.471   6.782  17.144  0.0032 -0.1969 -0.1639
 4608TIP3    H238020   5.337   6.731  17.194  0.1841  0.5097  1.0583
 4609TIP3   OH238021   6.632   7.557  16.244  0.1689  0.4063 -0.5168
 4609TIP3    H138022   6.645   7.497  16.170  1.0960  2.1513 -1.8431
 4609TIP3    H238023   6.589   7.503  16.311  2.3575 -2.1659 -0.9946
 4610TIP3   OH238024   5.519   8.208  17.011  1.0495  0.1055  0.2778
 4610TIP3    H138025   5.533   8.161  16.930  0.3922  0.1417  0.1391
 4610TIP3    H238026   5.584   8.279  17.010  0.7390  0.3829 -0.4303
 4611TIP3   OH238027   5.192   2.028  16.654 -0.5041  0.5419 -0.1401
 4611TIP3    H138028   5.230   2.115  16.667  1.1744 -0.1004 -0.3709
 4611TIP3    H238029   5.268   1.972  16.635 -1.4872 -1.0598  0.4520
 4612TIP3   OH238030   1.554   3.114  17.506 -0.6840  0.0119 -0.4295
 4612TIP3    H138031   1.558   3.059  17.428 -1.7849  0.3280 -0.7151
 4612TIP3    H238032   1.588   3.058  17.576 -3.4705 -1.7556 -0.3351
 4613TIP3   OH238033   7.443   2.699  17.112 -0.3852 -0.9207  0.1651
 4613TIP3    H138034   7.416   2.659  17.030  0.9753  0.2600 -0.9187
 4613TIP3    H238035   7.372   2.680  17.173 -0.6032 -3.4229 -0.7410
 4614TIP3   OH238036   1.605   0.044  17.860 -0.4752 -0.2456  0.1893
 4614TIP3    H138037   1.689   0.090  17.860 -1.8672  2.5644  1.6913
 4614TIP3    H238038   1.628  -0.048  17.874  2.4115  0.0692 -1.6547
 4615TIP3   OH238039   8.962   2.111  15.908  0.1556 -0.2000 -0.2148
 4615TIP3    H138040   8.993   2.201  15.920 -1.4942  0.4328 -0.2812
 4615TIP3    H238041   9.023   2.072  15.846  1.0543  0.7929  0.0220
 4616TIP3   OH238042   5.813   5.623  16.611 -0.2174  0.1148  0.0779
 4616TIP3    H138043   5.869   5.630  16.533  0.2191  2.0785  0.4922
 4616TIP3    H238044   5.724   5.628  16.577 -0.0210  2.4939 -0.2669
 4617TIP3   OH238045   6.312   1.436  17.800  0.4352  0.5872  0.1157
 4617TIP3    H138046   6.223   1.408  17.782  0.1295  0.8954  1.0989
 4617TIP3    H238047   6.361   1.354  17.811 -0.1673  0.4003  1.6093
 4618TIP3   OH238048   3.688   0.013  16.040  0.4875  0.0717  0.8124
 4618TIP3    H138049   3.747  -0.061  16.053  1.4924  0.2343 -2.1368
 4618TIP3    H238050   3.601  -0.026  16.035  0.9781 -0.9417 -0.4695
 4619TIP3   OH238051   0.017   0.801  17.374  0.3121  0.2525  0.4601
 4619TIP3    H138052   0.047   0.891  17.363  1.6208 -0.2442 -0.1955
 4619TIP3    H238053  -0.036   0.803  17.454 -1.4193  2.0009 -0.6550
 4620TIP3   OH238054   6.233   2.801  16.349 -0.0848 -0.0332 -0.1290
 4620TIP3    H138055   6.158   2.832  16.400 -0.3772 -1.1694  0.1800
 4620TIP3    H238056   6.253   2.715  16.387  1.2084  0.1355 -0.3944
 4621TIP3   OH238057   5.777   3.649  16.537 -0.0680 -0.1512  0.8096
 4621TIP3    H138058   5.785   3.734  16.493 -0.1925  0.4939  1.9986
 4621TIP3    H238059   5.705   3.605  16.493 -0.0481  0.3905  0.2305
 4622TIP3   OH238060   5.635   0.309  18.209 -0.3810  0.0584 -0.3740
 4622TIP3    H138061   5.730   0.324  18.218 -0.2924 -1.0514  0.5959
 4622TIP3    H238062   5.600   0.396  18.187  0.8187  0.5450 -0.4511
 4623TIP3   OH238063   2.452   8.496  16.390 -0.0626  0.0346 -0.0962
 4623TIP3    H138064   2.421   8.519  16.303  0.7050  1.5394 -0.0148
 4623TIP3    H238065   2.384   8.528  16.450 -0.7788 -1.3548 -0.1344
 4624TIP3   OH238066   8.887   4.824  17.588 -0.2273  0.0981 -0.1125
 4624TIP3    H138067   8.880   4.905  17.639 -1.0956  0.2952 -0.5250
 4624TIP3    H238068   8.814   4.828  17.527  0.5008 -0.3674 -1.0481
 4625TIP3   OH238069   3.241   3.984  16.622 -0.1951 -0.0240  0.0236
 4625TIP3    H138070   3.272   3.954  16.536  3.3727  1.0140  0.7561
 4625TIP3    H238071   3.274   4.074  16.629  2.4136 -1.0114  3.5321
 4626TIP3   OH238072   5.674   5.729  16.074  0.0021  0.3317  0.4986
 4626TIP3    H138073   5.679   5.808  16.128  0.8316 -0.5615  1.7669
 4626TIP3    H238074   5.581   5.709  16.068 -0.2376  1.4902  0.0044
 4627TIP3   OH238075   0.939   2.894  16.623 -0.3224 -0.4663 -0.4211
 4627TIP3    H138076   0.896   2.893  16.708 -0.4143  1.4774 -0.4080
 4627TIP3    H238077   0.868   2.909  16.560 -0.2030 -1.4913 -0.8187
 4628TIP3   OH238078   6.576   8.128  17.603 -0.4997  0.2667  0.2358
 4628TIP3    H138079   6.617   8.182  17.537  2.5487 -1.1488  0.7898
 4628TIP3    H238080   6.565   8.186  17.679 -1.0490  1.0895 -0.4652
 4629TIP3   OH238081   8.877   2.735  16.190 -0.5007 -0.4121 -0.1342
 4629TIP3    H138082   8.859   2.675  16.262  1.4960  0.2899  1.0327
 4629TIP3    H238083   8.973   2.738  16.185 -0.4583  3.1969  0.3593
 4630TIP3   OH238084   4.651   5.946  17.753 -0.4862  0.4215 -0.3408
 4630TIP3    H138085   4.734   5.969  17.711 -1.5107  0.2696 -2.6449
 4630TIP3    H238086   4.629   5.860  17.717 -0.8333 -0.3404  1.5760
 4631TIP3   OH238087   4.130   5.045  16.649 -0.3147  0.1919 -0.1045
 4631TIP3    H138088   4.132   5.086  16.735 -0.8556  2.6845 -1.1921
 4631TIP3    H238089   4.220   5.012  16.637 -0.8465 -2.5279  2.3439
 4632TIP3   OH238090   5.621   1.861  17.099 -0.3584  0.2439 -0.0114
 4632TIP3    H138091   5.625   1.807  17.020  1.0552  0.7060 -0.2898
 4632TIP3    H238092   5.679   1.935  17.079 -1.0656  1.0717  0.9405
 4633TIP3   OH238093   1.110   1.803  16.483  0.7203  0.2934 -0.4934
 4633TIP3    H138094   1.136   1.717  16.517  1.1778  0.8806  0.7108
 4633TIP3    H238095   1.070   1.847  16.558  0.2665  1.0397 -1.1625
 4634TIP3   OH238096   3.686   1.138  15.746 -0.0469  0.1378  0.0864
 4634TIP3    H138097   3.671   1.230  15.725 -2.2841 -0.2211 -0.1744
 4634TIP3    H238098   3.741   1.106  15.674  0.9052  1.2834  0.2702
 4635TIP3   OH238099   2.466   5.358  16.105  0.1184  0.0163  0.2270
 4635TIP3    H138100   2.534   5.388  16.166 -0.0577 -0.8986  0.8925
 4635TIP3    H238101   2.498   5.274  16.073  0.5508  0.8127 -1.5343
 4636TIP3   OH238102   4.781   6.207  15.860 -0.6794 -0.4121  0.2699
 4636TIP3    H138103   4.814   6.281  15.910 -1.0960  1.0548 -1.5229
 4636TIP3    H238104   4.782   6.134  15.922 -0.1845  1.0484  2.0786
 4637TIP3   OH238105   9.026   9.214  16.004  0.3266  0.2080  0.2704
 4637TIP3    H138106   8.936   9.243  16.017  0.0920 -0.5705  0.4366
 4637TIP3    H238107   9.077   9.269  16.063 -0.1746 -0.0526  0.9744
 4638TIP3   OH238108   3.552   7.935  16.694  0.6901 -0.2566  0.0180
 4638TIP3    H138109   3.458   7.922  16.706  0.6293 -0.1160 -0.2938
 4638TIP3    H238110   3.585   7.957  16.781  0.3018  0.5053 -0.0252
 4639TIP3   OH238111   8.437   4.787  16.294  0.0460 -0.2316  0.2171
 4639TIP3    H138112   8.532   4.787  16.309  0.1514  0.8450 -0.3469
 4639TIP3    H238113   8.416   4.879  16.275 -0.7737 -0.7915 -1.8185
 4640TIP3   OH238114   2.887   5.744  16.777 -0.2341  0.2042  0.0562
 4640TIP3    H138115   2.840   5.754  16.693 -1.4777 -0.0346  0.6952
 4640TIP3    H238116   2.979   5.748  16.753 -0.5477  2.2956 -1.0679
 4641TIP3   OH238117   3.444   1.818  16.043  0.0096 -0.6172 -0.1905
 4641TIP3    H138118   3.396   1.860  16.114  0.2501  1.2368 -1.0659
 4641TIP3    H238119   3.536   1.832  16.065  0.2112 -3.0782  0.8522
 4642TIP3   OH238120   1.209   5.615  17.021 -0.0628 -0.8573 -0.2247
 4642TIP3    H138121   1.192   5.532  17.066  0.6444 -0.1003  1.5348
 4642TIP3    H238122   1.217   5.591  16.929 -0.8035 -2.6002  0.1275
 4643TIP3   OH238123   1.450   6.104  15.796 -0.0165  0.3778  0.2233
 4643TIP3    H138124   1.514   6.050  15.843 -0.5246 -1.3175 -0.9586
 4643TIP3    H238125   1.496   6.187  15.780  0.5118  0.6782  2.7752
 4644TIP3   OH238126   8.694   4.618  17.036  0.2869 -0.2775 -0.0866
 4644TIP3    H138127   8.608   4.583  17.058  0.1385 -0.9407 -1.5785
 4644TIP3    H238128   8.676   4.706  17.002 -0.1051 -1.1982 -2.4529
 4645TIP3   OH238129   0.199   3.740  16.982  0.1929  0.1496  0.0561
 4645TIP3    H138130   0.177   3.832  16.967  0.1989  0.0304 -0.7157
 4645TIP3    H238131   0.234   3.739  17.072 -1.9714  0.5091  0.9770
 4646TIP3   OH238132   2.422   0.917  17.630 -0.0383 -0.4664  0.0624
 4646TIP3    H138133   2.364   0.877  17.695  0.6963  0.7435  1.5338
 4646TIP3    H238134   2.494   0.855  17.620 -1.0064 -1.4738 -0.9612
 4647TIP3   OH238135   4.451   6.197  17.432 -0.3610  0.0393 -0.0740
 4647TIP3    H138136   4.397   6.247  17.493 -0.4410  0.3462 -0.3959
 4647TIP3    H238137   4.541   6.210  17.463 -0.4253 -0.0597  0.1597
 4648TIP3   OH238138   2.412   7.333  15.940 -0.0683  0.6935 -0.3284
 4648TIP3    H138139   2.369   7.253  15.912  1.4980 -0.3877  0.2213
 4648TIP3    H238140   2.352   7.403  15.915 -0.8563 -0.5365 -2.0594
 4649TIP3   OH238141   1.906   8.896  16.204 -0.3027  0.1487  0.2428
 4649TIP3    H138142   1.966   8.893  16.278  0.6732 -0.6283 -0.5486
 4649TIP3    H238143   1.899   8.805  16.175 -1.1938  0.3500 -0.2081
 4650TIP3   OH238144   7.291   8.920  17.880  0.2015  0.6556  0.2232
 4650TIP3    H138145   7.355   8.850  17.872 -0.0973  0.3207  0.6909
 4650TIP3    H238146   7.335   8.998  17.846  0.2570  0.0781 -1.0801
 4651TIP3   OH238147   1.200   2.329  16.710 -0.4896 -0.0704  0.1979
 4651TIP3    H138148   1.172   2.396  16.648  0.5576  0.3525  0.1642
 4651TIP3    H238149   1.182   2.367  16.796  1.3462  0.8510  0.2130
 4652TIP3   OH238150   4.089   6.621  17.004 -0.5798 -0.3452 -0.7114
 4652TIP3    H138151   4.006   6.638  17.048  0.6904  1.8766  1.0705
 4652TIP3    H238152   4.142   6.577  17.070  0.1127 -0.4792 -1.3424
 4653TIP3   OH238153   2.977   6.359  17.555  0.3327  0.2505 -0.0495
 4653TIP3    H138154   2.952   6.334  17.466  2.2206 -1.4165 -0.1634
 4653TIP3    H238155   2.934   6.294  17.611  1.5796 -0.5821 -0.0110
 4654TIP3   OH238156   2.398   1.669  17.714  0.0938 -0.3269  0.2954
 4654TIP3    H138157   2.404   1.664  17.618 -0.9313  0.3072  0.1869
 4654TIP3    H238158   2.317   1.717  17.730 -0.1438 -1.1018  1.4999
 4655TIP3   OH238159   6.192   1.696  16.828 -0.0756 -0.1543 -0.1178
 4655TIP3    H138160   6.220   1.783  16.801 -1.0447 -0.0138 -0.7098
 4655TIP3    H238161   6.266   1.639  16.809  1.1735  0.7545  1.7064
 4656TIP3   OH238162   8.153   7.642  16.575  0.6363 -0.3269 -0.4538
 4656TIP3    H138163   8.191   7.720  16.535 -0.2076  0.3865  0.1017
 4656TIP3    H238164   8.229   7.590  16.602  1.2359  0.7875  0.1032
 4657TIP3   OH238165   2.394   6.373  17.130  0.1938  0.2480 -0.2019
 4657TIP3    H138166   2.304   6.368  17.163 -0.3089  2.2239 -1.1044
 4657TIP3    H238167   2.396   6.311  17.057 -0.9750  1.3621 -1.2347
 4658TIP3   OH238168   1.840   8.899  15.679 -0.0591 -0.3559  0.1339
 4658TIP3    H138169   1.842   8.866  15.589 -0.9310 -0.1280  0.0182
 4658TIP3    H238170   1.749   8.928  15.692  0.5568  1.6445  0.3528
 4659TIP3   OH238171   5.640   6.910  17.376 -1.1182 -0.3472 -0.0732
 4659TIP3    H138172   5.643   6.993  17.328  1.1886  0.1619  0.7885
 4659TIP3    H238173   5.640   6.843  17.307  1.2174  0.3739 -0.8866
 4660TIP3   OH238174   2.358   0.278  17.178 -0.1895  0.2412  0.4658
 4660TIP3    H138175   2.276   0.277  17.129 -0.1861 -0.9477  0.4410
 4660TIP3    H238176   2.332   0.295  17.269 -0.1914  2.4810  0.0975
 4661TIP3   OH238177   6.588   4.702  16.473  0.2591  0.1435 -0.1248
 4661TIP3    H138178   6.600   4.611  16.447 -1.1775 -0.1534  0.1549
 4661TIP3    H238179   6.641   4.752  16.411  0.4300 -0.8298 -0.7818
 4662TIP3   OH238180   8.171   6.658  17.044 -0.0965  0.0293 -0.0075
 4662TIP3    H138181   8.205   6.698  17.124 -1.6640  0.0738  0.6696
 4662TIP3    H238182   8.240   6.673  16.979  0.8579  0.7191  1.1169
 4663TIP3   OH238183   8.827   3.302  17.302 -0.2410 -0.4003 -0.3610
 4663TIP3    H138184   8.793   3.238  17.240 -1.2185  1.4682 -1.8708
 4663TIP3    H238185   8.777   3.382  17.284  0.2954  0.5708  2.0340
 4664TIP3   OH238186   4.240   8.955  17.693  0.0487  0.7985  0.1246
 4664TIP3    H138187   4.322   8.987  17.655  1.5610  0.5000  2.8540
 4664TIP3    H238188   4.194   9.033  17.722 -1.1203  1.0285 -2.1458
 4665TIP3   OH238189   5.854   1.626  17.642 -0.1104 -0.6410  0.0806
 4665TIP3    H138190   5.944   1.593  17.642  0.3171  0.4545 -0.3589
 4665TIP3    H238191   5.847   1.676  17.560 -0.1424  1.7912  1.4835
 4666TIP3   OH238192   1.166   8.089  16.965 -0.2192 -0.5907 -0.0889
 4666TIP3    H138193   1.256   8.085  16.999 -0.3735 -0.7702  0.3006
 4666TIP3    H238194   1.173   8.057  16.875  0.1200 -0.5343 -0.0839
 4667TIP3   OH238195   2.167   6.689  16.509 -0.0523 -0.2981 -0.1547
 4667TIP3    H138196   2.105   6.660  16.442 -0.2117 -0.7913  0.1944
 4667TIP3    H238197   2.252   6.660  16.477 -0.2322 -1.3835  0.2901
 4668TIP3   OH238198   8.126   1.448  17.443 -0.3255 -0.3186  0.7240
 4668TIP3    H138199   8.033   1.427  17.449 -0.2454 -0.8608  0.2166
 4668TIP3    H238200   8.171   1.366  17.465 -0.0010 -0.7665 -1.3250
 4669TIP3   OH238201   8.623   5.639  16.177 -0.2722  0.1157  0.1473
 4669TIP3    H138202   8.543   5.672  16.137  0.2312  0.4639 -0.5918
 4669TIP3    H238203   8.649   5.565  16.121  0.8290  1.0529 -0.6369
 4670TIP3   OH238204   7.185   7.716  16.983  0.0043 -0.6576  0.1925
 4670TIP3    H138205   7.199   7.770  16.905 -0.0587  1.1925  1.3950
 4670TIP3    H238206   7.267   7.668  16.994  0.9105  0.8526  0.2909
 4671TIP3   OH238207   5.019   5.357  17.518  0.5015  0.0043  0.1558
 4671TIP3    H138208   4.980   5.270  17.528  1.7063 -0.5181  0.4871
 4671TIP3    H238209   4.945   5.417  17.528 -0.6474 -1.0048 -1.7102
 4672TIP3   OH238210   5.407   0.007  17.214  0.0943  0.3762 -0.3917
 4672TIP3    H138211   5.419  -0.023  17.304 -1.5629  0.0345 -0.2596
 4672TIP3    H238212   5.318  -0.019  17.191  0.3270  0.8626 -1.9816
 4673TIP3   OH238213   5.972   4.392  16.847 -0.7257 -0.3152 -0.0290
 4673TIP3    H138214   6.002   4.348  16.767  1.4158 -0.2579  0.6883
 4673TIP3    H238215   5.954   4.321  16.908  1.4315 -0.3476  0.6761
 4674TIP3   OH238216   3.279   7.760  17.467 -0.0614  0.3583  0.3056
 4674TIP3    H138217   3.367   7.778  17.435  0.0795 -1.2680 -0.3120
 4674TIP3    H238218   3.277   7.800  17.554  0.9316  1.2836 -0.0715
 4675TIP3   OH238219   7.691   7.476  17.566  0.0159  0.4282 -0.1935
 4675TIP3    H138220   7.707   7.561  17.609  2.9977 -0.9763  1.8347
 4675TIP3    H238221   7.706   7.494  17.473  1.5008  2.0055  0.2722
 4676TIP3   OH238222   2.173   6.426  17.608  0.1295  0.2628  0.1738
 4676TIP3    H138223   2.227   6.377  17.670  0.8065 -0.7530 -1.1853
 4676TIP3    H238224   2.129   6.359  17.555 -3.4714  0.9630  1.9282
 4677TIP3   OH238225   7.938   7.658  16.802  0.5921 -0.0202  0.4646
 4677TIP3    H138226   8.033   7.652  16.796  0.6902  0.6484  1.2177
 4677TIP3    H238227   7.908   7.664  16.712  1.4297  1.9117  0.2638
 4678TIP3   OH238228   1.940   2.230  17.548  0.5995 -0.3073  0.4629
 4678TIP3    H138229   1.917   2.182  17.627  1.3175 -1.4089  0.0359
 4678TIP3    H238230   1.900   2.179  17.477 -0.2787  0.8253  0.1324
 4679TIP3   OH238231   5.569   9.011  17.915  0.6817  0.0344  0.5925
 4679TIP3    H138232   5.626   8.997  17.991 -0.2895 -1.0494  1.1469
 4679TIP3    H238233   5.586   8.936  17.858  1.2480  0.7339 -0.1873
 4680TIP3   OH238234   5.265   8.718  17.426  0.1989 -0.1679  0.0001
 4680TIP3    H138235   5.279   8.723  17.332  0.3217  0.9142  0.0619
 4680TIP3    H238236   5.326   8.782  17.463 -1.4879  1.1575  0.6364
 4681TIP3   OH238237   4.718   0.410  16.853 -0.3829  0.0919  0.2324
 4681TIP3    H138238   4.674   0.437  16.934  0.4474  1.2317  0.3305
 4681TIP3    H238239   4.806   0.385  16.881 -1.3059 -3.6012  0.2548
 4682TIP3   OH238240   5.874   8.079  15.922 -0.6143  0.3398  0.3959
 4682TIP3    H138241   5.879   7.984  15.915 -2.2715  0.1372  1.5127
 4682TIP3    H238242   5.817   8.105  15.850 -0.9076  0.3831  0.6418
 4683TIP3   OH238243   7.478   5.555  16.782 -0.0240 -0.2368  0.2937
 4683TIP3    H138244   7.440   5.632  16.826  2.5589  1.5600 -0.4403
 4683TIP3    H238245   7.514   5.502  16.854 -0.1737  0.1687  0.6740
 4684TIP3   OH238246   4.461   2.662  17.114  0.4693  0.4208  0.1539
 4684TIP3    H138247   4.504   2.639  17.032  0.7198 -2.3147  0.9431
 4684TIP3    H238248   4.528   2.649  17.181 -0.2692  0.6713  0.9568
 4685TIP3   OH238249   0.342   0.299  15.794 -0.2728 -0.4171  0.1780
 4685TIP3    H138250   0.270   0.361  15.788 -1.4247 -1.6669  0.4172
 4685TIP3    H238251   0.386   0.321  15.876 -0.1965  0.5564 -0.1214
 4686TIP3   OH238252   2.343   4.840  17.278  0.1916 -0.0430  0.2051
 4686TIP3    H138253   2.318   4.754  17.310  1.5360 -0.5086  0.0449
 4686TIP3    H238254   2.263   4.875  17.238 -0.6775 -0.7170  1.3138
 4687TIP3   OH238255   8.807   0.678  16.854 -0.0615  0.3925 -0.7100
 4687TIP3    H138256   8.824   0.635  16.771 -0.7614 -0.5554 -0.3798
 4687TIP3    H238257   8.891   0.719  16.877  0.4974 -0.3988 -1.2665
 4688TIP3   OH238258   4.496   8.322  16.480 -0.3250  0.6678 -0.5682
 4688TIP3    H138259   4.418   8.289  16.435  0.1917  0.9574 -1.7002
 4688TIP3    H238260   4.547   8.244  16.501 -0.2931  0.5698 -1.0064
 4689TIP3   OH238261   7.646   7.102  17.396 -0.1892  0.5109  0.5113
 4689TIP3    H138262   7.624   7.019  17.353 -0.3427  0.5163  0.5792
 4689TIP3    H238263   7.742   7.102  17.399 -0.1127  1.1899 -1.1696
 4690TIP3   OH238264   6.375   6.866  16.442  0.2711  1.0972 -0.6218
 4690TIP3    H138265   6.373   6.926  16.367 -0.2633  0.5713 -1.0377
 4690TIP3    H238266   6.444   6.803  16.420 -1.3589 -0.4093 -1.7752
 4691TIP3   OH238267   3.654   7.484  17.488  0.1154 -0.1281 -0.7462
 4691TIP3    H138268   3.674   7.569  17.449 -1.4582  0.5627 -0.1371
 4691TIP3    H238269   3.626   7.429  17.415  0.5950  0.0517 -1.0655
 4692TIP3   OH238270   6.403   7.501  16.669  0.5018  0.0996  0.0065
 4692TIP3    H138271   6.396   7.554  16.748  1.6228 -1.0457  0.9177
 4692TIP3    H238272   6.429   7.562  16.600 -0.6828  1.1456  0.4641
 4693TIP3   OH238273   6.022   5.799  17.437  0.2339 -0.2743 -0.2575
 4693TIP3    H138274   5.941   5.748  17.439  2.0371 -3.4086  2.3404
 4693TIP3    H238275   6.090   5.736  17.413  2.3030  1.5358  0.4948
 4694TIP3   OH238276   8.621   4.195  16.181  0.2395 -0.1099  0.0641
 4694TIP3    H138277   8.648   4.108  16.210  1.1241 -0.7394 -2.4260
 4694TIP3    H238278   8.610   4.187  16.087 -1.2741  2.1005 -0.0268
 4695TIP3   OH238279   3.290   1.026  16.398  0.4606 -0.0168  0.2620
 4695TIP3    H138280   3.202   1.055  16.374  0.7953 -0.7378 -2.1003
 4695TIP3    H238281   3.276   0.942  16.443 -0.0185 -0.7912 -1.2861
 4696TIP3   OH238282   4.200   6.631  17.549 -0.2041 -0.0559  0.4235
 4696TIP3    H138283   4.246   6.714  17.539  1.2293 -0.9228 -0.5540
 4696TIP3    H238284   4.109   6.652  17.530  0.2463  1.1738 -0.5248
 4697TIP3   OH238285   5.176   0.620  17.341  0.0330 -0.3507  0.3186
 4697TIP3    H138286   5.163   0.528  17.367 -1.6908 -0.1958  0.0902
 4697TIP3    H238287   5.199   0.615  17.249  0.7747 -0.5837  0.5040
 4698TIP3   OH238288   6.767   0.475  17.147 -0.1706  0.0441 -0.1525
 4698TIP3    H138289   6.768   0.569  17.165  0.3435  0.2414 -1.1976
 4698TIP3    H238290   6.835   0.439  17.204 -0.5770  0.2559  0.4762
 4699TIP3   OH238291   3.093   7.610  17.294 -0.5772  0.1971 -0.4146
 4699TIP3    H138292   3.079   7.536  17.354  1.4494 -0.2920 -0.4718
 4699TIP3    H238293   3.147   7.671  17.344 -0.9009  0.9042 -0.9236
 4700TIP3   OH238294   0.908   0.265  17.628 -0.1219  0.2836  0.7714
 4700TIP3    H138295   0.854   0.247  17.551 -0.7709 -0.3952  1.3645
 4700TIP3    H238296   0.985   0.208  17.618  0.5090  1.2429 -0.0689
 4701TIP3   OH238297   6.070   0.648  16.279 -0.1213 -0.2119 -0.8930
 4701TIP3    H138298   6.009   0.620  16.347 -0.5190  0.1514 -1.0895
 4701TIP3    H238299   6.105   0.567  16.242 -1.4871 -0.4841 -1.6611
 4702TIP3   OH238300   2.057   6.734  17.762 -0.0614 -0.2267 -0.1802
 4702TIP3    H138301   2.012   6.655  17.732  0.7787 -0.7458 -0.1089
 4702TIP3    H238302   2.114   6.703  17.833 -0.3465  0.5905  0.4215
 4703TIP3   OH238303   4.329   1.768  16.036  0.2296  0.0273 -0.1175
 4703TIP3    H138304   4.366   1.704  15.975  0.0151 -2.1462  1.9016
 4703TIP3    H238305   4.237   1.743  16.046  0.3174  0.1706  1.2766
 4704TIP3   OH238306   2.444   4.079  17.256 -0.7744 -0.0408 -0.1178
 4704TIP3    H138307   2.430   4.097  17.163  0.7772 -0.3740 -0.4515
 4704TIP3    H238308   2.424   3.986  17.265 -0.2800 -0.1680 -0.2772
 4705TIP3   OH238309   6.382   0.588  16.556  0.1071 -0.3578 -0.0203
 4705TIP3    H138310   6.346   0.501  16.539  0.9832 -0.3799 -2.1201
 4705TIP3    H238311   6.428   0.610  16.475  1.1637  1.4427  1.0254
 4706TIP3   OH238312   7.373   1.749  17.151  0.4929 -0.8883  0.5956
 4706TIP3    H138313   7.313   1.815  17.185  0.8894 -1.2992  2.1804
 4706TIP3    H238314   7.420   1.793  17.081 -0.4265 -0.0206  0.5022
 4707TIP3   OH238315   6.839   2.313  16.730  0.2424 -0.5521 -0.1461
 4707TIP3    H138316   6.793   2.307  16.813  1.3157  0.1910  0.5371
 4707TIP3    H238317   6.892   2.392  16.738  0.3789 -0.4808 -1.5359
 4708TIP3   OH238318   0.561   4.410  16.426 -0.2270 -0.1545 -0.5246
 4708TIP3    H138319   0.524   4.357  16.497  1.2833 -0.0728  0.3752
 4708TIP3    H238320   0.592   4.489  16.470 -0.7806  0.6701 -1.5693
 4709TIP3   OH238321   3.658   4.636  17.000 -0.5020 -0.0018  0.3640
 4709TIP3    H138322   3.688   4.668  17.085  1.8629  1.1753 -0.8369
 4709TIP3    H238323   3.596   4.703  16.970 -0.1289  0.3854  0.4591
 4710TIP3   OH238324   7.049   0.795  17.120 -0.4325  0.4327 -0.2574
 4710TIP3    H138325   7.044   0.890  17.126 -2.1806  0.3822 -0.3847
 4710TIP3    H238326   6.968   0.769  17.077 -0.5997 -1.2270  0.9406
 4711TIP3   OH238327   0.907   5.626  17.825  0.4415  0.4582  0.5498
 4711TIP3    H138328   0.908   5.532  17.839  0.7987  0.5243  1.0088
 4711TIP3    H238329   0.814   5.648  17.819  0.3168  0.1881  1.2893
 4712TIP3   OH238330   4.645   0.158  16.617  0.1853 -0.1049 -0.7330
 4712TIP3    H138331   4.639   0.141  16.711 -1.0144  1.4524 -0.4762
 4712TIP3    H238332   4.705   0.233  16.610  0.6474 -0.5126 -1.2656
 4713TIP3   OH238333   3.905   3.264  17.734  0.3967 -0.4295 -0.6445
 4713TIP3    H138334   3.895   3.338  17.795 -0.8924 -0.9094 -0.2331
 4713TIP3    H238335   3.992   3.276  17.696 -0.6644  2.7010 -2.4637
 4714TIP3   OH238336   1.173   2.628  17.155 -0.1554  1.0318 -0.3143
 4714TIP3    H138337   1.252   2.618  17.207  0.8004  0.1323 -1.8690
 4714TIP3    H238338   1.177   2.718  17.122 -0.4810  1.4173  0.6408
 4715TIP3   OH238339   3.939   2.341  17.052 -0.6888  0.4578  0.1463
 4715TIP3    H138340   4.017   2.390  17.078 -1.0558  1.4536 -0.5804
 4715TIP3    H238341   3.963   2.298  16.970 -0.6607  0.1497  0.3167
 4716TIP3   OH238342   5.550   5.923  16.234 -0.1059  0.0091  0.5777
 4716TIP3    H138343   5.463   5.909  16.198 -0.2189  0.6402  0.5981
 4716TIP3    H238344   5.543   6.005  16.283  0.4053 -0.1225  0.8789
 4717TIP3   OH238345   7.860   3.329  17.285 -1.0743 -0.0112 -0.1463
 4717TIP3    H138346   7.931   3.324  17.348 -1.1769 -1.2950 -0.1053
 4717TIP3    H238347   7.877   3.409  17.235  0.2014 -0.1224  0.0873
 4718TIP3   OH238348   4.806   3.254  17.584  0.0300  0.5848  0.2386
 4718TIP3    H138349   4.865   3.256  17.509  0.7151  2.0921  0.7787
 4718TIP3    H238350   4.785   3.161  17.596  1.0853  0.1812 -0.8959
 4719TIP3   OH238351   3.691   0.887  15.942  0.3129  0.0285 -0.2729
 4719TIP3    H138352   3.680   0.957  15.878 -0.9675  1.2614  1.2142
 4719TIP3    H238353   3.732   0.929  16.018 -2.3765 -0.2208  1.4777
 4720TIP3   OH238354   8.136   7.418  16.230  0.0465 -1.2325  0.3153
 4720TIP3    H138355   8.049   7.445  16.201  0.4333 -1.3528 -1.0201
 4720TIP3    H238356   8.182   7.500  16.247 -1.0305 -1.1347  3.4509
 4721TIP3   OH238357   5.249   2.001  17.809  0.6199  0.0504  0.1483
 4721TIP3    H138358   5.162   2.042  17.807  0.7887  0.3895 -0.2837
 4721TIP3    H238359   5.307   2.068  17.844  0.4429 -0.7085  2.0123
 4722TIP3   OH238360   2.391   4.392  17.491 -0.5607  0.3503  0.5800
 4722TIP3    H138361   2.433   4.465  17.535  1.4604 -1.6129  2.1253
 4722TIP3    H238362   2.461   4.328  17.478 -2.5469 -2.0281  0.8363
 4723TIP3   OH238363   1.747   0.951  16.410  0.0225  0.3366  0.0043
 4723TIP3    H138364   1.760   0.938  16.503 -1.6692  1.0340  0.3914
 4723TIP3    H238365   1.818   0.903  16.368 -0.4410 -1.8691  1.5769
 4724TIP3   OH238366   0.276   3.960  17.662 -0.1084  0.1689  0.5929
 4724TIP3    H138367   0.270   3.865  17.648 -0.5285  0.0950  1.2258
 4724TIP3    H238368   0.186   3.987  17.682  0.0013  0.7065  0.3701
 4725TIP3   OH238369   4.870   6.734  17.761  0.1514  0.5192  0.2279
 4725TIP3    H138370   4.864   6.813  17.707 -1.9025  0.4461  0.2520
 4725TIP3    H238371   4.786   6.732  17.809  0.9631 -0.6544  1.6747
 4726TIP3   OH238372   5.706   6.172  17.062  0.5281 -0.0940 -0.1151
 4726TIP3    H138373   5.778   6.233  17.046  0.2321 -0.2637 -2.3451
 4726TIP3    H238374   5.627   6.221  17.039  0.0830 -0.5467  0.4184
 4727TIP3   OH238375   3.721   2.756  16.192 -0.7845 -0.2114 -0.0813
 4727TIP3    H138376   3.767   2.672  16.182  2.3583  1.3545 -0.0137
 4727TIP3    H238377   3.713   2.768  16.286  2.0629  1.0617  0.1044
 4728TIP3   OH238378   4.556   3.946  16.137  0.1028 -0.0186 -0.1911
 4728TIP3    H138379   4.566   3.975  16.047  0.9460  0.0901 -0.0733
 4728TIP3    H238380   4.640   3.906  16.159  0.2796  0.8640  0.8620
 4729TIP3   OH238381   4.589   3.591  17.175 -0.3205  0.2920  0.4729
 4729TIP3    H138382   4.590   3.567  17.267  1.2822 -0.6191  0.2558
 4729TIP3    H238383   4.534   3.525  17.134  0.5035 -0.4400  0.5212
 4730TIP3   OH238384   0.541   3.560  17.245  0.1674 -0.4151  0.2238
 4730TIP3    H138385   0.594   3.639  17.241  1.4066 -1.2513 -0.2476
 4730TIP3    H238386   0.603   3.489  17.262 -0.7658 -1.4434 -0.4566
 4731TIP3   OH238387   2.926   3.370  16.349  0.0328 -0.2668  0.7022
 4731TIP3    H138388   3.001   3.406  16.396  1.7008 -1.8282 -0.5487
 4731TIP3    H238389   2.853   3.427  16.371  0.6128 -0.9161  5.1609
 4732TIP3   OH238390   2.726   4.277  17.148 -0.8624  0.1756  0.0050
 4732TIP3    H138391   2.787   4.213  17.112 -0.6371  0.1727  0.3911
 4732TIP3    H238392   2.694   4.325  17.072  1.3751  1.7598 -0.0254
 4733TIP3   OH238393   1.906   4.013  16.422 -0.3735 -0.1488  0.4957
 4733TIP3    H138394   1.926   3.987  16.331  0.2067  0.3365  0.4787
 4733TIP3    H238395   1.984   3.987  16.471 -1.1736 -1.5511  1.0981
 4734TIP3   OH238396   8.270   2.871  17.271  0.5514 -0.0259 -0.1319
 4734TIP3    H138397   8.198   2.808  17.264 -0.2155  0.9255 -1.3517
 4734TIP3    H238398   8.227   2.954  17.294  1.2929  0.4886 -0.5442
 4735TIP3   OH238399   8.537   7.933  16.955  0.2814  0.1897  0.4248
 4735TIP3    H138400   8.599   7.868  16.919  1.0592  0.3404  1.4268
 4735TIP3    H238401   8.479   7.882  17.010  0.5969  0.2668  0.8371
 4736TIP3   OH238402   8.144   7.934  16.783 -0.9907  0.2931  0.6283
 4736TIP3    H138403   8.191   7.851  16.798 -0.1574  0.4941 -0.7334
 4736TIP3    H238404   8.055   7.907  16.763 -0.5704 -0.3454 -0.4864
 4737TIP3   OH238405   8.817   7.309  16.390 -0.3154  0.7219 -0.2457
 4737TIP3    H138406   8.847   7.331  16.302  1.1844 -1.1161 -0.2555
 4737TIP3    H238407   8.871   7.363  16.448  1.7706 -1.1097 -0.3505
 4738TIP3   OH238408   8.706   0.824  16.434 -0.4483  0.4927 -0.6126
 4738TIP3    H138409   8.644   0.889  16.468 -0.8349  1.0867 -2.3317
 4738TIP3    H238410   8.752   0.870  16.364 -0.0987 -0.8300 -1.2738
 4739TIP3   OH238411   5.333   6.477  16.701 -0.2947  0.3198  0.1123
 4739TIP3    H138412   5.246   6.504  16.670  0.3253  2.5512  0.1538
 4739TIP3    H238413   5.374   6.558  16.729  2.5127 -0.3776 -1.6299
 4740TIP3   OH238414   5.166   6.043  15.972  0.3591 -0.5994 -0.4510
 4740TIP3    H138415   5.246   5.990  15.972  2.6285  2.4844 -2.2267
 4740TIP3    H238416   5.171   6.096  16.052 -0.1022 -0.6449 -0.3878
 4741TIP3   OH238417   0.783   1.383  17.306 -0.0683  0.3472  0.3262
 4741TIP3    H138418   0.740   1.331  17.374 -1.3706 -1.0150 -1.4454
 4741TIP3    H238419   0.855   1.328  17.276 -1.0754 -0.2338 -1.1325
 4742TIP3   OH238420   1.577   1.005  16.989  0.2164 -0.4981 -0.9346
 4742TIP3    H138421   1.507   0.974  17.046  0.5313 -0.1865 -0.3686
 4742TIP3    H238422   1.543   1.086  16.951  0.5317  0.0362 -0.1057
 4743TIP3   OH238423   2.864   7.525  15.905  0.0222 -0.2663 -0.0849
 4743TIP3    H138424   2.784   7.513  15.956  0.9461 -1.6359  1.1057
 4743TIP3    H238425   2.877   7.620  15.903 -0.1099 -0.1470  2.1735
 4744TIP3   OH238426   2.189   6.675  17.062 -0.5488 -0.2303 -0.0048
 4744TIP3    H138427   2.278   6.691  17.092 -0.6008  1.1395 -0.5121
 4744TIP3    H238428   2.198   6.640  16.973 -0.5228  0.6462 -0.3554
 4745TIP3   OH238429   6.357   4.048  17.496  0.1341  0.3208  0.1108
 4745TIP3    H138430   6.442   4.072  17.461  0.9093 -0.3497  1.4332
 4745TIP3    H238431   6.332   4.121  17.553 -0.5434  0.8518 -0.8403
 4746TIP3   OH238432   4.184   5.909  16.385  0.2580  0.3985  0.4623
 4746TIP3    H138433   4.118   5.877  16.324  3.2254 -0.2422 -2.7417
 4746TIP3    H238434   4.211   5.831  16.434  1.3662 -0.3008 -1.1515
 4747TIP3   OH238435   5.118   6.684  17.631 -0.9635 -0.2333 -0.0596
 4747TIP3    H138436   5.171   6.749  17.678 -0.5975  0.8061 -1.8139
 4747TIP3    H238437   5.037   6.678  17.681 -0.8864  1.3673  0.3131
 4748TIP3   OH238438   8.313   2.172  17.412 -0.6808 -0.0260  0.1258
 4748TIP3    H138439   8.298   2.265  17.395 -0.5389 -0.2088 -1.1250
 4748TIP3    H238440   8.251   2.149  17.480 -1.9454  0.5922 -0.7766
 4749TIP3   OH238441   2.012   7.236  16.922  0.1606  0.3356 -0.7116
 4749TIP3    H138442   2.063   7.281  16.990 -1.0967  0.0527  0.4562
 4749TIP3    H238443   1.992   7.151  16.960 -1.0424  0.3772 -1.2044
 4750TIP3   OH238444   0.063   4.418  16.722 -0.0804 -0.3642  0.5984
 4750TIP3    H138445   0.060   4.488  16.787 -2.7812  1.1813 -1.0025
 4750TIP3    H238446   0.122   4.451  16.654 -0.5560 -0.0577  0.3249
 4751TIP3   OH238447   0.832   6.783  16.400 -0.3460  0.0993 -0.3633
 4751TIP3    H138448   0.885   6.796  16.321 -0.8908 -2.4664 -1.2612
 4751TIP3    H238449   0.744   6.809  16.374 -0.0068  2.1529  0.4071
 4752TIP3   OH238450   1.119   6.467  17.052  0.2806  0.3233  0.2046
 4752TIP3    H138451   1.090   6.470  17.143  0.8321 -0.2645  0.4001
 4752TIP3    H238452   1.038   6.456  17.002 -0.0395  0.7908  0.6085
 4753TIP3   OH238453   7.290   5.035  16.341 -0.3631 -0.0292  0.0097
 4753TIP3    H138454   7.323   5.117  16.303  1.7718 -0.5714  0.5120
 4753TIP3    H238455   7.231   5.000  16.275 -1.3961  1.9263 -0.1882
 4754TIP3   OH238456   1.759   7.896  17.742  0.3170  0.2417 -0.1819
 4754TIP3    H138457   1.851   7.880  17.721 -0.2729 -0.6089 -2.4234
 4754TIP3    H238458   1.758   7.982  17.782  1.9665  0.7686 -1.1649
 4755TIP3   OH238459   4.496   2.030  16.343 -0.1250  0.3300 -0.4552
 4755TIP3    H138460   4.508   1.959  16.406 -0.5294  1.1173  0.5173
 4755TIP3    H238461   4.563   2.013  16.276  1.7769  0.6823  1.2541
 4756TIP3   OH238462   8.401   7.745  15.777  0.4129 -0.0474  0.1303
 4756TIP3    H138463   8.444   7.830  15.767 -0.3922  0.3733  0.1194
 4756TIP3    H238464   8.336   7.759  15.846  0.8647 -0.9037  0.7418
 4757TIP3   OH238465   8.321   2.458  17.322 -0.4368 -0.1737  0.3672
 4757TIP3    H138466   8.414   2.467  17.302 -0.4110 -0.8640  0.1364
 4757TIP3    H238467   8.279   2.443  17.237 -0.9604  1.4966  0.2874
 4758TIP3   OH238468   7.951   0.868  16.314 -0.0278  0.2147  0.4237
 4758TIP3    H138469   7.917   0.778  16.314  2.3423 -0.7574  0.7354
 4758TIP3    H238470   7.994   0.877  16.230  2.0415  0.0670  1.4091
 4759TIP3   OH238471   6.250   8.348  16.618 -0.9713  0.2606 -0.2836
 4759TIP3    H138472   6.295   8.287  16.677 -0.5617 -0.4767 -1.3317
 4759TIP3    H238473   6.172   8.375  16.666 -0.9407 -0.7625  0.3726
 4760TIP3   OH238474   2.906   4.286  16.497 -0.1842  0.2905  0.0348
 4760TIP3    H138475   2.841   4.324  16.556  1.4053  1.4986  1.1248
 4760TIP3    H238476   2.900   4.192  16.512 -0.6180  0.4928  1.3090
 4761TIP3   OH238477   6.846   7.130  16.457 -0.9194  0.4301  0.7549
 4761TIP3    H138478   6.793   7.059  16.419  1.2242 -1.2242  0.6397
 4761TIP3    H238479   6.920   7.085  16.498  0.3466  2.5915  0.9988
 4762TIP3   OH238480   1.627   1.086  16.156 -0.1925 -0.9279  0.6320
 4762TIP3    H138481   1.629   1.051  16.246 -1.7644 -0.0460  1.0576
 4762TIP3    H238482   1.535   1.082  16.132  0.0291  0.0975 -0.4480
 4763TIP3   OH238483   5.062   4.494  16.275  0.0578  0.2050  0.6501
 4763TIP3    H138484   5.109   4.511  16.194 -0.3704  0.7986  0.5190
 4763TIP3    H238485   4.989   4.438  16.249 -0.2706  0.6684  0.5643
 4764TIP3   OH238486   4.826   9.161  17.724 -0.8315 -0.5374  0.1717
 4764TIP3    H138487   4.788   9.232  17.673 -0.0675 -0.3544 -0.1552
 4764TIP3    H238488   4.821   9.191  17.815  0.4165  0.3968 -0.0404
 4765TIP3   OH238489   5.980   4.899  17.383 -0.9335 -0.4037 -0.4121
 4765TIP3    H138490   5.930   4.857  17.313 -2.6145  0.7205  0.0789
 4765TIP3    H238491   5.994   4.988  17.353 -2.9250  0.5388  1.2251
 4766TIP3   OH238492   2.565   1.132  17.069 -0.2316  0.3551  0.6716
 4766TIP3    H138493   2.647   1.101  17.032 -1.4006  1.3283 -3.2208
 4766TIP3    H238494   2.561   1.093  17.156  3.4521 -1.1675  0.3200
 4767TIP3   OH238495   3.735   1.416  17.803  0.1676 -0.4204 -0.3912
 4767TIP3    H138496   3.702   1.445  17.718  1.3681  2.2981 -0.0225
 4767TIP3    H238497   3.659   1.420  17.861 -0.6532 -2.2552 -1.2376
 4768TIP3   OH238498   1.546   3.299  16.036  0.5177 -0.1436 -0.4173
 4768TIP3    H138499   1.480   3.287  15.968  0.9312 -1.5874 -0.5963
 4768TIP3    H238500   1.628   3.273  15.995  1.0500  0.5986  0.1360
 4769TIP3   OH238501   6.024   7.476  16.705 -0.0677  0.7210  0.2288
 4769TIP3    H138502   5.986   7.442  16.786  0.7985  1.3644  0.9209
 4769TIP3    H238503   6.082   7.406  16.675 -1.9942 -0.4297 -1.0390
 4770TIP3   OH238504   4.259   8.346  17.576 -0.2820  0.6061 -0.1789
 4770TIP3    H138505   4.230   8.406  17.645  0.4143  1.0397 -0.2534
 4770TIP3    H238506   4.239   8.259  17.611 -0.4101  0.8410  0.3480
 4771TIP3   OH238507   3.638   7.666  17.245 -0.6208  0.0399  0.4241
 4771TIP3    H138508   3.592   7.749  17.255 -4.3262 -1.5642 -1.4521
 4771TIP3    H238509   3.651   7.657  17.150  0.9784 -0.9699  0.6908
 4772TIP3   OH238510   7.011   7.681  17.188 -0.3505 -0.1624 -0.1890
 4772TIP3    H138511   6.987   7.589  17.200  1.7765 -0.6162  0.9795
 4772TIP3    H238512   7.076   7.680  17.117  0.9500  0.1736  0.9507
 4773TIP3   OH238513   7.081   7.106  16.205  0.4221  0.3609 -0.1058
 4773TIP3    H138514   7.005   7.158  16.179  1.3387  2.4573  1.1462
 4773TIP3    H238515   7.083   7.113  16.301  0.8237 -1.7389  0.0948
 4774TIP3   OH238516   3.900   4.149  16.578 -0.1278 -0.1254  0.3454
 4774TIP3    H138517   3.859   4.191  16.654 -0.2698  0.4887 -0.0658
 4774TIP3    H238518   3.827   4.103  16.535 -0.2202  0.2544  0.0927
 4775TIP3   OH238519   2.309   4.693  16.158  0.5270 -0.8774 -0.4636
 4775TIP3    H138520   2.271   4.605  16.150 -0.8313 -0.1831 -2.2826
 4775TIP3    H238521   2.233   4.751  16.157  1.4063  0.3554  0.7363
 4776TIP3   OH238522   4.343   2.297  16.090 -0.3354 -0.4999  0.1619
 4776TIP3    H138523   4.412   2.300  16.156  0.6962 -0.8877 -0.8578
 4776TIP3    H238524   4.359   2.215  16.043 -1.3997 -0.5128 -0.1969
 4777TIP3   OH238525   2.531   6.365  17.377  0.1871  0.3082  0.6311
 4777TIP3    H138526   2.503   6.374  17.286  0.0787  1.8066  0.7925
 4777TIP3    H238527   2.496   6.280  17.405 -2.2412  1.0921  0.1380
 4778TIP3   OH238528   8.242   7.682  16.875  0.1654 -0.2276  0.1335
 4778TIP3    H138529   8.272   7.623  16.806 -1.5288  0.5147 -1.3084
 4778TIP3    H238530   8.297   7.659  16.951  0.6960 -2.4703 -0.8282
 4779TIP3   OH238531   5.445   7.678  16.681  0.1172  0.2162  0.1200
 4779TIP3    H138532   5.507   7.691  16.610 -1.3938  0.7925 -1.1326
 4779TIP3    H238533   5.368   7.640  16.639 -1.0743  1.2210  1.3200
 4780TIP3   OH238534   8.148   7.133  16.248 -0.2509 -0.5277  0.4018
 4780TIP3    H138535   8.179   7.217  16.282 -0.5780  0.0302 -0.6275
 4780TIP3    H238536   8.052   7.140  16.251 -0.2783 -0.9318  0.4756
 4781TIP3   OH238537   0.156   8.658  15.763 -0.4048 -0.0661 -0.2182
 4781TIP3    H138538   0.208   8.729  15.723 -1.6147  1.2124  0.3931
 4781TIP3    H238539   0.094   8.632  15.695  1.7978 -2.5560 -1.4496
 4782TIP3   OH238540   2.208   1.471  17.221  0.1981  0.0659  0.1169
 4782TIP3    H138541   2.259   1.392  17.202  1.1772  0.3128  1.6004
 4782TIP3    H238542   2.168   1.454  17.306 -1.6562  0.1838 -0.6741
 4783TIP3   OH238543   5.255   3.001  17.431  0.3830 -0.4142  0.0320
 4783TIP3    H138544   5.220   2.982  17.517 -1.7465  1.4467 -0.3292
 4783TIP3    H238545   5.228   2.927  17.376  1.0099 -1.1782  0.7241
 4784TIP3   OH238546   7.815   5.795  17.738  0.3808  0.0604 -0.6192
 4784TIP3    H138547   7.895   5.840  17.712 -1.1602  3.1175 -0.5216
 4784TIP3    H238548   7.763   5.791  17.658 -0.7379  1.3135  0.0135
 4785TIP3   OH238549   4.155   0.243  17.662 -0.1457  0.0221 -0.7290
 4785TIP3    H138550   4.176   0.288  17.580 -0.1259 -1.9804 -1.8596
 4785TIP3    H238551   4.089   0.178  17.639  0.8459 -1.5125  0.5569
 4786TIP3   OH238552   2.235   7.301  15.620  0.2257 -0.2321  0.5079
 4786TIP3    H138553   2.167   7.315  15.554  0.0435  0.4911  0.8323
 4786TIP3    H238554   2.317   7.315  15.575  0.0901  0.5778  0.5024
 4787TIP3   OH238555   5.083   8.186  17.219 -0.6145 -0.7146  0.4138
 4787TIP3    H138556   5.015   8.176  17.151  1.8729 -2.0245 -2.0944
 4787TIP3    H238557   5.081   8.279  17.241 -0.2136  0.2920 -3.1170
 4788TIP3   OH238558   0.513   4.622  17.793 -0.2730 -0.1263 -1.0729
 4788TIP3    H138559   0.431   4.666  17.771 -1.1851 -0.0282  2.1541
 4788TIP3    H238560   0.565   4.688  17.838  0.9102 -0.6940 -1.5448
 4789TIP3   OH238561   5.849   6.672  17.314 -0.5744 -0.0160 -0.1741
 4789TIP3    H138562   5.886   6.730  17.247  0.9970  0.0325  0.7036
 4789TIP3    H238563   5.888   6.702  17.396 -2.4842 -0.0605  0.7970
 4790TIP3   OH238564   3.596   4.202  16.401 -0.0032 -0.1482  0.2569
 4790TIP3    H138565   3.539   4.224  16.476  0.3394  0.3169  0.3870
 4790TIP3    H238566   3.538   4.210  16.325 -0.0060  0.7865  0.3457
 4791TIP3   OH238567   4.237   1.980  16.333 -0.5086  0.3071 -0.7048
 4791TIP3    H138568   4.332   1.990  16.335 -0.4971  0.1276  0.0977
 4791TIP3    H238569   4.205   2.057  16.286 -0.0770  1.3562  0.6461
 4792TIP3   OH238570   1.045   7.154  17.181 -0.2549  0.4364 -0.3892
 4792TIP3    H138571   1.029   7.112  17.097 -2.1102 -0.4240  0.3407
 4792TIP3    H238572   1.010   7.243  17.171 -1.1880  0.0884 -0.3056
 4793TIP3   OH238573   0.554   0.322  16.904  0.1154  0.3207  0.2672
 4793TIP3    H138574   0.503   0.389  16.860 -0.0266 -0.6432 -1.0911
 4793TIP3    H238575   0.502   0.242  16.895  0.3751 -0.0367  1.6646
 4794TIP3   OH238576   3.864   7.365  15.898  0.1389 -0.4824 -0.0299
 4794TIP3    H138577   3.876   7.449  15.942 -0.3291 -1.1429  1.4396
 4794TIP3    H238578   3.920   7.370  15.821  1.4022  0.5449  0.8987
 4795TIP3   OH238579   1.158   2.280  15.787 -0.2410 -0.0675  0.3696
 4795TIP3    H138580   1.086   2.249  15.732 -0.0329  0.1384 -0.0217
 4795TIP3    H238581   1.154   2.376  15.780  1.5644 -0.0783 -1.6267
 4796TIP3   OH238582   4.037   1.728  16.962  0.3584 -0.2177  0.1007
 4796TIP3    H138583   4.116   1.776  16.938 -0.0368  0.3651 -0.0605
 4796TIP3    H238584   3.999   1.779  17.034 -0.6222  0.3037 -0.7632
 4797TIP3   OH238585   3.965   0.074  17.224 -0.2362  0.6234 -0.0680
 4797TIP3    H138586   3.899   0.115  17.281  0.3676 -0.9519  1.8773
 4797TIP3    H238587   3.926  -0.010  17.199 -0.9123  1.6769 -2.9357
 4798TIP3   OH238588   8.476   7.898  17.355 -0.5996  0.1863 -0.5661
 4798TIP3    H138589   8.397   7.874  17.307 -1.0061 -1.8261  0.9520
 4798TIP3    H238590   8.500   7.818  17.402  1.3372  1.2642  0.3957
 4799TIP3   OH238591   2.774   1.410  17.579  0.5352 -0.2641 -0.0577
 4799TIP3    H138592   2.778   1.323  17.618 -1.1221 -1.0904 -1.6021
 4799TIP3    H238593   2.681   1.427  17.567  0.8946  0.8714 -1.5933
 4800TIP3   OH238594   8.549   2.436  16.902  0.0711  0.2089 -0.0306
 4800TIP3    H138595   8.580   2.512  16.950  0.1356  1.5684 -2.0844
 4800TIP3    H238596   8.547   2.366  16.967  1.8891  1.4560  1.4969
 4801TIP3   OH238597   8.921   3.437  16.545  0.8306  0.0795  0.0558
 4801TIP3    H138598   8.860   3.471  16.480  1.2812 -0.2313 -0.5439
 4801TIP3    H238599   8.983   3.386  16.494  0.4160 -1.2955  0.8711
 4802TIP3   OH238600   2.734   6.202  17.061 -0.4579 -0.7448 -0.3768
 4802TIP3    H138601   2.643   6.185  17.038 -0.1987 -0.5579 -1.5900
 4802TIP3    H238602   2.785   6.136  17.014  0.0334 -0.8746  0.3201
 4803TIP3   OH238603   7.077   1.453  17.139 -0.2318 -0.1266 -0.1858
 4803TIP3    H138604   7.022   1.513  17.188  0.6349  0.3587  0.2078
 4803TIP3    H238605   7.144   1.424  17.201  1.0368  0.6956 -1.1105
 4804TIP3   OH238606   7.609   6.341  17.010  0.2306 -0.3063 -0.1773
 4804TIP3    H138607   7.682   6.340  17.072 -0.3036 -1.0537  0.4639
 4804TIP3    H238608   7.622   6.262  16.957 -0.3730 -0.7078  0.2637
 4805TIP3   OH238609   4.497   5.875  16.273  0.3330 -0.7016 -0.2885
 4805TIP3    H138610   4.411   5.898  16.238  0.1869 -0.0639  0.4781
 4805TIP3    H238611   4.544   5.837  16.198 -0.1968  0.0443 -1.0165
 4806TIP3   OH238612   9.065   1.003  17.099 -0.4475  0.4573 -0.1605
 4806TIP3    H138613   9.081   1.032  17.010 -2.0151 -0.4017 -0.7611
 4806TIP3    H238614   9.027   1.080  17.143  3.4666  2.0341  0.8683
 4807TIP3   OH238615   4.477   3.446  16.170 -0.9595  0.2237  0.1266
 4807TIP3    H138616   4.527   3.526  16.154 -0.0193 -0.5631 -1.1150
 4807TIP3    H238617   4.503   3.419  16.258 -1.0558  1.1214  0.4363
 4808TIP3   OH238618   2.119   0.246  17.057  0.2202 -1.0550  0.1602
 4808TIP3    H138619   2.052   0.229  16.991  0.9871  0.5037 -1.0910
 4808TIP3    H238620   2.073   0.239  17.140 -1.3888 -0.5728 -0.6399
 4809TIP3   OH238621   7.672   6.235  16.632  0.0288 -0.8822 -0.0879
 4809TIP3    H138622   7.725   6.272  16.702 -1.2897 -0.5504  0.7646
 4809TIP3    H238623   7.735   6.211  16.564  1.0468  1.9345 -0.2411
 4810TIP3   OH238624   0.750   4.545  17.232 -0.1286 -0.0371 -0.2413
 4810TIP3    H138625   0.768   4.466  17.180  1.9145 -0.2015  0.6178
 4810TIP3    H238626   0.743   4.513  17.322 -0.4452  0.6198 -0.0271
 4811TIP3   OH238627   5.186   1.772  17.614 -0.0815 -0.0963  0.2013
 4811TIP3    H138628   5.244   1.814  17.678  0.8912 -0.8662 -0.1522
 4811TIP3    H238629   5.101   1.768  17.658  0.8503 -1.7935  2.0379
 4812TIP3   OH238630   3.362   4.269  17.074 -0.1414  0.0428 -0.2816
 4812TIP3    H138631   3.405   4.304  16.996  0.8944  0.0092  0.2524
 4812TIP3    H238632   3.348   4.176  17.054 -2.0139  0.4987 -1.3177
 4813TIP3   OH238633   3.124   1.474  16.882 -0.1428 -0.4138 -0.0771
 4813TIP3    H138634   3.144   1.421  16.805  0.8823 -0.0738 -0.0583
 4813TIP3    H238635   3.096   1.411  16.948  0.4277 -0.8647 -0.2623
 4814TIP3   OH238636   5.871   0.280  17.722  0.8215 -0.2297 -0.2524
 4814TIP3    H138637   5.882   0.186  17.712 -0.3059 -0.6062  1.5152
 4814TIP3    H238638   5.829   0.309  17.641  0.1944 -1.4320 -0.3733
 4815TIP3   OH238639   5.270   4.431  16.471  0.4341 -0.5958  0.5772
 4815TIP3    H138640   5.193   4.463  16.425  0.5297 -1.0985  0.0651
 4815TIP3    H238641   5.240   4.417  16.561 -0.4093 -1.9540  0.1131
 4816TIP3   OH238642   6.122   0.565  16.632 -0.2744 -0.1389 -0.1677
 4816TIP3    H138643   6.121   0.483  16.582  0.2385  0.1815 -0.7272
 4816TIP3    H238644   6.211   0.599  16.620 -0.9050  1.2512 -1.2237
 4817TIP3   OH238645   7.551   5.827  16.963  0.4483 -0.0230  0.3851
 4817TIP3    H138646   7.551   5.918  16.994 -1.0371  0.2063 -0.2111
 4817TIP3    H238647   7.615   5.827  16.892 -0.9865  1.1138 -1.0024
 4818TIP3   OH238648   1.217   1.556  16.940  0.0694  0.0687 -0.6998
 4818TIP3    H138649   1.144   1.536  16.881 -0.9835  0.6083  0.3858
 4818TIP3    H238650   1.234   1.473  16.985  1.7392 -0.7106 -2.6011
 4819TIP3   OH238651   6.436   3.214  17.633 -0.1660 -0.1932  0.1094
 4819TIP3    H138652   6.453   3.183  17.722 -0.4523  0.8150  0.5226
 4819TIP3    H238653   6.342   3.232  17.631 -0.4600 -1.6220 -0.8666
 4820TIP3   OH238654   2.225   6.849  16.072  0.2786 -0.6019  0.6455
 4820TIP3    H138655   2.188   6.765  16.099 -0.4640  0.0776  1.7446
 4820TIP3    H238656   2.158   6.914  16.093 -0.2798  0.0376 -2.5845
 4821TIP3   OH238657   8.236   5.740  17.698 -0.4739 -0.1977  0.5315
 4821TIP3    H138658   8.184   5.807  17.654  0.5425 -0.3945 -1.0114
 4821TIP3    H238659   8.173   5.669  17.715 -0.8343 -0.2333 -0.8554
 4822TIP3   OH238660   5.161   3.380  16.546 -0.4641 -0.1679 -0.0634
 4822TIP3    H138661   5.185   3.290  16.526 -0.2050  0.1141 -1.0945
 4822TIP3    H238662   5.243   3.429  16.545 -0.7133  0.2544 -0.4990
 4823TIP3   OH238663   4.966   6.377  17.594 -0.4713 -0.2124 -0.1844
 4823TIP3    H138664   5.056   6.396  17.566 -0.2481 -0.3748  0.4067
 4823TIP3    H238665   4.975   6.347  17.685 -1.1666  0.1531  0.0090
 4824TIP3   OH238666   0.428   2.101  17.695  0.1688 -0.1767 -0.4722
 4824TIP3    H138667   0.381   2.080  17.615 -0.7203 -0.2047  0.0416
 4824TIP3    H238668   0.491   2.030  17.706  0.8466  0.2421 -1.5577
 4825TIP3   OH238669   9.019   3.556  17.533 -0.2360 -0.0431 -0.2518
 4825TIP3    H138670   9.095   3.612  17.514 -0.1515  0.5736  1.7259
 4825TIP3    H238671   9.014   3.496  17.458  3.4966 -1.5195  0.4693
 4826TIP3   OH238672   2.969   4.741  16.951  0.9634 -0.2449 -0.3936
 4826TIP3    H138673   2.962   4.789  16.868 -0.0908 -0.7407 -0.5996
 4826TIP3    H238674   3.034   4.791  17.001 -1.4884  2.6537  0.2013
 4827TIP3   OH238675   7.703   8.571  16.799  0.2200  0.1122 -0.1748
 4827TIP3    H138676   7.642   8.506  16.833  1.3083  0.1365  2.0018
 4827TIP3    H238677   7.752   8.601  16.876  1.0846  2.1056 -1.4063
 4828TIP3   OH238678   3.934   4.911  16.914 -0.1853 -0.7775  0.3087
 4828TIP3    H138679   3.961   4.821  16.932  1.7117 -0.2314  0.3845
 4828TIP3    H238680   4.015   4.962  16.919 -1.2785  1.0072  0.6862
 4829TIP3   OH238681   7.368   7.279  16.425  0.0792  0.0551 -0.3126
 4829TIP3    H138682   7.453   7.251  16.391 -1.0015 -1.2930 -2.1039
 4829TIP3    H238683   7.360   7.371  16.398  1.5289  0.6680  1.1706
 4830TIP3   OH238684   1.513   5.589  17.051 -0.0870 -0.0523 -0.2251
 4830TIP3    H138685   1.438   5.649  17.052 -1.3924 -1.6335  0.4526
 4830TIP3    H238686   1.513   5.552  16.963 -0.2169 -0.1890 -0.1675
 4831TIP3   OH238687   3.989   6.130  15.532  0.3849 -0.0668 -0.1610
 4831TIP3    H138688   3.986   6.054  15.590  0.4091 -0.7490 -1.0373
 4831TIP3    H238689   3.898   6.158  15.524 -0.5669 -3.3820 -4.1472
 4832TIP3   OH238690   5.198   0.062  18.197  0.2394 -0.2762 -0.1672
 4832TIP3    H138691   5.277   0.015  18.169  0.3513 -0.3319  0.2306
 4832TIP3    H238692   5.224   0.154  18.198  0.4079 -0.3234  0.2940
 4833TIP3   OH238693   8.696   3.154  17.106  0.1759 -0.1590  0.5852
 4833TIP3    H138694   8.703   3.069  17.150 -0.5618  0.2465  1.5022
 4833TIP3    H238695   8.609   3.185  17.127  1.1130  1.7367  1.9118
 4834TIP3   OH238696   3.752   1.068  16.766  0.2978  0.0268 -0.0763
 4834TIP3    H138697   3.728   1.119  16.689 -0.0763  1.9151  1.2147
 4834TIP3    H238698   3.668   1.044  16.805  0.4701  0.5195  0.6173
 4835TIP3   OH238699   5.003   1.897  16.800 -0.4662 -1.1150  0.1701
 4835TIP3    H138700   5.073   1.949  16.760 -0.4722 -0.2957  1.1956
 4835TIP3    H238701   4.983   1.831  16.734 -0.5469  0.2435 -1.2346
 4836TIP3   OH238702   6.313   0.200  17.461  0.7179 -0.0800 -0.3723
 4836TIP3    H138703   6.395   0.228  17.502 -0.1322 -0.2968  1.6016
 4836TIP3    H238704   6.252   0.190  17.534  0.1928 -4.5786 -1.1190
 4837TIP3   OH238705   6.670   6.466  17.325 -0.0659 -0.6453 -0.7356
 4837TIP3    H138706   6.710   6.513  17.399 -1.8971  0.3457 -0.3082
 4837TIP3    H238707   6.709   6.378  17.329  0.2068 -0.4914  1.1482
 4838TIP3   OH238708   5.441   6.072  17.452 -0.3108 -0.0366 -0.0980
 4838TIP3    H138709   5.420   6.159  17.488  0.1466  0.4371 -0.9388
 4838TIP3    H238710   5.407   6.075  17.363 -1.7152 -1.3019  0.3523
 4839TIP3   OH238711   6.990   3.272  15.966 -0.0468  0.1897  0.2331
 4839TIP3    H138712   7.064   3.332  15.973  2.1269 -1.8120 -2.9615
 4839TIP3    H238713   6.918   3.327  15.934  1.3283  1.4507 -0.8537
 4840TIP3   OH238714   6.434   8.712  17.920  0.0747  0.1917 -0.4586
 4840TIP3    H138715   6.485   8.729  17.999 -0.7396  0.5768 -0.0144
 4840TIP3    H238716   6.361   8.657  17.949  2.0583 -3.4832 -1.6488
 4841TIP3   OH238717   0.624   5.394  17.793  0.1647 -0.4378 -0.2122
 4841TIP3    H138718   0.681   5.322  17.768  0.1881 -0.9215  1.1235
 4841TIP3    H238719   0.545   5.351  17.826 -0.7413  0.2050 -1.4619
 4842TIP3   OH238720   1.726   3.809  16.940  0.3897  0.4211 -0.0528
 4842TIP3    H138721   1.681   3.879  16.988 -0.3298  2.0393 -2.8657
 4842TIP3    H238722   1.677   3.800  16.859  1.6008 -2.1086 -0.5927
 4843TIP3   OH238723   5.661   8.565  17.120 -0.6393  0.0131  0.2937
 4843TIP3    H138724   5.648   8.492  17.059 -0.2999 -0.3133  0.6046
 4843TIP3    H238725   5.754   8.560  17.143 -0.3472  1.2091 -0.5236
 4844TIP3   OH238726   8.180   1.086  17.444  0.1921 -0.1643  0.1718
 4844TIP3    H138727   8.101   1.039  17.419  0.3985 -0.1963 -0.4378
 4844TIP3    H238728   8.246   1.058  17.380  0.5516  0.2671  0.3485
 4845TIP3   OH238729   2.740   1.422  16.231 -0.5935 -0.3956  0.3277
 4845TIP3    H138730   2.833   1.401  16.217 -0.2587  1.0078  0.2443
 4845TIP3    H238731   2.693   1.344  16.201  0.5924 -1.5847  1.4221
 4846TIP3   OH238732   3.074   7.137  17.249  0.2123 -0.0897 -0.1498
 4846TIP3    H138733   3.048   7.203  17.313  0.7961  0.3128 -0.3289
 4846TIP3    H238734   3.097   7.060  17.302 -1.9605 -0.7053 -0.0085
 4847TIP3   OH238735   6.979   4.498  17.552  0.7307  0.1770 -0.5393
 4847TIP3    H138736   7.055   4.442  17.569  1.9159  1.8836  0.1218
 4847TIP3    H238737   6.981   4.563  17.622 -1.1199  0.5429 -0.7666
 4848TIP3   OH238738   6.546   3.595  17.750  0.4729  0.1241 -0.1196
 4848TIP3    H138739   6.509   3.634  17.671  2.1749 -1.2864 -1.6996
 4848TIP3    H238740   6.607   3.662  17.783  1.5114 -0.1496 -1.3897
 4849TIP3   OH238741   8.739   4.579  16.407 -0.8866  0.0904 -0.2937
 4849TIP3    H138742   8.695   4.664  16.407 -2.1990 -0.5418  0.5565
 4849TIP3    H238743   8.684   4.524  16.350  1.3598  0.4149 -3.0124
 4850TIP3   OH238744   6.276   2.521  16.401  0.4135  0.1996  1.0364
 4850TIP3    H138745   6.364   2.536  16.367 -0.2263 -1.5096 -1.8039
 4850TIP3    H238746   6.265   2.426  16.398 -1.9542  0.4209 -0.1581
 4851TIP3   OH238747   9.100   2.011  16.138 -0.9417 -0.7701 -0.3314
 4851TIP3    H138748   9.150   2.089  16.166  2.6284 -1.9310 -2.7779
 4851TIP3    H238749   9.069   2.033  16.051 -4.4723 -0.3536  0.8735
 4852TIP3   OH238750   0.997   1.497  16.743 -0.4840  1.2288  0.0058
 4852TIP3    H138751   0.941   1.532  16.674 -1.0792  0.1701 -0.0640
 4852TIP3    H238752   1.084   1.491  16.703 -0.5354  1.8715 -0.2181
 4853TIP3   OH238753   7.848   5.993  16.214  0.2387  0.6503 -0.2318
 4853TIP3    H138754   7.873   6.065  16.273  0.9878  1.1867 -1.1747
 4853TIP3    H238755   7.920   5.931  16.220 -0.8487 -0.5612  1.3372
 4854TIP3   OH238756   5.248   8.313  17.846  0.8778  0.2667  0.3561
 4854TIP3    H138757   5.261   8.300  17.940  1.2114 -1.2304  0.1361
 4854TIP3    H238758   5.209   8.231  17.816 -2.6160  1.9725 -0.2517
 4855TIP3   OH238759   7.944   8.193  16.309  0.2188  0.0024  0.0166
 4855TIP3    H138760   8.022   8.161  16.355 -0.1749 -1.1997 -0.1049
 4855TIP3    H238761   7.878   8.126  16.324 -0.7847  0.9760  0.0528
 4856TIP3   OH238762   7.355   2.935  16.716  0.7810  0.0995  0.0706
 4856TIP3    H138763   7.284   2.966  16.660  1.6512  1.0147 -0.5571
 4856TIP3    H238764   7.325   2.850  16.748 -0.8760  0.7587  0.3622
 4857TIP3   OH238765   4.895   6.003  15.994 -0.3927 -0.2541 -0.0941
 4857TIP3    H138766   4.987   6.029  15.996 -0.0975 -1.2777  0.4113
 4857TIP3    H238767   4.895   5.919  15.948 -1.0373 -0.3901  0.1408
 4858TIP3   OH238768   4.314   8.722  16.432  0.0777 -0.0301  0.2354
 4858TIP3    H138769   4.353   8.750  16.349 -0.1279 -1.4607 -0.3875
 4858TIP3    H238770   4.230   8.766  16.435 -0.1586 -0.3914 -0.6191
 4859TIP3   OH238771   1.790   1.459  17.871 -0.2065  0.3626  0.2104
 4859TIP3    H138772   1.765   1.549  17.893  1.3867  1.2357 -1.2842
 4859TIP3    H238773   1.716   1.424  17.822 -0.6277  1.0332  0.3566
 4860TIP3   OH238774   6.294   2.929  17.253  0.3967 -0.1854 -0.2395
 4860TIP3    H138775   6.376   2.899  17.292  0.8956  1.4306  0.0607
 4860TIP3    H238776   6.318   3.008  17.205 -0.6958 -0.6718 -1.6343
 4861TIP3   OH238777   1.744   5.655  17.162 -0.3123 -0.0984  0.6318
 4861TIP3    H138778   1.788   5.726  17.116  0.1575 -1.6373 -1.4401
 4861TIP3    H238779   1.676   5.626  17.103 -0.7390 -1.1384  1.5967
 4862TIP3   OH238780   2.883   8.433  16.539  0.0668 -0.3253 -0.2505
 4862TIP3    H138781   2.942   8.378  16.487 -0.7163 -1.5272  0.1002
 4862TIP3    H238782   2.900   8.406  16.629 -0.0547  0.2933 -0.0403
 4863TIP3   OH238783   8.007   3.559  17.575  0.0737 -0.0221 -0.8714
 4863TIP3    H138784   7.968   3.518  17.653  2.8955  0.3067  0.8410
 4863TIP3    H238785   7.932   3.595  17.528 -1.9591 -2.1172  0.5208
 4864TIP3   OH238786   2.981   7.558  18.006  0.5505 -0.4364  0.4477
 4864TIP3    H138787   2.911   7.510  18.052  1.6229 -2.1531  0.3728
 4864TIP3    H238788   3.053   7.495  18.000  1.8483  1.0462 -0.1421
 4865TIP3   OH238789   3.829   5.827  17.953 -0.2061 -0.3127  0.3380
 4865TIP3    H138790   3.846   5.789  18.038  1.6884  0.4653  0.3570
 4865TIP3    H238791   3.772   5.902  17.971  1.0637  0.4984  1.0837
 4866TIP3   OH238792   2.697   0.368  17.608 -0.2608  0.1105 -0.3168
 4866TIP3    H138793   2.643   0.438  17.572 -1.1001 -1.8448 -3.2413
 4866TIP3    H238794   2.661   0.353  17.695 -3.3898  0.1166 -1.4661
 4867TIP3   OH238795   8.651   7.131  16.717 -0.2279 -0.2767  0.4506
 4867TIP3    H138796   8.725   7.120  16.657  0.0035 -2.6135  1.0623
 4867TIP3    H238797   8.689   7.168  16.796 -0.0642  0.2768  0.1209
 4868TIP3   OH238798   1.042   3.254  17.584  0.5845 -0.0190  0.2848
 4868TIP3    H138799   0.979   3.206  17.638 -0.7905  1.2588 -0.1134
 4868TIP3    H238800   1.084   3.186  17.531 -0.7826 -0.8700  0.2434
 4869TIP3   OH238801   7.861   6.329  16.791  0.2944 -0.4533 -0.1009
 4869TIP3    H138802   7.873   6.366  16.878 -1.7207  2.6688 -0.9822
 4869TIP3    H238803   7.900   6.241  16.797  1.4690  0.1273  3.4741
 4870TIP3   OH238804   0.838   1.539  17.086  0.6251  0.0431 -0.1816
 4870TIP3    H138805   0.839   1.619  17.138 -1.3271 -0.0832  0.1577
 4870TIP3    H238806   0.838   1.468  17.151 -0.6715 -0.1395 -0.3544
 4871TIP3   OH238807   6.946   1.933  17.387  0.7816  0.2955  0.0610
 4871TIP3    H138808   6.965   1.952  17.295  2.2894  2.7494  0.7793
 4871TIP3    H238809   6.969   1.841  17.398 -1.8136 -0.8025 -2.5238
 4872TIP3   OH238810   1.696   7.504  16.571  0.1174 -0.5018 -0.0968
 4872TIP3    H138811   1.713   7.459  16.654 -0.4935  1.4709  1.1506
 4872TIP3    H238812   1.658   7.587  16.596 -0.2093  0.1011 -2.3946
 4873TIP3   OH238813   0.410   8.972  16.187 -0.0351 -0.1715 -0.2967
 4873TIP3    H138814   0.393   9.037  16.119 -2.3873 -1.3118 -0.9167
 4873TIP3    H238815   0.432   8.892  16.138 -1.3789 -0.9072  0.2484
 4874TIP3   OH238816   7.416   3.926  16.075 -0.5385  0.0009 -0.6881
 4874TIP3    H138817   7.467   3.925  16.156 -0.9839 -1.3537 -0.3970
 4874TIP3    H238818   7.351   3.995  16.088 -1.2800 -0.8923  0.5623
 4875TIP3   OH238819   4.481   5.303  17.372  0.1578  0.3852  0.2483
 4875TIP3    H138820   4.492   5.397  17.363 -1.5848  0.4999 -1.1203
 4875TIP3    H238821   4.529   5.281  17.453 -0.2940  2.5819  1.1794
 4876TIP3   OH238822   0.957   2.716  16.171 -0.3753 -0.2347 -0.1105
 4876TIP3    H138823   1.028   2.717  16.234  0.7613  1.3967 -1.3398
 4876TIP3    H238824   0.922   2.627  16.175  1.2160 -0.8398  1.0746
 4877TIP3   OH238825   0.204   7.781  16.734 -0.2081  0.3686 -0.1785
 4877TIP3    H138826   0.222   7.767  16.827 -0.3074  1.6834  0.0498
 4877TIP3    H238827   0.291   7.780  16.693 -0.1756 -0.3806 -0.1116
 4878TIP3   OH238828   4.227   0.451  16.615 -0.9009 -0.2151 -0.0886
 4878TIP3    H138829   4.288   0.404  16.558 -1.7627 -1.0287 -0.3710
 4878TIP3    H238830   4.146   0.400  16.610 -1.0715 -0.1920  1.7206
 4879TIP3   OH238831   1.487   2.065  16.567 -0.0038 -0.4258 -0.5903
 4879TIP3    H138832   1.430   2.058  16.643  0.0991  0.5772 -0.4144
 4879TIP3    H238833   1.485   2.157  16.543  2.3800 -0.1378  0.0825
 4880TIP3   OH238834   1.968   8.447  17.524 -0.4210 -0.1363 -0.3201
 4880TIP3    H138835   1.953   8.527  17.474  2.4771  1.4746  1.0753
 4880TIP3    H238836   2.023   8.393  17.467  1.7584  1.1242  0.4423
 4881TIP3   OH238837   0.165   8.981  16.993 -0.1144  0.5174 -0.3519
 4881TIP3    H138838   0.230   8.913  17.014 -0.0750  0.9971  1.1948
 4881TIP3    H238839   0.218   9.057  16.969 -0.1600 -0.0264 -2.2925
 4882TIP3   OH238840   3.929   3.091  16.040  0.2480  0.2602  0.1685
 4882TIP3    H138841   3.931   3.034  15.963 -0.2792  0.7060 -0.1840
 4882TIP3    H238842   3.997   3.156  16.023  0.3974  0.1318  0.2665
 4883TIP3   OH238843   7.257   4.537  17.381  0.3658 -0.1823 -0.6276
 4883TIP3    H138844   7.353   4.539  17.385  0.4218 -2.1787  2.3036
 4883TIP3    H238845   7.237   4.453  17.340 -0.1532  0.2647 -1.2971
 4884TIP3   OH238846   3.815   1.066  17.075  0.4202  0.1115 -0.1485
 4884TIP3    H138847   3.784   1.102  16.993 -1.4818  2.3224  1.4173
 4884TIP3    H238848   3.776   0.979  17.080 -0.6347  0.5247 -0.9504
 4885TIP3   OH238849   1.846   6.473  17.175 -0.0304  0.2176  0.8749
 4885TIP3    H138850   1.875   6.389  17.210  0.4868 -0.6229 -1.3509
 4885TIP3    H238851   1.750   6.469  17.181 -0.0487 -0.8342  0.2711
 4886TIP3   OH238852   3.848   0.169  16.995 -0.2486 -0.3971  0.0245
 4886TIP3    H138853   3.900   0.141  17.071  0.5598  3.2157  0.9773
 4886TIP3    H238854   3.912   0.172  16.924 -0.6764 -2.2697 -0.4943
 4887TIP3   OH238855   6.368   7.010  17.049 -0.5407 -0.0713  0.2665
 4887TIP3    H138856   6.305   6.985  17.116  0.7324 -0.3185  1.4043
 4887TIP3    H238857   6.318   7.006  16.967 -1.5369 -1.9569  0.9150
 4888TIP3   OH238858   6.356   4.422  17.422  0.4953 -0.0909  0.5816
 4888TIP3    H138859   6.375   4.350  17.362  0.2234  0.9622 -0.8238
 4888TIP3    H238860   6.264   4.444  17.404  0.8173  1.1600  0.3508
 4889TIP3   OH238861   4.637   3.019  17.226  0.2477 -0.3691  0.2278
 4889TIP3    H138862   4.648   2.979  17.312  1.3204 -0.7295 -0.0603
 4889TIP3    H238863   4.548   2.996  17.199 -0.5075  0.6724  1.6929
 4890TIP3   OH238864   3.026   5.381  17.072  0.2301  1.0755  0.0824
 4890TIP3    H138865   2.959   5.437  17.032 -2.0046 -0.7871  1.0177
 4890TIP3    H238866   2.998   5.372  17.163  1.5445 -0.1323  0.3994
 4891TIP3   OH238867   1.315   9.029  16.762  0.0921  0.1878 -0.4633
 4891TIP3    H138868   1.257   8.956  16.740  0.3393 -0.2027  0.1717
 4891TIP3    H238869   1.278   9.065  16.843 -0.0979  0.8416 -0.8334
 4892TIP3   OH238870   3.125   2.694  17.131  0.6395  0.1442  0.0203
 4892TIP3    H138871   3.171   2.764  17.083 -1.7558  1.3912 -0.6154
 4892TIP3    H238872   3.060   2.662  17.069 -2.0286  1.2331  2.0507
 4893TIP3   OH238873   7.981   8.151  17.193  0.8499  0.4548 -0.4960
 4893TIP3    H138874   7.887   8.136  17.198  1.1065 -1.1255  0.1145
 4893TIP3    H238875   7.996   8.227  17.249  0.4550 -2.0090  3.3294
 4894TIP3   OH238876   7.454   0.331  16.956 -0.6302 -0.3414 -0.8729
 4894TIP3    H138877   7.416   0.419  16.956  0.6969  0.3015 -2.9943
 4894TIP3    H238878   7.506   0.327  16.876  0.7564 -2.4577  0.0433
 4895TIP3   OH238879   6.612   1.483  16.458 -0.0791 -0.1930  0.1092
 4895TIP3    H138880   6.599   1.407  16.515 -0.4829 -0.0734  0.1759
 4895TIP3    H238881   6.658   1.448  16.382  1.9364 -0.0714  1.2085
 4896TIP3   OH238882   3.060   5.885  17.270  0.3600  0.5478 -0.4339
 4896TIP3    H138883   3.063   5.800  17.226  0.7382  1.2637 -1.8527
 4896TIP3    H238884   3.138   5.886  17.325  0.3822  0.0089 -0.4455
 4897TIP3   OH238885   2.039   5.179  16.214  0.1840 -0.2626  0.5493
 4897TIP3    H138886   2.070   5.142  16.297 -0.2849 -1.5019  0.1978
 4897TIP3    H238887   1.951   5.141  16.203  0.6852 -1.0554 -1.0696
 4898TIP3   OH238888   0.161   0.120  18.249 -0.2821 -0.1784  0.2243
 4898TIP3    H138889   0.114   0.145  18.170 -0.0941 -0.6106 -0.0298
 4898TIP3    H238890   0.093   0.106  18.315 -0.4662 -0.1714  0.0365
 4899TIP3   OH238891   7.017   1.050  17.074  0.4346  0.1147  0.3694
 4899TIP3    H138892   6.976   1.124  17.119 -1.8714 -1.2807  0.6858
 4899TIP3    H238893   7.015   1.076  16.981 -0.4076  0.4404  0.4660
 4900TIP3   OH238894   1.855   3.157  16.287  0.1825 -0.1146  0.2947
 4900TIP3    H138895   1.920   3.144  16.217 -0.2247  0.6474 -0.2358
 4900TIP3    H238896   1.809   3.074  16.293  1.0619 -0.5966  0.5287
 4901TIP3   OH238897   5.779   4.579  16.813 -0.6082 -0.0369 -0.3032
 4901TIP3    H138898   5.856   4.522  16.812  1.2943  2.3441  0.4896
 4901TIP3    H238899   5.732   4.555  16.893 -0.5657 -1.2836 -0.6223
 4902TIP3   OH238900   7.116   8.268  15.936  0.0976 -0.6491  0.2718
 4902TIP3    H138901   7.039   8.322  15.921  0.5665 -0.2611 -0.8785
 4902TIP3    H238902   7.114   8.203  15.867  1.4581  0.1593 -0.5971
 4903TIP3   OH238903   4.134   0.929  17.851  0.1139  0.4390 -0.0279
 4903TIP3    H138904   4.134   0.858  17.786 -0.0004 -1.1161  1.5677
 4903TIP3    H238905   4.079   0.895  17.922  1.0797  1.6105  1.3227
 4904TIP3   OH238906   5.705   7.081  17.907  0.5674  0.1411  0.5516
 4904TIP3    H138907   5.746   7.162  17.875  0.5188  0.3443  1.0000
 4904TIP3    H238908   5.667   7.105  17.991 -0.2785 -0.1079  0.2452
 4905TIP3   OH238909   6.464   0.079  17.075  0.1488  0.0330 -0.1920
 4905TIP3    H138910   6.385   0.109  17.120 -1.0077 -1.7378 -0.9285
 4905TIP3    H238911   6.512   0.029  17.142  0.2796  0.4933  0.0587
 4906TIP3   OH238912   5.186   5.052  16.868 -0.2612  0.0200 -0.1036
 4906TIP3    H138913   5.103   5.085  16.834 -1.1681 -1.7003  0.2973
 4906TIP3    H238914   5.161   4.977  16.921  1.4590  0.3259  1.1994
 4907TIP3   OH238915   6.705   5.979  17.486 -0.0856  0.3514  0.3457
 4907TIP3    H138916   6.734   5.926  17.561  0.3659 -0.4642 -0.3983
 4907TIP3    H238917   6.631   6.029  17.520 -2.3296 -2.7456  0.3614
 4908TIP3   OH238918   3.243   6.317  17.603 -0.1964  0.2167 -0.2850
 4908TIP3    H138919   3.274   6.253  17.667  0.4500  1.8261  1.0717
 4908TIP3    H238920   3.157   6.344  17.636 -0.8919 -0.5979 -1.3613
 4909TIP3   OH238921   3.740   6.413  17.381 -0.0370 -0.2364  0.3720
 4909TIP3    H138922   3.696   6.419  17.296  1.8522 -0.4115 -0.6792
 4909TIP3    H238923   3.681   6.457  17.441 -0.6532  1.4729 -1.3661
 4910TIP3   OH238924   5.592   7.551  16.254  0.0833  0.5960 -0.0104
 4910TIP3    H138925   5.535   7.562  16.330 -0.5820 -1.2586 -0.1932
 4910TIP3    H238926   5.662   7.615  16.267 -0.1666  0.5183  2.0225
 4911TIP3   OH238927   1.502   2.575  15.986 -0.1748 -0.0491  0.3444
 4911TIP3    H138928   1.519   2.667  16.004  0.0687  0.1881 -1.0413
 4911TIP3    H238929   1.408   2.565  16.002 -0.5879  0.8938 -1.2551
 4912TIP3   OH238930   4.120   0.863  16.616  0.4461  0.0953  0.4917
 4912TIP3    H138931   4.070   0.849  16.535  1.1199 -1.0644  0.2643
 4912TIP3    H238932   4.054   0.860  16.685 -0.1419  1.1289 -0.0018
 4913TIP3   OH238933   3.363   8.105  16.322 -0.1322 -0.0078  0.1614
 4913TIP3    H138934   3.348   8.105  16.416  0.9983 -0.9589  0.3668
 4913TIP3    H238935   3.278   8.078  16.285 -0.3506 -0.4604  0.9555
 4914TIP3   OH238936   2.568   5.328  17.005  0.2339  0.6125  0.1180
 4914TIP3    H138937   2.555   5.247  16.955 -1.9146  1.2762 -0.4750
 4914TIP3    H238938   2.633   5.304  17.071  0.6971 -1.1976 -0.9038
 4915TIP3   OH238939   0.380   3.445  16.889 -0.6130 -0.3811  0.4587
 4915TIP3    H138940   0.343   3.467  16.975 -0.4142  1.8269  0.0347
 4915TIP3    H238941   0.311   3.467  16.827  0.3063  0.9244 -0.1361
 4916TIP3   OH238942   7.714   8.948  16.808  0.4946 -0.1517  0.2126
 4916TIP3    H138943   7.647   8.884  16.830 -0.8228  1.2972  0.5484
 4916TIP3    H238944   7.690   8.981  16.722 -0.4688  1.8566  1.1826
 4917TIP3   OH238945   6.041   5.265  17.127 -0.1402 -0.0558  0.5095
 4917TIP3    H138946   5.980   5.218  17.183 -1.2576 -1.0543 -1.4330
 4917TIP3    H238947   6.124   5.263  17.175 -1.3933  0.6430  2.8512
 4918TIP3   OH238948   5.854   7.805  16.425 -0.3096 -0.2605 -0.0783
 4918TIP3    H138949   5.853   7.812  16.330 -0.4701 -0.9156 -0.1265
 4918TIP3    H238950   5.885   7.891  16.455 -0.3042 -0.0373 -0.7154
 4919TIP3   OH238951   4.317   7.365  15.982 -0.0859  0.1304  0.2861
 4919TIP3    H138952   4.386   7.301  15.995 -0.2366 -0.2270 -0.5632
 4919TIP3    H238953   4.359   7.450  15.992  0.5289 -0.0814 -0.4559
 4920TIP3   OH238954   1.755   7.415  17.059 -0.0843 -0.0932 -0.1380
 4920TIP3    H138955   1.843   7.441  17.085 -0.6951  1.2074  0.7431
 4920TIP3    H238956   1.763   7.393  16.966  1.3555 -0.9780  0.1810
 4921TIP3   OH238957   8.676   1.602  17.286 -0.1707  0.3239 -0.2068
 4921TIP3    H138958   8.604   1.648  17.242  0.4556  2.0648  0.4943
 4921TIP3    H238959   8.633   1.554  17.357 -0.6557  1.3727  0.2228
 4922TIP3   OH238960   5.875   2.324  17.939 -0.0916 -0.0645  0.3557
 4922TIP3    H138961   5.923   2.299  17.859 -0.9333 -1.2035  0.1760
 4922TIP3    H238962   5.859   2.240  17.984 -1.1354  0.3891  0.8556
 4923TIP3   OH238963   6.063   0.815  16.016 -0.1962 -0.0703  0.0939
 4923TIP3    H138964   6.124   0.755  16.059 -0.4179 -0.8711 -0.6894
 4923TIP3    H238965   5.979   0.770  16.018 -0.7740  0.9774  1.0660
 4924TIP3   OH238966   0.588   3.700  17.596 -0.1797  0.2721  0.3940
 4924TIP3    H138967   0.612   3.615  17.633  1.4738  0.6520  0.2791
 4924TIP3    H238968   0.527   3.678  17.525 -0.5416 -0.7293  0.9808
 4925TIP3   OH238969   0.474   2.848  16.253 -0.1841 -0.0399 -0.1365
 4925TIP3    H138970   0.425   2.826  16.173  0.9198 -0.0470 -0.8373
 4925TIP3    H238971   0.437   2.791  16.320 -0.3608 -0.8794 -0.9211
 4926TIP3   OH238972   4.947   6.189  16.332  0.2389  0.1498 -0.2884
 4926TIP3    H138973   4.930   6.100  16.301 -0.9935  0.2815 -0.0442
 4926TIP3    H238974   4.866   6.214  16.378  1.6989  0.2290  2.4159
 4927TIP3   OH238975   1.811   1.987  16.599  1.0185  0.3667  0.0851
 4927TIP3    H138976   1.823   1.932  16.676  1.1763 -0.8197 -0.7578
 4927TIP3    H238977   1.800   2.075  16.634 -1.1649 -0.4207  1.5932
 4928TIP3   OH238978   6.274   0.871  17.882 -0.6404  0.8893  0.3406
 4928TIP3    H138979   6.262   0.801  17.817 -1.9454 -0.2493  1.7350
 4928TIP3    H238980   6.366   0.864  17.908 -0.7413 -0.2873  0.4231
 4929TIP3   OH238981   1.437   7.426  16.143 -0.3733  0.4384 -0.4198
 4929TIP3    H138982   1.416   7.335  16.123 -1.4736  0.5791  0.0225
 4929TIP3    H238983   1.352   7.469  16.152  0.1366  1.6517 -1.2142
 4930TIP3   OH238984   6.918   3.022  17.290  0.1370  0.1118  0.1478
 4930TIP3    H138985   6.978   2.951  17.314  0.2767 -0.1671 -0.9508
 4930TIP3    H238986   6.942   3.094  17.347  0.1613 -0.6470  1.1156
 4931TIP3   OH238987   7.704   0.655  17.593 -0.2898 -0.4325  0.1457
 4931TIP3    H138988   7.775   0.665  17.656  0.7239 -1.0812 -0.8711
 4931TIP3    H238989   7.727   0.577  17.543 -1.6601 -0.5843 -0.2817
 4932TIP3   OH238990   2.865   1.035  16.004 -0.5016 -0.4316  0.4506
 4932TIP3    H138991   2.904   1.024  16.091 -0.4967 -1.0067  0.3779
 4932TIP3    H238992   2.921   0.984  15.946  1.2410  2.2269 -0.4222
 4933TIP3   OH238993   2.591   2.464  17.011  0.3965  0.2096 -0.3079
 4933TIP3    H138994   2.563   2.547  17.050 -0.4004  1.2083 -2.7985
 4933TIP3    H238995   2.634   2.417  17.082 -1.8783  1.3966  2.0312
 4934TIP3   OH238996   0.980   4.671  16.789 -0.1299 -0.7103 -0.0423
 4934TIP3    H138997   1.064   4.716  16.782  0.4447 -1.7053  0.3131
 4934TIP3    H238998   0.920   4.723  16.734  0.2595  1.0419  1.1322
 4935TIP3   OH238999   7.503   5.999  17.539 -0.0039 -0.4167  0.0197
 4935TIP3    H139000   7.523   6.019  17.631 -0.9123 -0.8216  0.3173
 4935TIP3    H239001   7.527   5.907  17.529  0.6036 -0.2311 -0.3105
 4936TIP3   OH239002   8.790   5.351  16.803  0.0015 -0.0569 -0.3501
 4936TIP3    H139003   8.786   5.322  16.712 -0.9531  0.1160 -0.3727
 4936TIP3    H239004   8.828   5.439  16.798  0.8043 -0.4090 -0.4928
 4937TIP3   OH239005   4.938   3.519  17.188  0.3139  0.4620 -0.4835
 4937TIP3    H139006   5.009   3.469  17.147  0.4969  0.8139 -0.6024
 4937TIP3    H239007   4.863   3.459  17.187  0.6162  0.0800 -0.3335
 4938TIP3   OH239008   5.428   0.819  18.090  0.3535 -0.0610  0.3073
 4938TIP3    H139009   5.335   0.812  18.070  0.7259  1.1107 -2.1536
 4938TIP3    H239010   5.441   0.909  18.118  0.7113 -0.3155  0.9938
 4939TIP3   OH239011   0.576   3.962  17.679 -0.5751 -0.5152  0.1378
 4939TIP3    H139012   0.580   3.878  17.634 -0.1410 -0.1439 -0.5411
 4939TIP3    H239013   0.497   3.956  17.733 -0.1693 -1.6049  0.6344
 4940TIP3   OH239014   4.229   8.087  17.716  0.2943 -0.0967 -0.6440
 4940TIP3    H139015   4.156   8.038  17.678 -0.4373  1.1861 -0.9580
 4940TIP3    H239016   4.195   8.120  17.799  0.8826 -0.3788 -0.2887
 4941TIP3   OH239017   2.202   7.609  17.812 -0.2196 -0.0952  0.1204
 4941TIP3    H139018   2.212   7.573  17.724 -0.9577 -0.0087 -0.0085
 4941TIP3    H239019   2.177   7.533  17.865  0.9874 -0.2976  0.4230
 4942TIP3   OH239020   8.708   2.013  15.971 -0.0672  0.4407 -0.5290
 4942TIP3    H139021   8.656   2.083  16.011 -0.0227 -0.1730  0.6434
 4942TIP3    H239022   8.788   2.056  15.941 -1.7898  1.7317 -3.7914
 4943TIP3   OH239023   8.676   6.351  17.196  0.8391 -0.6668 -0.1692
 4943TIP3    H139024   8.598   6.404  17.207  0.6836 -1.2653  2.0152
 4943TIP3    H239025   8.658   6.297  17.119 -0.5488 -0.2160 -0.1871
 4944TIP3   OH239026   7.521   0.273  17.241 -0.0505  0.0652  0.1419
 4944TIP3    H139027   7.500   0.350  17.295 -3.4493 -0.7063  0.1554
 4944TIP3    H239028   7.531   0.309  17.153  0.3220  0.7442  0.4486
 4945TIP3   OH239029   8.775   8.080  15.555 -0.9538  0.1846  0.1029
 4945TIP3    H139030   8.869   8.071  15.572 -0.6542  2.2970 -0.1334
 4945TIP3    H239031   8.762   8.043  15.468 -0.5015 -0.8209  0.4501
 4946TIP3   OH239032   3.351   2.995  16.844 -0.2113 -0.3770 -0.7462
 4946TIP3    H139033   3.305   3.068  16.886 -0.1402  0.7423 -2.5239
 4946TIP3    H239034   3.434   2.989  16.892 -0.1776  0.7836 -0.6134
 4947TIP3   OH239035   8.520   6.700  17.291 -0.0623 -0.5032 -0.2125
 4947TIP3    H139036   8.527   6.684  17.385  0.6432  0.3101 -0.1168
 4947TIP3    H239037   8.606   6.675  17.257 -0.5223 -1.4108 -0.7483
 4948TIP3   OH239038   7.219   0.409  17.633  0.4924  0.5690  0.8199
 4948TIP3    H139039   7.256   0.321  17.640  1.5905  0.6380 -2.5876
 4948TIP3    H239040   7.288   0.467  17.665  0.9456  0.3447  0.2574
 4949TIP3   OH239041   8.923   5.647  17.065  0.0141 -0.1372 -0.3418
 4949TIP3    H139042   8.949   5.674  16.977  1.3338  0.3760  0.1670
 4949TIP3    H239043   9.006   5.639  17.112 -0.6536 -0.6583  0.7875
 4950TIP3   OH239044   5.387   6.482  16.427  0.1612  0.2823 -0.1820
 4950TIP3    H139045   5.296   6.456  16.414  0.6232 -0.8191 -1.4413
 4950TIP3    H239046   5.401   6.473  16.522 -0.2476 -2.3697 -0.3098
 4951TIP3   OH239047   1.787   6.841  16.246 -0.2634  0.1659 -0.0618
 4951TIP3    H139048   1.725   6.778  16.210  0.7697 -0.6763 -0.4353
 4951TIP3    H239049   1.734   6.917  16.270 -1.6258 -1.0079  0.8232
 4952TIP3   OH239050   5.567   6.241  16.789  0.7481 -0.5405 -0.2346
 4952TIP3    H139051   5.629   6.301  16.828  2.6000 -2.1024 -0.6375
 4952TIP3    H239052   5.582   6.249  16.695  0.9390 -1.5201 -0.2970
 4953TIP3   OH239053   2.964   8.656  17.247  0.1880  0.2383 -0.2746
 4953TIP3    H139054   2.976   8.751  17.253 -0.4010  0.3152 -0.3131
 4953TIP3    H239055   2.993   8.633  17.159  0.1212  0.4101 -0.3408
 4954TIP3   OH239056   1.423   8.385  16.981 -0.5119 -0.3864 -0.3472
 4954TIP3    H139057   1.455   8.323  17.047  0.9986 -0.2332 -0.8992
 4954TIP3    H239058   1.487   8.455  16.981 -2.5277  1.6106  0.7502
 4955TIP3   OH239059   3.194   3.263  17.297 -0.0864  0.2913  0.4162
 4955TIP3    H139060   3.287   3.272  17.274 -0.0281  0.5512  0.7557
 4955TIP3    H239061   3.166   3.351  17.320 -0.4551  0.2370  0.1886
 4956TIP3   OH239062   3.307   7.807  17.754 -0.2244 -0.0362  0.0856
 4956TIP3    H139063   3.354   7.744  17.810  0.4666  2.4850  2.5621
 4956TIP3    H239064   3.215   7.797  17.779 -0.1041  0.0103  0.5619
 4957TIP3   OH239065   6.355   4.610  16.593 -1.1481  0.2894  0.1950
 4957TIP3    H139066   6.391   4.697  16.577  0.8507 -0.2847  1.1542
 4957TIP3    H239067   6.357   4.566  16.508 -0.0287  0.4667  0.1151
 4958TIP3   OH239068   4.280   6.329  16.018  0.2075 -0.0183  0.4628
 4958TIP3    H139069   4.318   6.410  16.053 -0.4254  0.6563 -0.3662
 4958TIP3    H239070   4.192   6.326  16.055 -0.4775  0.7089 -1.0186
 4959TIP3   OH239071   3.975   2.757  17.790  0.6353 -0.3152  0.3832
 4959TIP3    H139072   3.961   2.836  17.738  2.3772  0.4564  1.0005
 4959TIP3    H239073   3.961   2.785  17.881  0.7005 -0.8570  0.5654
 4960TIP3   OH239074   0.362   8.067  17.301 -0.6045 -0.0927 -0.1578
 4960TIP3    H139075   0.432   8.107  17.249 -0.8073 -0.9709 -1.1245
 4960TIP3    H239076   0.359   7.976  17.271 -1.4567 -0.3339  0.6325
 4961TIP3   OH239077   1.820   5.831  16.846  0.2039 -0.1788  0.8022
 4961TIP3    H139078   1.832   5.872  16.931 -0.5106  1.2387  0.2448
 4961TIP3    H239079   1.815   5.737  16.865 -2.7999  0.2299  2.6655
 4962TIP3   OH239080   4.670   3.908  16.758 -0.0309  0.1640 -0.2415
 4962TIP3    H139081   4.593   3.938  16.807 -1.4072 -0.6011 -1.8302
 4962TIP3    H239082   4.712   3.844  16.816 -2.7107 -2.1914 -0.6739
 4963TIP3   OH239083   8.685   5.550  17.122 -0.4310 -0.0461 -0.4463
 4963TIP3    H139084   8.767   5.592  17.094 -1.4664  1.0116 -2.0840
 4963TIP3    H239085   8.695   5.539  17.216  0.7415  2.1205 -0.2382
 4964TIP3   OH239086   8.912   2.245  17.268 -0.3528  0.3391  0.1635
 4964TIP3    H139087   8.850   2.217  17.336  0.1073 -0.7696  0.1525
 4964TIP3    H239088   8.989   2.191  17.283 -0.3476 -0.1489 -1.4320
 4965TIP3   OH239089   2.373   3.008  16.939  0.0759  0.0144  0.5144
 4965TIP3    H139090   2.339   3.032  16.853  2.0189 -0.4147 -0.4399
 4965TIP3    H239091   2.457   3.055  16.946 -0.4874  0.8526  2.6370
 4966TIP3   OH239092   4.874   4.211  16.473 -0.2220  0.7190  0.1262
 4966TIP3    H139093   4.798   4.152  16.469 -1.1374  1.6914  2.0368
 4966TIP3    H239094   4.881   4.246  16.385 -0.7458 -0.8860 -0.6029
 4967TIP3   OH239095   0.868   9.150  16.618 -0.0924  0.0502 -0.2469
 4967TIP3    H139096   0.796   9.211  16.600  1.0644  1.5611 -0.0330
 4967TIP3    H239097   0.944   9.207  16.631  1.2878 -1.5283 -1.1076
 4968TIP3   OH239098   0.662   0.124  17.851  0.2916 -0.1868  0.2669
 4968TIP3    H139099   0.577   0.161  17.878 -1.3309 -3.5110  0.1865
 4968TIP3    H239100   0.646   0.090  17.763  1.8181 -0.5904  0.1278
 4969TIP3   OH239101   7.535   6.068  17.109  0.0701  0.1893 -0.0492
 4969TIP3    H139102   7.439   6.063  17.114 -0.0217  1.5434 -0.1547
 4969TIP3    H239103   7.561   6.112  17.190  0.5733  0.1979 -0.2133
 4970TIP3   OH239104   4.335   6.329  16.586  0.0888 -0.2233 -0.2070
 4970TIP3    H139105   4.343   6.414  16.542  1.2725  1.0737  2.3194
 4970TIP3    H239106   4.258   6.337  16.642  0.5833 -0.5661  0.5432
 4971TIP3   OH239107   8.831   5.043  17.749 -0.1205 -0.0474  0.7231
 4971TIP3    H139108   8.892   5.116  17.735 -0.2632  0.4402  2.4642
 4971TIP3    H239109   8.756   5.063  17.693  0.9084 -0.1963 -0.7596
 4972TIP3   OH239110   8.587   2.123  16.714  0.9908 -0.0978 -0.1583
 4972TIP3    H139111   8.649   2.138  16.785  0.8308 -0.1973  0.0031
 4972TIP3    H239112   8.582   2.208  16.668 -0.9309  0.7993  1.5513
 4973TIP3   OH239113   6.150   8.309  16.966  0.0200  0.4597  0.1262
 4973TIP3    H139114   6.242   8.329  16.981 -0.1103 -0.4936  2.8206
 4973TIP3    H239115   6.125   8.254  17.040 -2.4083 -0.3933 -1.2038
 4974TIP3   OH239116   2.664   7.066  16.670  0.3426  0.0067 -0.0407
 4974TIP3    H139117   2.749   7.085  16.631 -0.2761  3.1598 -0.1401
 4974TIP3    H239118   2.684   7.045  16.762  1.2210  1.6439  0.1776
 4975TIP3   OH239119   3.556   7.432  16.526  0.1526 -0.3683  0.2899
 4975TIP3    H139120   3.467   7.399  16.513 -0.2536  0.4810  0.7976
 4975TIP3    H239121   3.547   7.528  16.523  0.9006 -0.2519  1.1588
 4976TIP3   OH239122   2.330   1.290  17.077  0.2081  0.0346  0.0011
 4976TIP3    H139123   2.315   1.306  16.984 -1.4574 -1.0359  0.0381
 4976TIP3    H239124   2.418   1.252  17.082 -0.8616 -2.8842 -1.5525
 4977TIP3   OH239125   5.926   4.779  17.148 -0.0531 -0.5112 -0.5155
 4977TIP3    H139126   5.942   4.706  17.089  0.3842  0.1443 -1.2338
 4977TIP3    H239127   5.861   4.833  17.103  0.3032  0.0111 -0.4211
 4978TIP3   OH239128   7.231   4.914  17.254  0.0279  0.0639 -0.7191
 4978TIP3    H139129   7.299   4.860  17.296 -0.9579 -0.5534  0.1414
 4978TIP3    H239130   7.202   4.862  17.179  1.1967  0.7888 -1.7078
 4979TIP3   OH239131   4.159   5.080  16.936 -0.2360  0.4823 -0.4121
 4979TIP3    H139132   4.245   5.038  16.938 -0.5547 -0.1789 -0.3041
 4979TIP3    H239133   4.148   5.115  17.025 -0.5436 -0.4136 -0.0827
 4980TIP3   OH239134   2.688   3.592  17.636  0.2320 -0.0179 -0.2436
 4980TIP3    H139135   2.647   3.537  17.568  1.4988  1.0045 -1.9069
 4980TIP3    H239136   2.729   3.529  17.696  0.8194 -0.9447 -1.5597
 4981TIP3   OH239137   5.034   7.745  17.148 -0.3905 -0.3391  0.2061
 4981TIP3    H139138   5.029   7.780  17.059 -0.6423  0.8534  0.6759
 4981TIP3    H239139   5.128   7.741  17.167 -0.3544 -0.1648  0.0607
 4982TIP3   OH239140   2.167   0.907  17.193 -0.5592  0.4942 -0.0652
 4982TIP3    H139141   2.149   0.813  17.193 -0.4641  0.4422 -2.0334
 4982TIP3    H239142   2.263   0.913  17.193 -0.5636  0.6047  0.2140
 4983TIP3   OH239143   3.705   3.290  15.878  0.0335 -0.1447  0.4946
 4983TIP3    H139144   3.632   3.293  15.940  1.2161  1.4755  1.8988
 4983TIP3    H239145   3.723   3.197  15.868 -0.5974 -0.4892  2.1284
 4984TIP3   OH239146   4.841   5.077  17.539 -0.1545 -0.5387  0.0907
 4984TIP3    H139147   4.804   5.057  17.453  0.5432  0.0621 -0.3576
 4984TIP3    H239148   4.902   5.006  17.556  0.3133 -0.2385 -0.2892
 4985TIP3   OH239149   8.438   5.187  17.786 -0.4265 -0.2269 -0.1238
 4985TIP3    H139150   8.470   5.123  17.850  1.9182  0.9821  0.0300
 4985TIP3    H239151   8.499   5.179  17.712  1.0974  2.9570  0.6280
 4986TIP3   OH239152   0.612   6.061  18.065 -0.2254 -0.0608  0.0237
 4986TIP3    H139153   0.551   5.996  18.032  0.4086 -1.6681  1.8726
 4986TIP3    H239154   0.608   6.053  18.160  0.2515  2.2873  0.3219
 4987TIP3   OH239155   6.244   5.116  16.735  0.2156 -0.0089  0.2517
 4987TIP3    H139156   6.263   5.095  16.826 -2.7210  0.9123  1.1803
 4987TIP3    H239157   6.274   5.206  16.724 -1.6613  0.7787  1.1405
 4988TIP3   OH239158   6.893   4.653  16.038  0.3283 -0.0511 -0.7219
 4988TIP3    H139159   6.897   4.701  15.956 -0.0966 -0.0419 -0.7429
 4988TIP3    H239160   6.800   4.630  16.047  0.1748  0.8920  0.2897
 4989TIP3   OH239161   5.393   5.152  17.426 -0.2193 -0.3913 -0.5575
 4989TIP3    H139162   5.483   5.181  17.408 -0.1287 -0.4379 -0.1803
 4989TIP3    H239163   5.339   5.230  17.414 -0.0646 -0.2379 -0.2694
 4990TIP3   OH239164   4.054   3.333  16.415  0.4089 -0.6463 -0.5436
 4990TIP3    H139165   4.017   3.308  16.500  1.5095 -0.6449 -0.0439
 4990TIP3    H239166   3.984   3.313  16.352 -0.0437 -1.6440  0.2358
 4991TIP3   OH239167   1.229   0.355  17.526 -0.0135 -0.1901 -0.5784
 4991TIP3    H139168   1.308   0.347  17.473 -1.2524  1.2157 -2.7977
 4991TIP3    H239169   1.259   0.389  17.610  1.6530  1.1245 -1.6530
 4992TIP3   OH239170   1.976   1.822  16.796  0.0646 -0.2849 -0.2422
 4992TIP3    H139171   1.999   1.772  16.875  2.8870 -0.3208 -0.9711
 4992TIP3    H239172   2.019   1.907  16.808 -0.1759  0.0128 -1.3630
 4993TIP3   OH239173   4.225   7.078  16.725  0.0522 -0.4401 -0.0881
 4993TIP3    H139174   4.208   7.020  16.798  1.8278  0.0734  0.8150
 4993TIP3    H239175   4.191   7.033  16.648 -1.2302 -1.3024  0.9627
 4994TIP3   OH239176   3.742   6.854  17.028  0.1598 -0.1267  0.0156
 4994TIP3    H139177   3.651   6.838  17.004 -0.3959  1.5221  0.8954
 4994TIP3    H239178   3.764   6.781  17.086 -0.7977 -0.2345  0.2662
 4995TIP3   OH239179   8.042   2.724  17.191  0.1849 -0.0633 -0.4315
 4995TIP3    H139180   7.968   2.688  17.240 -0.3576 -0.1575 -1.3121
 4995TIP3    H239181   8.040   2.679  17.107 -0.1030  1.5103 -1.3111
 4996TIP3   OH239182   2.352   5.029  17.549  0.0147 -0.3121 -0.1084
 4996TIP3    H139183   2.380   5.060  17.463 -2.5683 -1.8411 -1.6131
 4996TIP3    H239184   2.401   4.948  17.563 -1.1124 -1.2048 -1.1752
 4997TIP3   OH239185   4.611   4.393  16.681  0.0169  0.0839  0.2960
 4997TIP3    H139186   4.666   4.317  16.664 -1.6304 -1.9633  3.2345
 4997TIP3    H239187   4.528   4.373  16.637 -0.4594  0.1122  1.1691
 4998TIP3   OH239188   4.741   7.792  17.647 -0.0892 -0.4844 -0.1673
 4998TIP3    H139189   4.824   7.840  17.647  0.1748 -0.9291  0.4738
 4998TIP3    H239190   4.684   7.842  17.706  1.2302 -2.6484  3.2333
 4999TIP3   OH239191   3.666   7.319  17.003  0.5621  0.2325 -0.7736
 4999TIP3    H139192   3.677   7.318  16.908  0.5366  1.0182 -0.7875
 4999TIP3    H239193   3.748   7.355  17.037 -0.9894  4.1952 -0.7560
 5000TIP3   OH239194   6.636   0.491  16.296 -0.2949 -0.0757  0.2148
 5000TIP3    H139195   6.718   0.444  16.303  0.1294  0.5176 -0.6062
 5000TIP3    H239196   6.568   0.424  16.309  0.3025 -0.6880  0.2090
 5001TIP3   OH239197   8.147   1.650  17.238  0.0767 -0.2954 -0.2301
 5001TIP3    H139198   8.161   1.582  17.304  0.4800 -0.3974 -0.4127
 5001TIP3    H239199   8.060   1.631  17.202 -0.5017  0.2522  0.8362
 5002TIP3   OH239200   3.183   9.208  15.959 -0.0552  0.4146 -0.6045
 5002TIP3    H139201   3.269   9.174  15.934 -0.7877 -1.2808 -0.9464
 5002TIP3    H239202   3.150   9.144  16.022 -1.2508  0.8024 -0.8264
 5003TIP3   OH239203   8.136   7.929  17.082  0.4390 -0.1924  0.4323
 5003TIP3    H139204   8.130   8.020  17.111 -0.5464  0.1951 -0.8668
 5003TIP3    H239205   8.147   7.934  16.987 -1.3563 -1.4003  0.0936
 5004TIP3   OH239206   8.904   8.465  17.098 -0.1133  0.3427 -0.0800
 5004TIP3    H139207   8.813   8.485  17.077  0.1630  1.9176  0.1121
 5004TIP3    H239208   8.909   8.475  17.193  0.8045  2.8408 -0.3284
 5005TIP3   OH239209   8.880   5.613  17.552  0.5943  0.1338 -0.2139
 5005TIP3    H139210   8.973   5.633  17.540  0.3760  2.7325  1.4615
 5005TIP3    H239211   8.835   5.692  17.522 -0.8551  0.0083  1.4512
 5006TIP3   OH239212   2.997   0.986  17.081  0.3165  0.0462 -0.2973
 5006TIP3    H139213   3.022   1.075  17.056 -2.2367  1.0097  0.3158
 5006TIP3    H239214   2.909   0.974  17.047  0.9298 -2.6755 -1.2292
 5007TIP3   OH239215   8.276   8.243  17.496 -0.3414 -0.3794  0.1894
 5007TIP3    H139216   8.270   8.296  17.575 -1.4916 -0.1412 -0.0354
 5007TIP3    H239217   8.185   8.223  17.474 -0.1070  0.2715 -1.5452
 5008TIP3   OH239218   1.608   0.666  17.548  0.0600  0.2689  0.5718
 5008TIP3    H139219   1.629   0.757  17.525  0.7104  0.0796  0.3820
 5008TIP3    H239220   1.526   0.671  17.596  0.3878  1.0259  1.0739
 5009TIP3   OH239221   7.511   5.331  17.025 -0.0659  0.6283  0.1294
 5009TIP3    H139222   7.589   5.384  17.042  0.6435 -0.4878  0.4807
 5009TIP3    H239223   7.533   5.282  16.946  0.9182 -2.0049  1.8883
 5010TIP3   OH239224   3.781   1.210  17.368 -0.1244  0.0586  0.2320
 5010TIP3    H139225   3.745   1.209  17.280 -0.4261 -1.4955  0.3442
 5010TIP3    H239226   3.870   1.244  17.359  0.8358 -2.5672 -1.1007
 5011TIP3   OH239227   2.614   3.122  16.783 -0.7363 -0.3161 -0.2242
 5011TIP3    H139228   2.670   3.147  16.856 -2.7721 -0.7714  1.6184
 5011TIP3    H239229   2.674   3.097  16.713  1.3507 -1.2355  1.7629
 5012TIP3   OH239230   5.972   3.520  17.738  0.5689 -0.8546  0.2507
 5012TIP3    H139231   5.927   3.437  17.750 -0.5231 -0.0824  1.8037
 5012TIP3    H239232   5.938   3.577  17.807  2.0765  0.5656 -0.0934
 5013TIP3   OH239233   5.239   5.388  17.327 -0.1070  0.0879 -0.8514
 5013TIP3    H139234   5.296   5.463  17.348  0.5573 -0.3962 -0.9030
 5013TIP3    H239235   5.166   5.396  17.389  1.1322 -0.5447  0.7716
 5014TIP3   OH239236   1.295   0.530  16.853  0.7792 -0.7451 -0.0834
 5014TIP3    H139237   1.372   0.583  16.874 -0.4419  0.6555  1.0470
 5014TIP3    H239238   1.273   0.555  16.764  2.1115 -1.8097 -0.7486
 5015TIP3   OH239239   7.701   1.187  17.849 -0.7954 -0.5905 -0.1342
 5015TIP3    H139240   7.746   1.103  17.863 -2.7579 -1.9045 -1.2222
 5015TIP3    H239241   7.759   1.235  17.790 -0.1309 -1.6166 -0.3606
 5016TIP3   OH239242   7.950   5.178  17.683 -0.3809 -0.1657 -0.0341
 5016TIP3    H139243   7.952   5.273  17.688  2.2330 -0.1648  0.5558
 5016TIP3    H239244   8.042   5.153  17.672 -1.0442 -2.6061 -0.6402
 5017TIP3   OH239245   1.389   8.341  16.347  0.4890 -0.2932  0.1875
 5017TIP3    H139246   1.362   8.359  16.256 -1.6976 -2.5007  0.2812
 5017TIP3    H239247   1.326   8.390  16.400  1.2606  0.3474  0.5192
 5018TIP3   OH239248   5.405   3.237  17.130  0.4804 -0.2171 -0.7629
 5018TIP3    H139249   5.484   3.283  17.159  0.8873 -0.0951 -2.0331
 5018TIP3    H239250   5.383   3.179  17.204  0.5059  1.2819  0.4757
 5019TIP3   OH239251   4.325   0.587  17.845  0.5694  0.1013 -0.6255
 5019TIP3    H139252   4.384   0.573  17.771  0.2359  1.0208 -1.0752
 5019TIP3    H239253   4.377   0.561  17.922  0.5005 -2.0815 -1.2461
 5020TIP3   OH239254   7.042   7.350  17.929 -0.1841  0.3980  0.0633
 5020TIP3    H139255   7.016   7.286  17.996  2.6699  0.2450  1.1509
 5020TIP3    H239256   6.961   7.398  17.909 -1.5720 -0.9388  2.0657
 5021TIP3   OH239257   8.935   9.071  17.837  0.2521 -0.0193 -0.2346
 5021TIP3    H139258   8.972   9.097  17.753 -0.6074  1.2212 -0.2580
 5021TIP3    H239259   8.885   8.992  17.817  1.4370 -0.7149 -0.5310
 5022TIP3   OH239260   3.875   8.518  17.884  0.1677  0.8679 -0.1090
 5022TIP3    H139261   3.932   8.583  17.844 -1.3014  2.4840  0.2835
 5022TIP3    H239262   3.789   8.560  17.886 -0.3320 -0.0764  2.5058
 5023TIP3   OH239263   0.580   3.083  16.816 -0.2447  0.0474 -0.2492
 5023TIP3    H139264   0.584   3.105  16.909  1.9936 -2.8548  0.4915
 5023TIP3    H239265   0.593   3.167  16.771  1.1099  1.2135  2.1269
 5024TIP3   OH239266   7.502   7.461  16.240 -0.4935 -0.3031 -0.4144
 5024TIP3    H139267   7.579   7.406  16.224 -1.5567 -1.9999  0.1122
 5024TIP3    H239268   7.433   7.423  16.186 -0.7903  1.7712 -1.6301
 5025TIP3   OH239269   4.750   8.503  16.472  0.2768  0.6144  0.0959
 5025TIP3    H139270   4.720   8.528  16.385 -1.3094 -1.3970 -0.0033
 5025TIP3    H239271   4.788   8.416  16.461  1.8307  1.1226  1.1103
 5026TIP3   OH239272   9.176   6.237  16.627  0.1819  0.0836  0.3949
 5026TIP3    H139273   9.225   6.241  16.544 -0.2961 -0.3685  0.0802
 5026TIP3    H239274   9.182   6.145  16.653  2.0712  0.5933  1.9569
 5027TIP3   OH239275   4.328   4.985  16.254 -0.0146 -0.1996 -0.1913
 5027TIP3    H139276   4.308   5.079  16.248  1.3290  0.0732 -1.0187
 5027TIP3    H239277   4.287   4.947  16.176 -1.0790 -0.4223  0.4613
 5028TIP3   OH239278   1.807   8.923  16.959 -0.1486 -0.2194  0.5927
 5028TIP3    H139279   1.817   9.015  16.934  0.8740  0.0185  1.7605
 5028TIP3    H239280   1.723   8.919  17.003  0.2016  0.3665  1.3346
 5029TIP3   OH239281   1.147   1.684  17.162  1.1113  0.3535  0.1630
 5029TIP3    H139282   1.192   1.634  17.094  1.2848  1.3712 -0.4775
 5029TIP3    H239283   1.080   1.734  17.115  0.3479  0.0644  0.9106
 5030TIP3   OH239284   7.751   2.692  16.436 -0.3887  0.0192 -0.8191
 5030TIP3    H139285   7.682   2.630  16.458  0.6459 -0.9917 -0.2612
 5030TIP3    H239286   7.735   2.717  16.345 -0.1350 -2.0571 -1.4793
 5031TIP3   OH239287   3.008   2.686  17.359 -0.0003 -0.4073  0.2414
 5031TIP3    H139288   3.054   2.751  17.412  0.1948 -1.1488  1.0103
 5031TIP3    H239289   3.067   2.670  17.285 -0.4007  0.8383 -0.3655
 5032TIP3   OH239290   7.350   2.588  17.590 -0.1827  0.3359 -0.6424
 5032TIP3    H139291   7.278   2.649  17.578 -0.6021 -0.1260 -0.5151
 5032TIP3    H239292   7.317   2.524  17.653  0.2082 -0.0733 -0.8446
 5033TIP3   OH239293   0.070   8.175  16.958  0.0387 -0.0612  0.0910
 5033TIP3    H139294  -0.002   8.167  16.896 -0.4150  0.4365  0.5383
 5033TIP3    H239295   0.087   8.269  16.963 -1.1405  0.1004  2.0379
 5034TIP3   OH239296   4.231   0.232  16.034 -0.3157 -0.2347  0.1726
 5034TIP3    H139297   4.262   0.178  16.107  0.7146  0.0668 -0.0286
 5034TIP3    H239298   4.139   0.208  16.024 -0.1277 -1.2376  0.7214
 5035TIP3   OH239299   4.157   2.445  17.177 -0.0839 -0.7265  0.2638
 5035TIP3    H139300   4.198   2.388  17.241 -1.5942 -2.5594 -0.2998
 5035TIP3    H239301   4.110   2.510  17.228  0.0961 -1.1528  0.9761
 5036TIP3   OH239302   0.812   6.005  17.461  0.5463 -0.8677  0.1283
 5036TIP3    H139303   0.821   6.059  17.539 -0.0390  0.0638 -0.4224
 5036TIP3    H239304   0.869   6.046  17.396 -0.9014 -0.0715 -0.7039
 5037TIP3   OH239305   0.194   5.798  17.124 -0.0603 -0.2260  0.0471
 5037TIP3    H139306   0.185   5.884  17.165  1.1247  0.7555 -1.6349
 5037TIP3    H239307   0.285   5.794  17.095  0.2703 -2.5850  1.1446
 5038TIP3   OH239308   6.374   5.782  17.706 -0.0197 -0.4510 -0.0074
 5038TIP3    H139309   6.458   5.757  17.745 -0.7386 -0.9480  1.2663
 5038TIP3    H239310   6.329   5.700  17.689 -0.3161 -0.1812 -0.5622
 5039TIP3   OH239311   0.421   9.025  16.728 -0.8813  0.1045 -0.1291
 5039TIP3    H139312   0.408   8.994  16.638  1.3396  0.5790 -0.6726
 5039TIP3    H239313   0.438   9.119  16.719 -1.0243  0.2318  0.8296
 5040TIP3   OH239314   2.409   3.155  17.456  0.1071 -0.4755 -0.3558
 5040TIP3    H139315   2.328   3.145  17.505  0.2817  0.0024  0.0461
 5040TIP3    H239316   2.382   3.156  17.364 -0.2934 -0.7501 -0.2408
 5041TIP3   OH239317   0.515   7.117  17.436  0.0948 -0.0115 -1.3696
 5041TIP3    H139318   0.464   7.076  17.366  1.7149  0.4873 -2.9320
 5041TIP3    H239319   0.551   7.196  17.395  1.8863 -0.2113 -0.2699
 5042TIP3   OH239320   8.522   7.005  17.103  0.4875 -0.6117 -0.1967
 5042TIP3    H139321   8.483   7.092  17.094  1.5163 -0.1822 -0.6176
 5042TIP3    H239322   8.599   7.019  17.158 -1.3584 -1.8843  3.0395
 5043TIP3   OH239323   6.886   2.303  17.726  1.2811  0.2890 -0.2692
 5043TIP3    H139324   6.823   2.352  17.778  0.7435 -0.0285 -0.6088
 5043TIP3    H239325   6.943   2.370  17.688  1.1524  0.5782  0.0478
 5044TIP3   OH239326   1.880   3.574  16.296  0.3857 -0.1239 -0.9229
 5044TIP3    H139327   1.817   3.635  16.259  0.7103 -0.0005 -1.2777
 5044TIP3    H239328   1.961   3.589  16.247  0.5896 -0.5415 -0.7284
 5045TIP3   OH239329   4.634   3.255  16.296 -0.1497 -0.3842  0.1181
 5045TIP3    H139330   4.557   3.222  16.250 -1.9724  3.3663  0.0985
 5045TIP3    H239331   4.623   3.224  16.386 -2.7014  1.4054  0.5259
 5046TIP3   OH239332   4.429   3.868  16.574 -0.0235  0.0820 -0.0220
 5046TIP3    H139333   4.348   3.919  16.566  0.3547  0.8897  1.0335
 5046TIP3    H239334   4.415   3.792  16.518 -1.3043  0.4695 -0.2637
 5047TIP3   OH239335   1.393   6.953  17.045  0.3743  0.5515  0.2473
 5047TIP3    H139336   1.471   6.947  17.099 -0.2551  1.9515  1.3934
 5047TIP3    H239337   1.320   6.936  17.105 -0.3782  2.6099  0.0148
 5048TIP3   OH239338   1.791   7.572  17.433  0.0502  0.1467  0.0822
 5048TIP3    H139339   1.739   7.618  17.368 -1.8382 -0.3079  1.2099
 5048TIP3    H239340   1.879   7.567  17.394 -0.5240  1.6170 -1.5363
 5049TIP3   OH239341   7.386   3.717  16.984  0.0643 -0.0751 -0.2103
 5049TIP3    H139342   7.350   3.791  17.034 -0.4665 -0.4677 -0.0000
 5049TIP3    H239343   7.327   3.644  17.004  0.1550 -0.3696 -1.0011
 5050TIP3   OH239344   6.597   4.271  16.971 -0.0179 -0.2322  0.2214
 5050TIP3    H139345   6.665   4.233  16.915  0.1500  1.9220 -1.1469
 5050TIP3    H239346   6.539   4.316  16.911  0.0925  2.0736  1.7262
 5051TIP3   OH239347   2.111   6.034  17.743 -0.1255  0.6682  0.0905
 5051TIP3    H139348   2.134   5.943  17.761  1.6010  1.2124  0.8738
 5051TIP3    H239349   2.053   6.059  17.815  0.7345  0.6537  0.7979
 5052TIP3   OH239350   4.545   2.437  17.524 -0.2064  0.2518  0.6104
 5052TIP3    H139351   4.450   2.441  17.514 -0.3417 -2.2571  0.1108
 5052TIP3    H239352   4.565   2.498  17.595 -1.9275  2.1671 -0.4626
 5053TIP3   OH239353   7.283   1.030  17.266  0.1925  0.1690  0.0551
 5053TIP3    H139354   7.267   0.967  17.337  0.1896  0.5957  0.4386
 5053TIP3    H239355   7.225   1.103  17.287 -0.7344 -0.2170 -1.0691
 5054TIP3   OH239356   7.382   3.612  16.451  0.0709  0.4232  0.7273
 5054TIP3    H139357   7.393   3.522  16.480 -0.5639  0.1482  0.1471
 5054TIP3    H239358   7.445   3.662  16.503  1.8879 -0.6263 -0.3186
 5055TIP3   OH239359   7.028   4.608  17.251  0.4752  0.3198  0.0241
 5055TIP3    H139360   7.106   4.630  17.201  0.2797 -2.0256 -1.4859
 5055TIP3    H239361   7.061   4.572  17.333  0.9069  1.3188  0.2931
 5056TIP3   OH239362   2.092   6.115  17.085 -0.0544  0.6186  0.1802
 5056TIP3    H139363   2.154   6.082  17.151 -1.4331  0.9314  1.7062
 5056TIP3    H239364   2.114   6.067  17.006  2.3939  1.0185  0.5319
 5057TIP3   OH239365   3.464   5.307  16.903 -0.1963  0.1567  0.0538
 5057TIP3    H139366   3.451   5.262  16.820 -2.3193 -1.8235  1.3196
 5057TIP3    H239367   3.541   5.361  16.890  0.1273 -0.8577 -2.8593
 5058TIP3   OH239368   0.272   5.323  17.544 -0.2024  0.1939  0.3479
 5058TIP3    H139369   0.365   5.320  17.523 -0.2255  0.1015  0.2597
 5058TIP3    H239370   0.265   5.392  17.611 -0.2500  1.1407 -0.6050
 5059TIP3   OH239371   7.279   6.015  17.151  0.2057 -0.7539 -0.1194
 5059TIP3    H139372   7.217   5.989  17.084  0.4207  0.2994 -0.7448
 5059TIP3    H239373   7.269   5.949  17.220 -0.3908 -1.5443 -0.9441
 5060TIP3   OH239374   3.042   2.080  17.228  0.3317  0.2364  0.5163
 5060TIP3    H139375   2.983   2.138  17.181 -1.4456 -0.6557  1.5438
 5060TIP3    H239376   3.096   2.040  17.159 -0.6473  0.6528 -0.5281
 5061TIP3   OH239377   6.108   9.121  17.056  0.0924 -0.4150 -0.1161
 5061TIP3    H139378   6.194   9.085  17.034  0.5833  0.7167 -0.1121
 5061TIP3    H239379   6.127   9.204  17.099 -0.9638 -0.8593  1.3033
 5062TIP3   OH239380   8.350   8.398  16.081 -0.4924 -0.2324 -0.5968
 5062TIP3    H139381   8.288   8.326  16.072 -0.1900 -0.7057  0.7884
 5062TIP3    H239382   8.408   8.371  16.153  0.1671  1.0122 -0.6244
 5063TIP3   OH239383   4.053   9.042  16.096  0.4881  0.0244  0.1138
 5063TIP3    H139384   4.025   9.131  16.077 -1.2964 -0.4446  0.3592
 5063TIP3    H239385   4.148   9.043  16.083  0.1692  1.2143 -2.8280
 5064TIP3   OH239386   4.038   7.653  17.204 -0.3547 -0.1537 -0.1400
 5064TIP3    H139387   4.108   7.659  17.139  0.6530  0.2500  0.9679
 5064TIP3    H239388   3.988   7.734  17.191 -0.8289 -0.5788 -1.1332
 5065TIP3   OH239389   7.246   5.199  17.193  0.2830  0.2497 -0.1839
 5065TIP3    H139390   7.154   5.221  17.204  0.5017  2.2670 -1.6478
 5065TIP3    H239391   7.248   5.104  17.183 -1.6400  0.1786 -0.1481
 5066TIP3   OH239392   2.524   4.613  17.582  0.2653  0.2045  0.4715
 5066TIP3    H139393   2.546   4.700  17.550 -0.8503  0.9628  1.6795
 5066TIP3    H239394   2.600   4.587  17.636  0.6478  0.3605  0.0146
 5067TIP3   OH239395   2.155   0.335  16.586 -0.4977 -0.5363 -0.7625
 5067TIP3    H139396   2.082   0.338  16.647 -0.4812 -0.3424 -0.7537
 5067TIP3    H239397   2.226   0.294  16.635 -0.3357  0.0535 -0.5009
 5068TIP3   OH239398   5.767   0.913  17.607 -0.5186 -0.2310 -0.3018
 5068TIP3    H139399   5.723   0.934  17.525 -0.6149  1.2134  0.0936
 5068TIP3    H239400   5.699   0.922  17.674  0.1934  1.4259  0.2428
 5069TIP3   OH239401   8.413   8.295  16.325  0.5626  0.5353  0.3646
 5069TIP3    H139402   8.425   8.250  16.409  3.2069  1.5659  0.6446
 5069TIP3    H239403   8.352   8.367  16.345  0.8525  0.5266  1.3193
 5070TIP3   OH239404   6.094   1.449  17.412 -0.0981 -0.0638  0.3713
 5070TIP3    H139405   6.050   1.399  17.480  0.7291 -1.7482 -0.2800
 5070TIP3    H239406   6.024   1.476  17.353 -0.7163  0.7312  1.4323
 5071TIP3   OH239407   2.935   4.345  17.573 -0.2637 -0.1042  0.6284
 5071TIP3    H139408   2.928   4.251  17.592  0.2197 -0.1448  0.6032
 5071TIP3    H239409   3.007   4.352  17.510  1.0845  0.4823  2.1683
 5072TIP3   OH239410   0.375   0.797  17.489 -0.1153  0.2000  0.8309
 5072TIP3    H139411   0.463   0.835  17.482  0.7699 -1.8114  0.2633
 5072TIP3    H239412   0.372   0.732  17.418 -2.4203  0.8585  0.2573
 5073TIP3   OH239413   7.495   9.035  17.517 -0.1534  0.3310  0.5143
 5073TIP3    H139414   7.571   8.983  17.540 -0.1418  0.5739  1.0397
 5073TIP3    H239415   7.529   9.109  17.466 -0.1692 -0.1607 -0.2276
 5074TIP3   OH239416   0.790   1.091  16.096 -0.5251 -0.1599  0.2282
 5074TIP3    H139417   0.770   1.056  16.010 -0.7944  0.6436 -0.0478
 5074TIP3    H239418   0.795   1.014  16.153 -2.0102 -0.5882 -0.1650
 5075TIP3   OH239419   7.200   2.626  17.255  0.2818 -0.1654 -0.6250
 5075TIP3    H139420   7.191   2.679  17.334  0.1466 -0.9816 -0.0835
 5075TIP3    H239421   7.110   2.619  17.221  0.2896 -0.1074 -0.6592
 5076TIP3   OH239422   2.136   1.513  16.737 -0.1580 -0.5759  0.4012
 5076TIP3    H139423   2.104   1.558  16.816 -0.8702 -1.0976  0.4194
 5076TIP3    H239424   2.166   1.583  16.680  0.4148 -0.1885  1.1470
 5077TIP3   OH239425   7.610   2.496  17.607  0.5430  0.3174 -0.1422
 5077TIP3    H139426   7.609   2.465  17.697  0.2633  2.8458  0.8144
 5077TIP3    H239427   7.518   2.505  17.584  0.6166 -0.0990 -0.6197
 5078TIP3   OH239428   2.949   1.067  16.673  0.8340 -0.1087  0.4121
 5078TIP3    H139429   2.960   1.160  16.694 -0.7586  0.4802 -1.1303
 5078TIP3    H239430   2.896   1.066  16.594  0.1330 -2.3653  0.8259
 5079TIP3   OH239431   0.622   7.113  16.395 -0.7546 -0.2480 -0.1515
 5079TIP3    H139432   0.659   7.059  16.325  0.5497  0.8280 -0.3285
 5079TIP3    H239433   0.568   7.053  16.445  1.2027 -1.9235  0.0881
 5080TIP3   OH239434   1.140   1.463  17.727 -0.3226 -0.4494 -0.2371
 5080TIP3    H139435   1.053   1.459  17.766 -0.5456 -0.7756 -0.7558
 5080TIP3    H239436   1.148   1.553  17.696 -1.2769 -0.8891 -1.9426
 5081TIP3   OH239437   4.865   3.249  16.775  0.0439  0.1000 -0.0216
 5081TIP3    H139438   4.881   3.257  16.681 -1.1353 -0.7229 -0.3156
 5081TIP3    H239439   4.950   3.265  16.815  0.8400 -0.7960 -1.2879
 5082TIP3   OH239440   4.919   4.915  16.563 -0.0487 -0.1803  0.7967
 5082TIP3    H139441   4.986   4.962  16.513 -0.3655  0.5140  1.0120
 5082TIP3    H239442   4.968   4.871  16.633  0.3126 -0.6111  0.2885
 5083TIP3   OH239443   2.779   3.393  16.879  0.7721  0.6071  0.3560
 5083TIP3    H139444   2.753   3.336  16.951 -2.2552  1.3726 -0.0058
 5083TIP3    H239445   2.828   3.464  16.921  0.3763  0.2383  1.4700
 5084TIP3   OH239446   5.200   6.476  17.486 -0.0322 -1.0707 -0.4852
 5084TIP3    H139447   5.295   6.475  17.496 -0.2417 -1.5330  2.2254
 5084TIP3    H239448   5.173   6.562  17.520 -0.7409 -2.0258  1.5105
 5085TIP3   OH239449   0.893   1.844  16.312 -0.2904  0.5059  0.1900
 5085TIP3    H139450   0.923   1.787  16.242 -0.4613 -0.3267  0.7794
 5085TIP3    H239451   0.947   1.820  16.387  1.1414  2.6244 -0.0687
 5086TIP3   OH239452   5.059   1.495  16.018  0.2552 -0.1625  0.0906
 5086TIP3    H139453   5.048   1.509  16.112 -0.8330 -1.0519  0.1213
 5086TIP3    H239454   5.149   1.522  16.000 -0.0653  1.6690  1.0492
 5087TIP3   OH239455   1.586   7.741  16.726 -0.4135 -0.3754  0.3848
 5087TIP3    H139456   1.620   7.749  16.815 -2.1038  0.8457  0.9745
 5087TIP3    H239457   1.510   7.684  16.734  0.2105 -1.3896 -0.5486
 5088TIP3   OH239458   2.053   8.816  15.869 -0.1537  0.2203 -0.0287
 5088TIP3    H139459   2.003   8.740  15.899  2.0288 -1.4434 -0.3411
 5088TIP3    H239460   1.996   8.858  15.804 -2.1292 -0.0754  1.4229
 5089TIP3   OH239461   8.658   7.643  16.427 -0.6740  0.3135 -0.3975
 5089TIP3    H139462   8.621   7.556  16.414 -0.5732  0.2150 -0.0549
 5089TIP3    H239463   8.679   7.646  16.521  1.2535 -0.0457 -0.7872
 5090TIP3   OH239464   0.959   3.417  16.487 -0.0694 -0.1810 -0.0312
 5090TIP3    H139465   0.904   3.494  16.504 -0.1099 -0.2162 -0.0005
 5090TIP3    H239466   0.912   3.368  16.420  0.3863  0.2642 -0.6915
 5091TIP3   OH239467   0.806   4.336  17.065  0.0462  0.5297 -0.5058
 5091TIP3    H139468   0.787   4.399  16.996  0.1522  2.3471  1.0316
 5091TIP3    H239469   0.737   4.270  17.057 -1.2069  1.8447 -1.0340
 5092TIP3   OH239470   4.197   3.899  16.232 -0.1235  0.7589  0.4103
 5092TIP3    H139471   4.252   3.823  16.212  2.3281  1.9698  2.0878
 5092TIP3    H239472   4.121   3.862  16.277  0.4741 -0.7642  0.2418
 5093TIP3   OH239473   2.578   7.951  16.947 -0.2403  0.0439  0.4689
 5093TIP3    H139474   2.549   8.042  16.950  0.0902  0.1344  1.3090
 5093TIP3    H239475   2.644   7.949  16.878 -1.9534 -0.1035 -1.2681
 5094TIP3   OH239476   4.255   6.216  17.119 -0.0225 -0.0571  0.0854
 5094TIP3    H139477   4.314   6.291  17.119 -1.2058  0.9137  0.5727
 5094TIP3    H239478   4.185   6.240  17.181 -1.1164 -0.9915 -0.7343
 5095TIP3   OH239479   6.070   0.999  17.543  0.0639  0.1763  0.3406
 5095TIP3    H139480   6.103   1.076  17.589  0.7918  1.1838 -1.7431
 5095TIP3    H239481   6.001   0.964  17.600  0.9079  1.3401  2.1376
 5096TIP3   OH239482   2.175   3.190  17.578 -0.2831  0.2566 -0.1778
 5096TIP3    H139483   2.155   3.141  17.657  0.3187  0.0036 -0.1736
 5096TIP3    H239484   2.095   3.237  17.557 -1.6667 -2.4622 -1.4470
 5097TIP3   OH239485   2.317   6.248  17.748  0.9601  0.7260  0.4559
 5097TIP3    H139486   2.350   6.299  17.822  1.0286  0.6542  0.4741
 5097TIP3    H239487   2.261   6.181  17.788  1.6049  0.2098  0.5000
 5098TIP3   OH239488   1.401   7.464  16.608 -0.0471  0.5384  0.2816
 5098TIP3    H139489   1.493   7.445  16.590 -0.3159 -1.9058  1.1928
 5098TIP3    H239490   1.353   7.391  16.568 -1.4299  0.6987  1.5635
 5099TIP3   OH239491   3.575   2.594  16.796 -0.3282 -0.1219  0.1495
 5099TIP3    H139492   3.625   2.534  16.851 -1.5666  2.1243  4.0739
 5099TIP3    H239493   3.491   2.549  16.782 -0.9427  0.2491  2.3539
 5100TIP3   OH239494   5.488   6.235  16.330  0.2064  0.5851 -0.2312
 5100TIP3    H139495   5.438   6.312  16.355 -1.5599 -0.6679  0.3162
 5100TIP3    H239496   5.532   6.208  16.410 -0.1101  0.3891 -0.1182
 5101TIP3   OH239497   4.766   7.913  17.392 -0.5255 -0.1899  0.0828
 5101TIP3    H139498   4.734   7.851  17.458 -1.8577  0.4852  0.0940
 5101TIP3    H239499   4.716   7.992  17.407 -1.1808 -0.1500 -2.0308
 5102TIP3   OH239500   7.506   8.560  16.054 -0.3116  0.4185  0.0679
 5102TIP3    H139501   7.577   8.623  16.062  1.0011 -1.0325  0.2023
 5102TIP3    H239502   7.430   8.613  16.028  0.6296  2.0921  0.5838
 5103TIP3   OH239503   5.276   2.710  17.715 -0.4062  0.1782  0.0604
 5103TIP3    H139504   5.314   2.642  17.660 -1.5227 -0.1710 -0.3194
 5103TIP3    H239505   5.342   2.778  17.719 -0.2668  0.1913 -1.6954
 5104TIP3   OH239506   1.611   8.336  17.416 -0.4880 -0.0817 -0.0418
 5104TIP3    H139507   1.669   8.266  17.385 -1.1483 -0.7556  0.2241
 5104TIP3    H239508   1.670   8.394  17.465  0.0424 -0.5327 -0.1264
 5105TIP3   OH239509   1.630   5.750  17.606 -0.1050  0.0719 -0.4905
 5105TIP3    H139510   1.714   5.705  17.614  0.3565  0.5691 -2.0766
 5105TIP3    H239511   1.586   5.705  17.534 -0.9743  0.1835 -0.0470
 5106TIP3   OH239512   4.266   3.130  16.350  0.1561 -0.4937 -0.4512
 5106TIP3    H139513   4.274   3.071  16.425  0.7120 -0.2397 -0.3077
 5106TIP3    H239514   4.197   3.191  16.375  1.5346  0.6925  0.6207
 5107TIP3   OH239515   8.469   9.185  16.244 -0.0586  0.4509  0.0186
 5107TIP3    H139516   8.486   9.264  16.193  0.7295  0.5921  0.4811
 5107TIP3    H239517   8.397   9.142  16.198  1.0803  0.2103 -1.6534
 5108TIP3   OH239518   0.156   1.282  16.854  0.1187 -0.5398 -0.3730
 5108TIP3    H139519   0.106   1.263  16.775 -1.4559  1.8828 -0.0758
 5108TIP3    H239520   0.247   1.278  16.827 -0.3921  0.7693 -2.4946
 5109TIP3   OH239521   5.115   1.522  17.191 -0.0755 -0.0034 -0.4001
 5109TIP3    H139522   5.045   1.511  17.126 -0.7408  0.4517  0.2235
 5109TIP3    H239523   5.076   1.578  17.258  1.0045  0.5193 -0.1984
 5110TIP3   OH239524   3.738   3.046  15.792 -0.1887  0.4894 -0.1493
 5110TIP3    H139525   3.814   3.010  15.745 -0.7615  0.4135 -1.0310
 5110TIP3    H239526   3.697   2.970  15.832 -0.1737  0.4423 -0.2211
 5111TIP3   OH239527   4.939   8.204  16.945 -0.2497  0.4096 -0.1503
 5111TIP3    H139528   4.860   8.253  16.967 -0.8605 -0.6523  0.1193
 5111TIP3    H239529   4.961   8.231  16.856 -0.7062  0.9906 -0.0867
 5112TIP3   OH239530   0.147   2.502  16.344 -0.0099 -0.0230  0.3353
 5112TIP3    H139531   0.192   2.561  16.404  0.9700 -1.4739  1.0677
 5112TIP3    H239532   0.143   2.418  16.390 -1.2841 -0.5813 -0.7106
 5113TIP3   OH239533   7.932   8.481  16.252  0.1637 -0.6393 -0.2682
 5113TIP3    H139534   7.964   8.445  16.334 -1.0204  0.5649  0.7717
 5113TIP3    H239535   7.881   8.409  16.212  0.5561 -1.1549  0.1490
 5114TIP3   OH239536   4.702   3.491  16.808 -0.0192  0.0738  0.5270
 5114TIP3    H139537   4.681   3.468  16.717  0.7807  2.3507 -0.2900
 5114TIP3    H239538   4.737   3.410  16.845 -0.8193 -1.0438 -1.0299
 5115TIP3   OH239539   2.179   4.900  16.411  0.2752 -0.1202  0.1941
 5115TIP3    H139540   2.211   4.943  16.332 -2.4241  1.2791 -0.2224
 5115TIP3    H239541   2.164   4.809  16.385 -2.5901  0.7732 -1.6103
 5116TIP3   OH239542   0.815   7.882  17.628  0.0121  0.6185  0.1774
 5116TIP3    H139543   0.870   7.954  17.657 -0.2192 -0.0080  2.3607
 5116TIP3    H239544   0.863   7.843  17.555  1.5211  1.2716  0.7760
 5117TIP3   OH239545   6.243   8.575  17.177 -0.8041 -0.3281  0.5701
 5117TIP3    H139546   6.234   8.532  17.262 -2.6749 -0.6458  0.2606
 5117TIP3    H239547   6.210   8.510  17.114  1.7874 -0.6397 -0.5974
 5118TIP3   OH239548   5.784   8.980  16.386  0.9004  0.0979  0.3443
 5118TIP3    H139549   5.704   8.927  16.388 -0.1026  1.5790  0.7616
 5118TIP3    H239550   5.788   9.021  16.472  1.7950  0.5274  0.1128
 5119TIP3   OH239551   7.625   6.861  17.256  0.1721  0.1827  0.0032
 5119TIP3    H139552   7.560   6.806  17.299 -0.6280 -0.0363 -1.4380
 5119TIP3    H239553   7.661   6.806  17.187 -0.3569  1.3044 -1.2142
 5120TIP3   OH239554   7.723   2.020  17.700  0.4316  0.0022  0.2650
 5120TIP3    H139555   7.756   2.076  17.770 -1.0178 -1.0598  1.8896
 5120TIP3    H239556   7.692   2.081  17.633 -1.6849  1.2882  2.2280
 5121TIP3   OH239557   2.183   5.783  17.085  0.2534  0.1560  0.3926
 5121TIP3    H139558   2.145   5.751  17.003  0.8258 -1.0698  0.5772
 5121TIP3    H239559   2.244   5.852  17.058 -0.1292  0.2892 -0.1414
 5122TIP3   OH239560   7.197   4.788  17.026 -0.1483  0.3688  0.2823
 5122TIP3    H139561   7.232   4.716  16.973 -1.8246 -0.4536  0.2312
 5122TIP3    H239562   7.105   4.792  17.002  0.0292  3.0224 -0.2217
 5123TIP3   OH239563   2.120   7.480  16.615  0.4004  0.3864  0.4340
 5123TIP3    H139564   2.121   7.402  16.560 -3.0050 -0.5053  1.4133
 5123TIP3    H239565   2.208   7.484  16.653  1.5130 -1.3275 -1.7744
 5124TIP3   OH239566   3.907   8.357  16.476  0.0654  0.5459 -0.5146
 5124TIP3    H139567   3.822   8.335  16.437 -1.3334  1.9488  1.5670
 5124TIP3    H239568   3.901   8.450  16.496  1.8557  0.5199  0.3537
 5125TIP3   OH239569   5.477   4.485  16.830  0.2929  0.5061  0.5101
 5125TIP3    H139570   5.386   4.490  16.799  0.3114 -0.8848  0.1525
 5125TIP3    H239571   5.471   4.506  16.924 -0.2284  1.5218  0.2615
 5126TIP3   OH239572   8.874   5.777  17.331 -0.1438 -0.1136  0.0797
 5126TIP3    H139573   8.965   5.761  17.355  0.9789  2.0898 -2.2391
 5126TIP3    H239574   8.857   5.719  17.257 -0.0066  0.7319 -0.6304
 5127TIP3   OH239575   3.701   4.978  16.769  0.4450  0.4373  0.0224
 5127TIP3    H139576   3.732   4.929  16.693  1.2215  1.8781 -0.6190
 5127TIP3    H239577   3.774   4.976  16.831  1.0737  1.9985 -0.6153
 5128TIP3   OH239578   2.400   3.817  17.365 -0.3707  0.2054  0.4718
 5128TIP3    H139579   2.414   3.743  17.307  1.8654  1.1405 -0.2731
 5128TIP3    H239580   2.309   3.807  17.395 -1.0769 -1.1948 -1.8663
 5129TIP3   OH239581   1.190   3.970  17.483  0.0409  0.2574 -0.3588
 5129TIP3    H139582   1.203   3.913  17.559  1.5346  0.2674 -0.5899
 5129TIP3    H239583   1.198   3.912  17.407  1.3532  0.7008 -0.5884
 5130TIP3   OH239584   1.230   5.118  16.955 -0.4348 -0.5297 -0.2600
 5130TIP3    H139585   1.162   5.060  16.921 -2.2228  1.3393 -0.0951
 5130TIP3    H239586   1.273   5.153  16.877 -0.6766 -0.6082 -0.4308
 5131TIP3   OH239587   0.563   4.391  16.161 -0.2107 -0.1059 -0.5986
 5131TIP3    H139588   0.578   4.391  16.256 -0.8836  2.0126 -0.4368
 5131TIP3    H239589   0.626   4.454  16.127 -0.0793 -0.7351 -1.5623
 5132TIP3   OH239590   8.066   9.016  17.888 -0.0330 -0.4575  0.1911
 5132TIP3    H139591   8.054   9.053  17.801  0.1295  1.3194  0.8693
 5132TIP3    H239592   8.160   9.007  17.898  0.1952  2.0618  1.1546
 5133TIP3   OH239593   2.855   1.849  17.366  0.0946 -0.1812 -0.2147
 5133TIP3    H139594   2.907   1.900  17.428 -2.0378  0.7383  0.9463
 5133TIP3    H239595   2.918   1.819  17.301  1.8892  1.7338  0.5063
 5134TIP3   OH239596   5.234   0.339  17.362 -1.0051  0.6896  0.4163
 5134TIP3    H139597   5.324   0.367  17.373  0.1309 -2.2761 -0.3790
 5134TIP3    H239598   5.212   0.293  17.443 -0.0301 -2.6268 -0.9967
 5135TIP3   OH239599   2.924   5.454  17.349 -0.0513  0.2766 -0.0145
 5135TIP3    H139600   2.854   5.418  17.402  0.4707 -1.6682 -0.5717
 5135TIP3    H239601   2.925   5.548  17.371 -0.5361 -0.2472  2.5576
 5136TIP3   OH239602   4.479   1.311  16.251  0.4999  0.9338  0.5978
 5136TIP3    H139603   4.538   1.361  16.194 -0.5084  2.8782  1.1764
 5136TIP3    H239604   4.391   1.335  16.222 -0.1497 -2.3718 -0.6632
 5137TIP3   OH239605   3.128   2.341  16.937 -0.7553  0.4911  0.2132
 5137TIP3    H139606   3.047   2.308  16.976 -1.3505  1.3590 -0.2570
 5137TIP3    H239607   3.197   2.311  16.997 -0.9967 -3.1144 -1.0245
 5138TIP3   OH239608   0.653   0.858  17.710  0.2719 -0.0315 -0.4396
 5138TIP3    H139609   0.701   0.920  17.765  1.2390 -2.3783  1.5559
 5138TIP3    H239610   0.587   0.821  17.768  0.7196 -1.9406 -1.0761
 5139TIP3   OH239611   2.283   5.004  16.722 -0.1434  0.5986  0.0111
 5139TIP3    H139612   2.276   4.921  16.677 -0.6680  0.8963 -0.4637
 5139TIP3    H239613   2.202   5.050  16.701 -1.0125  0.2351  2.2877
 5140TIP3   OH239614   3.399   1.284  17.385 -0.3995  0.3877 -0.1479
 5140TIP3    H139615   3.398   1.380  17.385 -0.9502  0.3861  0.1114
 5140TIP3    H239616   3.461   1.261  17.316  1.5122  0.9231  1.3037
 5141TIP3   OH239617   3.442   4.872  17.060 -0.2093 -0.0048 -0.0966
 5141TIP3    H139618   3.355   4.912  17.055  0.6546  1.8705 -1.4611
 5141TIP3    H239619   3.499   4.943  17.090  1.3606 -0.1972 -2.3606
 5142TIP3   OH239620   1.061   0.190  17.058 -0.0579 -0.1759 -0.6427
 5142TIP3    H139621   0.972   0.155  17.047  0.7563 -1.7931 -2.7061
 5142TIP3    H239622   1.077   0.184  17.152 -2.3668  0.8487 -0.1100
 5143TIP3   OH239623   0.886   9.134  15.841 -0.0698  0.3263  0.5572
 5143TIP3    H139624   0.863   9.076  15.768  0.1667 -1.3013  1.7145
 5143TIP3    H239625   0.801   9.162  15.876 -0.1924  0.5465  0.0863
 5144TIP3   OH239626   6.482   6.851  17.521  0.5842  0.3852  0.0481
 5144TIP3    H139627   6.465   6.761  17.491  1.8523  0.2636 -0.3645
 5144TIP3    H239628   6.420   6.864  17.593  0.9653 -1.1427  0.7077
 5145TIP3   OH239629   6.072   9.057  17.948  0.0368 -0.0539  0.0762
 5145TIP3    H139630   6.032   8.996  17.886  0.6397 -0.3076 -0.0698
 5145TIP3    H239631   6.164   9.063  17.920  0.6941 -1.2806  1.7838
 5146TIP3   OH239632   2.124   2.902  16.414  0.6444  0.9357 -0.1096
 5146TIP3    H139633   2.180   2.947  16.351 -0.5428  1.9369 -0.4848
 5146TIP3    H239634   2.122   2.811  16.383 -1.4394  1.7550 -2.6980
 5147TIP3   OH239635   0.683   7.587  16.526 -0.4190 -0.3782 -0.1764
 5147TIP3    H139636   0.655   7.567  16.436 -2.2447  0.0211  0.2493
 5147TIP3    H239637   0.723   7.506  16.557 -1.8435 -1.3055 -0.6228
 5148TIP3   OH239638   5.866   2.696  17.721  0.0262  0.0877 -0.1230
 5148TIP3    H139639   5.793   2.642  17.689  0.3424 -0.8807  0.7537
 5148TIP3    H239640   5.836   2.731  17.804  0.8199 -0.9392  0.6249
 5149TIP3   OH239641   3.556   6.281  16.902  0.3230  0.3547  0.4730
 5149TIP3    H139642   3.561   6.281  16.806  0.5694 -0.0490  0.4852
 5149TIP3    H239643   3.598   6.200  16.928  0.2056  0.4382  0.9257
 5150TIP3   OH239644   7.739   2.091  16.972 -0.1757 -0.2136  0.0166
 5150TIP3    H139645   7.764   2.039  17.048 -0.9141  2.2412  2.0515
 5150TIP3    H239646   7.643   2.091  16.974 -0.1996 -0.0116 -0.8476
 5151TIP3   OH239647   3.565   3.358  16.184  0.1252 -0.4349  0.9914
 5151TIP3    H139648   3.510   3.340  16.109  0.3991  0.5685  0.5300
 5151TIP3    H239649   3.505   3.356  16.259 -0.5117  0.4197  0.5247
 5152TIP3   OH239650   0.268   7.269  17.179  0.2030 -0.2622  0.6328
 5152TIP3    H139651   0.179   7.287  17.151 -0.1773 -0.7847  1.4748
 5152TIP3    H239652   0.323   7.314  17.115 -0.6544 -0.2502 -0.1082
 5153TIP3   OH239653   4.828   1.538  17.756 -0.4288 -0.0977 -0.7410
 5153TIP3    H139654   4.747   1.524  17.706  0.2023 -1.5981 -1.4097
 5153TIP3    H239655   4.827   1.468  17.821  0.0311  0.2593 -0.3495
 5154TIP3   OH239656   8.243   1.387  16.971 -0.2173 -0.7469 -0.2778
 5154TIP3    H139657   8.293   1.467  16.983 -1.2999 -0.0363 -0.3734
 5154TIP3    H239658   8.213   1.392  16.880 -0.5115 -1.1378 -0.2018
 5155TIP3   OH239659   5.713   4.471  17.083  0.0006 -0.2626  0.3112
 5155TIP3    H139660   5.667   4.403  17.034 -0.4674  0.6408 -0.5519
 5155TIP3    H239661   5.711   4.442  17.174  1.2660 -2.2116 -0.2250
 5156TIP3   OH239662   7.725   4.980  16.925 -0.0176  0.2247 -0.0256
 5156TIP3    H139663   7.760   4.931  16.851 -1.4840  0.1812 -0.7307
 5156TIP3    H239664   7.724   5.071  16.896 -0.7560  0.1862 -0.1393
 5157TIP3   OH239665   0.570   3.720  16.279 -0.6138 -0.0852 -0.0503
 5157TIP3    H139666   0.580   3.684  16.190 -2.2952  0.8036 -0.6432
 5157TIP3    H239667   0.601   3.811  16.271 -0.4122 -0.1138  0.3847
 5158TIP3   OH239668   1.121   0.131  18.068  0.1538  0.5228  0.2728
 5158TIP3    H139669   1.201   0.082  18.047  1.1410  2.7996 -1.6668
 5158TIP3    H239670   1.051   0.084  18.022  0.4636 -0.9141  1.1853
 5159TIP3   OH239671   3.576   8.177  16.168 -0.1732  0.1670 -0.0618
 5159TIP3    H139672   3.501   8.136  16.211 -0.7228  0.6523 -0.5372
 5159TIP3    H239673   3.638   8.106  16.155 -1.9349 -1.0404 -2.7626
 5160TIP3   OH239674   0.260   8.171  16.486  0.4336 -0.0161 -0.2727
 5160TIP3    H139675   0.353   8.154  16.467  0.1598  0.7188 -2.5717
 5160TIP3    H239676   0.248   8.263  16.465 -0.4676  0.3815  1.7371
 5161TIP3   OH239677   3.069   6.588  16.401  0.5868  0.4234 -0.4119
 5161TIP3    H139678   2.990   6.590  16.346 -0.2583 -0.3623  0.7325
 5161TIP3    H239679   3.088   6.680  16.417 -0.5358  0.6244 -0.1163
 5162TIP3   OH239680   0.749   7.837  16.744  0.3055  0.2249  0.0503
 5162TIP3    H139681   0.808   7.878  16.808  0.6739  0.0999 -0.2065
 5162TIP3    H239682   0.805   7.818  16.669 -0.1257  0.3662 -0.3108
 5163TIP3   OH239683   5.150   9.070  17.764 -0.0181 -0.4723  0.5483
 5163TIP3    H139684   5.095   9.088  17.688 -2.3690  0.3371  2.3374
 5163TIP3    H239685   5.159   9.154  17.808  1.9354 -0.7755  0.8407
 5164TIP3   OH239686   8.616   5.269  17.062  0.1164  0.0448 -0.2142
 5164TIP3    H139687   8.624   5.249  16.968 -2.5709 -0.2343 -0.4570
 5164TIP3    H239688   8.637   5.362  17.068 -0.2831  0.2092 -1.1948
 5165TIP3   OH239689   0.091   4.299  17.305 -0.8305 -0.3600 -0.0607
 5165TIP3    H139690   0.052   4.382  17.276  0.1986  0.9686  2.1452
 5165TIP3    H239691   0.175   4.323  17.343  1.0206 -2.8255 -2.2005
 5166TIP3   OH239692   8.320   6.180  15.750  0.5488  0.1578  0.3768
 5166TIP3    H139693   8.391   6.157  15.810 -0.1581  1.0448  1.5810
 5166TIP3    H239694   8.333   6.273  15.732  0.0800  0.1621  0.0615
 5167TIP3   OH239695   0.325   0.022  17.816 -0.4640  0.3451 -0.0882
 5167TIP3    H139696   0.240   0.065  17.817 -0.2545  0.7825 -0.4827
 5167TIP3    H239697   0.381   0.078  17.871 -0.0882  0.8165 -0.9193
 5168TIP3   OH239698   6.782   1.660  17.469 -0.5785 -0.6895 -0.6295
 5168TIP3    H139699   6.742   1.742  17.497  0.2088 -0.2718 -0.7020
 5168TIP3    H239700   6.817   1.622  17.549 -0.8631 -0.9102 -0.6089
 5169TIP3   OH239701   3.524   1.395  16.410  0.7938  0.3511  0.4875
 5169TIP3    H139702   3.457   1.363  16.471  1.2826 -2.3060 -0.2574
 5169TIP3    H239703   3.590   1.326  16.409  1.0037  0.4807 -2.6910
 5170TIP3   OH239704   1.223   6.045  17.929  0.4426  0.2959  0.5788
 5170TIP3    H139705   1.269   5.975  17.975 -0.2602 -0.2286  0.4990
 5170TIP3    H239706   1.132   6.037  17.957  0.1901  0.6187 -0.1143
 5171TIP3   OH239707   5.103   7.368  17.098 -0.1034 -0.1325 -0.2498
 5171TIP3    H139708   5.167   7.405  17.159  1.1615  0.8928 -2.0980
 5171TIP3    H239709   5.020   7.411  17.121  0.0289 -0.7281  1.5216
 5172TIP3   OH239710   2.352   8.952  17.593  0.1992  0.4432 -0.0572
 5172TIP3    H139711   2.279   9.011  17.572 -0.0961  0.6093  1.3580
 5172TIP3    H239712   2.317   8.893  17.659  1.2050  0.2126  0.2853
 5173TIP3   OH239713   5.232   8.172  16.937  0.6349  0.7760  0.0025
 5173TIP3    H139714   5.138   8.175  16.955  0.7725 -1.4616  1.3778
 5173TIP3    H239715   5.237   8.169  16.841 -0.7176  0.6242 -0.0924
 5174TIP3   OH239716   3.934   1.977  17.077 -0.3712  0.2452  0.1952
 5174TIP3    H139717   3.945   2.037  17.003 -0.3165  0.2027  0.1685
 5174TIP3    H239718   3.996   2.008  17.143  1.1506 -0.9729 -0.5821
 5175TIP3   OH239719   8.747   3.812  16.673 -0.2922 -0.0834 -0.2503
 5175TIP3    H139720   8.806   3.782  16.742 -0.1137  1.4741  0.2969
 5175TIP3    H239721   8.799   3.807  16.593 -0.5902 -2.1714 -0.3679
 5176TIP3   OH239722   3.703   8.560  17.077 -0.1100  0.0052  0.1534
 5176TIP3    H139723   3.727   8.646  17.111  1.2761  0.2934 -1.3865
 5176TIP3    H239724   3.649   8.521  17.145  0.7879  1.3439  1.7064
 5177TIP3   OH239725   2.075   1.052  16.824 -0.3689  0.1409  0.5418
 5177TIP3    H139726   2.020   1.107  16.767 -0.2258  1.4181  1.5956
 5177TIP3    H239727   2.029   0.968  16.828 -1.5567  0.7593  0.3408
 5178TIP3   OH239728   4.340   0.105  17.821  0.5155 -0.5980  0.3103
 5178TIP3    H139729   4.382   0.164  17.884  0.5853 -0.2142 -0.0932
 5178TIP3    H239730   4.283   0.161  17.770  0.9042 -0.8058 -0.3580
 5179TIP3   OH239731   6.541   5.670  17.446  0.1660  0.0401 -0.3139
 5179TIP3    H139732   6.484   5.593  17.447  1.4543 -0.9611 -0.6234
 5179TIP3    H239733   6.580   5.671  17.534 -0.0743  0.5256 -0.2123
 5180TIP3   OH239734   0.916   6.417  17.558 -0.3514  0.3140  0.1118
 5180TIP3    H139735   0.957   6.416  17.644 -2.1870 -1.2466  1.0488
 5180TIP3    H239736   0.838   6.473  17.569 -0.7785 -0.1569 -0.4303
 5181TIP3   OH239737   8.089   6.905  16.728  0.3741  0.0757 -0.2349
 5181TIP3    H139738   8.125   6.828  16.683 -1.2032 -0.9382  0.1505
 5181TIP3    H239739   8.036   6.949  16.661 -0.7919 -0.6224  0.2041
 5182TIP3   OH239740   3.585   6.160  17.755 -1.1269  0.3926 -0.4482
 5182TIP3    H139741   3.652   6.229  17.748  0.8682 -1.2771  0.8982
 5182TIP3    H239742   3.615   6.092  17.695 -2.3196  0.0978 -0.7243
 5183TIP3   OH239743   5.420   4.572  15.982  0.7221  0.3819 -0.0574
 5183TIP3    H139744   5.491   4.619  16.025  1.7788 -2.3357  1.3539
 5183TIP3    H239745   5.463   4.521  15.914  0.0488 -0.7511  0.3444
 5184TIP3   OH239746   8.392   4.239  17.337 -0.0846  0.0690  0.2301
 5184TIP3    H139747   8.407   4.320  17.386 -1.0361  0.9243 -0.8330
 5184TIP3    H239748   8.391   4.170  17.404 -0.1824  1.0512  1.2697
 5185TIP3   OH239749   4.366   3.374  17.893  0.0969  0.3204 -0.2608
 5185TIP3    H139750   4.362   3.364  17.988 -1.3695  0.5642 -0.2730
 5185TIP3    H239751   4.282   3.413  17.869  0.2108 -0.2575 -1.7234
 5186TIP3   OH239752   5.953   4.640  17.518  0.7441 -0.4438 -0.6779
 5186TIP3    H139753   5.967   4.729  17.486 -1.2992 -0.7335 -2.6234
 5186TIP3    H239754   6.006   4.634  17.597 -0.6090  3.1627  0.6873
 5187TIP3   OH239755   5.581   7.822  17.368 -0.3016  0.3551 -0.0943
 5187TIP3    H139756   5.523   7.875  17.422 -1.1839  0.5078 -1.1608
 5187TIP3    H239757   5.644   7.885  17.332  0.6583  0.1684  1.1766
 5188TIP3   OH239758   8.114   1.864  17.915  0.5075  0.2701  0.0967
 5188TIP3    H139759   8.201   1.841  17.884  0.3316 -2.2808  1.2325
 5188TIP3    H239760   8.055   1.832  17.847  0.3889  1.0475 -0.1771
 5189TIP3   OH239761   6.690   8.468  17.698 -0.0584  0.5244 -0.0361
 5189TIP3    H139762   6.650   8.429  17.776  1.5266 -0.3551  0.3876
 5189TIP3    H239763   6.696   8.562  17.719  2.0186  0.0770  1.7483
 5190TIP3   OH239764   3.828   1.128  16.378 -0.1701 -0.0834  0.0529
 5190TIP3    H139765   3.904   1.124  16.436  1.0780 -0.2471 -1.5159
 5190TIP3    H239766   3.864   1.153  16.293 -1.9271  0.1349 -0.6793
 5191TIP3   OH239767   2.729   7.200  17.674 -0.1099  0.4504 -0.4808
 5191TIP3    H139768   2.740   7.115  17.632 -1.2494 -0.0969  0.2696
 5191TIP3    H239769   2.654   7.240  17.630  0.3622  1.0345 -0.7672
 5192TIP3   OH239770   5.734   2.106  16.977  0.1086 -0.2819 -0.5367
 5192TIP3    H139771   5.703   2.172  16.916 -0.7015  0.3027  0.4834
 5192TIP3    H239772   5.778   2.156  17.046  0.2588 -0.8674 -0.2038
 5193TIP3   OH239773   5.496   4.579  16.479  0.5095 -0.1540 -0.3065
 5193TIP3    H139774   5.417   4.527  16.491 -0.4849  1.5291  0.9503
 5193TIP3    H239775   5.565   4.529  16.521 -0.1455 -1.0406 -0.2688
 5194TIP3   OH239776   9.113   2.048  17.397  0.4485 -0.2773  0.4322
 5194TIP3    H139777   9.089   2.128  17.444 -0.4943  0.3448 -1.0242
 5194TIP3    H239778   9.067   1.978  17.444  1.9821 -0.1374  2.2538
 5195TIP3   OH239779   5.885   0.650  17.590  0.0773  0.1301 -0.2985
 5195TIP3    H139780   5.824   0.594  17.638  0.2034 -0.5070 -0.8633
 5195TIP3    H239781   5.841   0.735  17.585 -1.7246 -0.8140 -2.4521
 5196TIP3   OH239782   6.043   8.251  16.332 -0.7084  0.0352  0.0667
 5196TIP3    H139783   6.005   8.240  16.245 -0.7407  0.2137  0.0599
 5196TIP3    H239784   6.132   8.216  16.323 -0.1003  1.6525 -0.5098
 5197TIP3   OH239785   1.511   1.252  16.891 -0.7092  0.2381 -0.1870
 5197TIP3    H139786   1.417   1.246  16.881 -0.6992  0.2711 -0.3039
 5197TIP3    H239787   1.526   1.340  16.927 -0.5210  1.4348 -2.9369
 5198TIP3   OH239788   7.999   0.279  16.013  0.1805  0.1712 -0.3532
 5198TIP3    H139789   8.046   0.347  15.964  1.2929 -0.3738 -0.0826
 5198TIP3    H239790   7.999   0.203  15.955 -0.0548  0.0592 -0.2092
 5199TIP3   OH239791   7.571   0.315  16.708 -0.0123  0.0822  0.3017
 5199TIP3    H139792   7.620   0.274  16.637 -0.0396  0.1538  0.2405
 5199TIP3    H239793   7.484   0.332  16.669 -0.0470  0.0637  0.3717
 5200TIP3   OH239794   0.814   2.801  17.302 -0.2182  0.2974 -0.3118
 5200TIP3    H139795   0.729   2.764  17.276 -0.0716 -0.0663 -0.2808
 5200TIP3    H239796   0.853   2.734  17.358 -1.1103  1.6443  2.0382
 5201TIP3   OH239797   1.597   5.343  17.169 -0.0920  0.0154 -0.1746
 5201TIP3    H139798   1.575   5.433  17.146  1.5262  0.7822  1.0429
 5201TIP3    H239799   1.645   5.310  17.093 -1.4263 -0.1607 -0.9827
 5202TIP3   OH239800   8.817   6.140  17.674 -0.5379  0.8637 -0.1524
 5202TIP3    H139801   8.730   6.177  17.658 -1.0236  0.4388  1.2967
 5202TIP3    H239802   8.808   6.095  17.758  1.1117  0.8908  0.0702
 5203TIP3   OH239803   8.783   7.320  17.235 -0.0528 -0.1382  0.1371
 5203TIP3    H139804   8.860   7.339  17.289 -0.1086 -0.3023  0.2768
 5203TIP3    H239805   8.718   7.385  17.262 -0.3619 -0.7259  0.8587
 5204TIP3   OH239806   8.442   0.692  15.974 -0.0176 -0.4718  0.1092
 5204TIP3    H139807   8.450   0.745  15.895 -0.3132  1.1178  1.1102
 5204TIP3    H239808   8.525   0.645  15.981  0.7150  0.7519 -0.1830
 5205TIP3   OH239809   1.841   8.643  16.285  0.1569  0.4001  0.8034
 5205TIP3    H139810   1.782   8.617  16.215  0.8955  2.1326 -0.5507
 5205TIP3    H239811   1.926   8.608  16.259  0.6999  2.1364  0.1054
 5206TIP3   OH239812   6.132   0.533  17.545 -0.7831 -0.2420 -0.6919
 5206TIP3    H139813   6.201   0.599  17.543 -0.4843 -0.5096  0.3826
 5206TIP3    H239814   6.051   0.583  17.553 -0.6302  0.0270 -0.8087
 5207TIP3   OH239815   8.578   1.849  17.072  0.6252  0.0983  0.1619
 5207TIP3    H139816   8.556   1.917  17.135  0.4837  0.2965 -0.0975
 5207TIP3    H239817   8.517   1.778  17.090 -0.8828  0.9937 -1.1379
 5208TIP3   OH239818   0.671   2.157  17.355  0.3618 -0.1957 -0.6521
 5208TIP3    H139819   0.637   2.244  17.375  0.5138 -0.1134 -0.7536
 5208TIP3    H239820   0.657   2.147  17.261  0.6467 -0.1509 -0.6982
 5209TIP3   OH239821   0.182   0.200  16.807  0.2277 -0.5766 -0.0638
 5209TIP3    H139822   0.103   0.222  16.758 -0.6518 -1.3368  0.9923
 5209TIP3    H239823   0.190   0.270  16.872 -1.6512 -2.3524  2.2139
 5210TIP3   OH239824   0.001   2.813  15.930  0.6180  0.1001  0.0821
 5210TIP3    H139825  -0.065   2.882  15.930 -1.2340 -1.5746  0.3883
 5210TIP3    H239826   0.028   2.804  15.839  0.7700  1.1007  0.0217
 5211TIP3   OH239827   8.468   3.946  17.160  0.0711 -0.1300 -0.2256
 5211TIP3    H139828   8.380   3.923  17.131 -0.7236  3.0713 -0.7379
 5211TIP3    H239829   8.463   3.946  17.255 -0.4907  0.0375 -0.2529
 5212TIP3   OH239830   1.422   2.659  16.295 -0.2140 -0.1435  0.3026
 5212TIP3    H139831   1.517   2.670  16.283 -0.4424  1.3338 -0.3259
 5212TIP3    H239832   1.383   2.736  16.254 -1.6778 -0.4653  1.0168
 5213TIP3   OH239833   0.939   2.446  17.128 -0.3764 -0.4502  0.9917
 5213TIP3    H139834   0.917   2.494  17.048 -1.1347  1.9188  2.5021
 5213TIP3    H239835   1.018   2.488  17.160  0.7065 -2.2802  0.8478
 5214TIP3   OH239836   8.847   2.432  17.101 -0.4341  0.6961  0.1706
 5214TIP3    H139837   8.894   2.388  17.031  0.8799  2.1181  0.0959
 5214TIP3    H239838   8.837   2.366  17.170  0.5811  0.0203 -0.3125
 5215TIP3   OH239839   5.862   0.019  17.966  0.7937  0.3670 -0.1217
 5215TIP3    H139840   5.946  -0.026  17.955  0.7061 -0.3464  1.8141
 5215TIP3    H239841   5.820   0.012  17.880  2.0048 -0.7575 -0.6492
 5216TIP3   OH239842   0.854   3.665  17.481 -0.6304 -0.6148  0.1220
 5216TIP3    H139843   0.800   3.689  17.557  1.1848 -2.1650  2.0418
 5216TIP3    H239844   0.884   3.576  17.501 -0.4426 -1.2605 -2.6881
 5217TIP3   OH239845   5.469   1.805  17.701 -0.1543 -0.2530 -0.3491
 5217TIP3    H139846   5.539   1.862  17.733  1.0055 -1.6302 -0.2913
 5217TIP3    H239847   5.421   1.858  17.639 -0.4350  1.4445  1.2274
 5218TIP3   OH239848   0.284   1.647  16.301 -0.6311 -0.1978  0.0657
 5218TIP3    H139849   0.278   1.738  16.328  0.6485 -0.6555  2.1227
 5218TIP3    H239850   0.214   1.603  16.349 -2.7986 -0.0311 -2.6898
 5219TIP3   OH239851   5.838   9.180  17.652 -0.3013 -0.3776  0.2549
 5219TIP3    H139852   5.828   9.199  17.559 -0.4412 -1.2764  0.0770
 5219TIP3    H239853   5.788   9.100  17.666  2.3764 -2.1531  0.3974
 5220TIP3   OH239854   3.116   3.535  17.349  0.3197 -0.1103 -0.2681
 5220TIP3    H139855   3.036   3.585  17.365  0.6989  0.2520  0.5841
 5220TIP3    H239856   3.163   3.539  17.432  1.8237  0.7646 -1.1269
 5221TIP3   OH239857   5.243   0.426  16.941  0.2800  0.2007  0.7035
 5221TIP3    H139858   5.305   0.405  17.011  1.7258  2.9866  0.3814
 5221TIP3    H239859   5.290   0.487  16.885 -1.6647 -0.1448 -1.4501
 5222TIP3   OH239860   9.005   5.219  17.593  0.2813 -0.5913  0.0272
 5222TIP3    H139861   9.038   5.223  17.503  0.9314  2.0608  0.2984
 5222TIP3    H239862   9.071   5.170  17.641  2.4038  1.9409 -0.0904
 5223TIP3   OH239863   3.709   8.690  16.308 -0.5771 -0.2227  0.0438
 5223TIP3    H139864   3.691   8.597  16.298 -1.2285  0.0553 -1.7195
 5223TIP3    H239865   3.799   8.701  16.278 -0.3654 -0.3358  0.6301
 5224TIP3   OH239866   1.958   4.864  16.613 -0.0915 -0.1694 -0.5047
 5224TIP3    H139867   2.038   4.896  16.571  0.3267 -0.6523 -0.0912
 5224TIP3    H239868   1.937   4.782  16.569 -0.2630 -0.1277 -0.5015
 5225TIP3   OH239869   4.315   2.866  17.695 -0.2627 -0.3016 -0.4656
 5225TIP3    H139870   4.282   2.836  17.610 -1.6013  1.3624 -0.5834
 5225TIP3    H239871   4.238   2.864  17.752  0.6052 -1.3253  0.7314
 5226TIP3   OH239872   1.148   0.806  16.164  0.3504  0.4284 -0.5584
 5226TIP3    H139873   1.120   0.824  16.074 -0.9045  0.7600 -0.1322
 5226TIP3    H239874   1.098   0.729  16.190  1.2598 -0.1118 -0.3851
 5227TIP3   OH239875   4.066   0.581  17.438 -0.3176 -0.3845  0.0380
 5227TIP3    H139876   4.009   0.513  17.475  0.7060 -0.1823  2.1217
 5227TIP3    H239877   4.146   0.536  17.415 -0.5774 -0.3157 -1.0731
 5228TIP3   OH239878   0.881   4.831  17.224  0.4409  0.4577 -0.1462
 5228TIP3    H139879   0.920   4.746  17.203 -0.3400 -0.0889  0.5584
 5228TIP3    H239880   0.818   4.847  17.154  1.6465  1.2018 -1.1198
 5229TIP3   OH239881   5.281   7.034  17.317  0.8201  0.2789 -0.3119
 5229TIP3    H139882   5.227   6.966  17.278 -0.1935  0.1650  1.1776
 5229TIP3    H239883   5.217   7.099  17.349  1.4354 -0.1897  2.1212
 5230TIP3   OH239884   0.370   5.535  17.017  0.3151 -0.1535  0.0052
 5230TIP3    H139885   0.393   5.618  17.059 -1.3578  0.4372 -0.2085
 5230TIP3    H239886   0.345   5.559  16.928  0.2516 -0.9556 -0.1977
 5231TIP3   OH239887   8.342   8.832  17.154 -0.3180  0.6709  0.1418
 5231TIP3    H139888   8.278   8.902  17.144  0.4604  1.3168 -0.5109
 5231TIP3    H239889   8.414   8.872  17.203 -0.9094 -0.3976  2.0143
 5232TIP3   OH239890   0.188   3.236  16.108 -0.3119  0.3998 -0.2304
 5232TIP3    H139891   0.100   3.200  16.118 -0.3557  0.3352 -0.8239
 5232TIP3    H239892   0.234   3.173  16.052 -0.8604  1.9649 -2.6049
 5233TIP3   OH239893   0.690   8.702  16.474 -0.1723 -0.1945  0.1136
 5233TIP3    H139894   0.610   8.732  16.519 -0.9519 -0.8834 -0.7751
 5233TIP3    H239895   0.698   8.610  16.499  1.0359  0.1715  1.1500
 5234TIP3   OH239896   3.622   2.230  16.304  0.1774  0.0251 -0.5731
 5234TIP3    H139897   3.618   2.164  16.373  1.2733  2.3845  1.9308
 5234TIP3    H239898   3.716   2.243  16.288 -0.0033  1.0881 -0.8592
 5235TIP3   OH239899   4.025   5.590  16.340  0.2867 -0.3417 -0.0761
 5235TIP3    H139900   4.010   5.643  16.262 -0.8722 -0.7274 -0.1346
 5235TIP3    H239901   4.120   5.594  16.354  0.1457  2.5918  0.5504
 5236TIP3   OH239902   4.971   7.563  16.802  0.4866 -0.4373  0.4489
 5236TIP3    H139903   4.972   7.531  16.893  1.0997 -0.7221  0.3411
 5236TIP3    H239904   4.880   7.551  16.775  0.0391  0.6549  1.3733
 5237TIP3   OH239905   4.868   7.152  16.837 -0.5565 -0.3204  0.2426
 5237TIP3    H139906   4.928   7.223  16.815 -0.4295 -0.4538  0.1549
 5237TIP3    H239907   4.795   7.164  16.776 -0.3058 -0.5591 -0.1087
 5238TIP3   OH239908   8.956   2.971  15.894  0.6659  0.9274 -0.6911
 5238TIP3    H139909   8.918   3.019  15.820  0.4297  2.4892  0.3952
 5238TIP3    H239910   8.882   2.931  15.938  0.2974  3.0662  0.7896
 5239TIP3   OH239911   4.089   4.359  16.568  0.0810  0.5636 -0.2824
 5239TIP3    H139912   4.072   4.413  16.491 -2.1162  0.9765  0.4434
 5239TIP3    H239913   4.034   4.281  16.556 -0.7522  0.9099  1.1201
 5240TIP3   OH239914   6.794   3.836  17.307 -0.0550 -0.2136  0.1022
 5240TIP3    H139915   6.744   3.781  17.368 -0.9840 -0.2078 -0.6152
 5240TIP3    H239916   6.883   3.802  17.311 -0.5819 -1.7259 -0.2459
 5241TIP3   OH239917   8.712   2.134  17.703 -0.0962 -0.1247 -0.1727
 5241TIP3    H139918   8.693   2.162  17.613 -0.9902 -1.5274 -0.4587
 5241TIP3    H239919   8.634   2.158  17.753 -1.8885 -3.7941 -0.8667
 5242TIP3   OH239920   8.711   7.720  16.909 -0.5914 -0.4793  0.0329
 5242TIP3    H139921   8.733   7.652  16.845 -1.4709 -0.9089  0.1721
 5242TIP3    H239922   8.796   7.749  16.944 -0.1600 -0.8436 -0.7033
 5243TIP3   OH239923   8.459   3.932  17.811  0.3325  0.0344 -0.4397
 5243TIP3    H139924   8.540   3.919  17.763  1.3990 -0.5187  1.4174
 5243TIP3    H239925   8.414   3.848  17.805  0.9937 -0.4003  0.4137
 5244TIP3   OH239926   0.326   8.154  16.117 -0.1470 -0.2194  0.0219
 5244TIP3    H139927   0.351   8.243  16.143 -0.2109 -0.6341  1.6120
 5244TIP3    H239928   0.349   8.149  16.025  2.6903  0.4670  0.5851
 5245TIP3   OH239929   7.827   3.977  17.696  0.9954  0.0987 -0.0230
 5245TIP3    H139930   7.768   4.043  17.661 -2.3210 -1.4529  2.1588
 5245TIP3    H239931   7.853   4.010  17.782 -0.3986 -1.1665  0.9308
 5246TIP3   OH239932   0.886   5.135  16.987  0.7654  0.1778  0.0922
 5246TIP3    H139933   0.886   5.224  17.022 -2.5506 -0.0668  1.0613
 5246TIP3    H239934   0.895   5.147  16.892 -2.8549  1.9740 -0.2071
 5247TIP3   OH239935   6.754   6.888  17.491  0.0446  0.1186 -0.2790
 5247TIP3    H139936   6.782   6.978  17.478 -0.5580  0.1915 -1.2023
 5247TIP3    H239937   6.658   6.893  17.491 -0.1897 -0.9192 -4.2457
 5248TIP3   OH239938   3.940   7.610  15.976 -0.1476 -0.0189 -0.3266
 5248TIP3    H139939   3.885   7.652  16.042 -0.6605 -1.5180  0.2365
 5248TIP3    H239940   3.954   7.678  15.909 -1.8437  0.6895  0.0003
 5249TIP3   OH239941   4.154   7.565  16.131  0.4411  0.9586  1.2179
 5249TIP3    H139942   4.079   7.605  16.087  1.9937  0.9498 -1.6995
 5249TIP3    H239943   4.174   7.487  16.078  1.4039 -0.0828  3.0054
 5250TIP3   OH239944   5.278   0.219  17.634 -0.6725 -0.3052  0.6125
 5250TIP3    H139945   5.244   0.183  17.716  1.5708 -1.8450  0.9903
 5250TIP3    H239946   5.267   0.148  17.571 -1.2524  0.4189 -0.1159
 5251TIP3   OH239947   9.118   5.617  17.424 -0.1322  0.0131  0.4461
 5251TIP3    H139948   9.195   5.638  17.476  0.4595 -0.4007 -0.2371
 5251TIP3    H239949   9.153   5.594  17.338 -1.0344  0.0048  0.0705
 5252TIP3   OH239950   1.356   3.990  16.639  0.2025  0.2302 -0.2915
 5252TIP3    H139951   1.373   4.070  16.589 -0.7412  2.0968  2.1656
 5252TIP3    H239952   1.278   3.953  16.600  0.1119  1.0332 -0.8944
 5253TIP3   OH239953   8.917   5.184  17.146 -0.1259  0.4593  0.0511
 5253TIP3    H139954   8.921   5.226  17.233 -0.8527 -1.0824  0.8739
 5253TIP3    H239955   8.827   5.196  17.118 -0.4282 -0.7513  0.4338
 5254TIP3   OH239956   6.057   7.215  16.950  0.6932 -0.5588 -0.5338
 5254TIP3    H139957   6.109   7.167  16.885  0.6155 -0.0289 -0.9925
 5254TIP3    H239958   6.105   7.297  16.964 -1.5727  1.4582 -3.3986
 5255TIP3   OH239959   2.335   1.881  16.340  0.5120  0.9927  0.1231
 5255TIP3    H139960   2.327   1.973  16.365  0.7702  0.7047  1.3083
 5255TIP3    H239961   2.428   1.870  16.320  0.4998  0.9627  0.0827
 5256TIP3   OH239962   7.561   4.979  17.533 -0.4301  0.0707 -0.0229
 5256TIP3    H139963   7.607   5.005  17.612 -0.5666  0.8085 -0.1770
 5256TIP3    H239964   7.468   4.990  17.555 -0.4952 -0.4168 -0.0485
 5257TIP3   OH239965   0.674   5.780  16.168  0.3870 -0.0376  0.0970
 5257TIP3    H139966   0.647   5.733  16.089  1.0348 -0.0962 -0.0937
 5257TIP3    H239967   0.601   5.768  16.229  0.0032 -0.2268 -0.3919
 5258TIP3   OH239968   7.313   0.132  18.047  0.1230 -0.0244  0.1982
 5258TIP3    H139969   7.313   0.167  18.136 -0.2111 -0.3288  0.3187
 5258TIP3    H239970   7.406   0.126  18.023  0.1835  1.8152 -0.1711
 5259TIP3   OH239971   1.957   3.574  17.488 -0.0323  0.7112 -1.1225
 5259TIP3    H139972   1.887   3.628  17.525  0.3765  0.7480 -0.3812
 5259TIP3    H239973   1.925   3.484  17.498  0.2843  0.6896 -0.2016
 5260TIP3   OH239974   2.972   3.849  16.918  0.2792  0.5142 -0.4018
 5260TIP3    H139975   3.036   3.786  16.950  1.1805  0.8827 -1.4642
 5260TIP3    H239976   2.946   3.816  16.832 -1.0422  0.3208  0.0459
 5261TIP3   OH239977   0.700   4.488  17.553  0.4700  0.0690 -0.0262
 5261TIP3    H139978   0.690   4.393  17.549  2.2983 -0.1690  0.4146
 5261TIP3    H239979   0.648   4.514  17.629  0.4898 -0.6542  0.2431
 5262TIP3   OH239980   2.192   1.390  16.358 -0.2732  0.3174 -0.4704
 5262TIP3    H139981   2.248   1.393  16.281  0.2555 -2.3522 -0.2935
 5262TIP3    H239982   2.154   1.302  16.357 -0.9390  0.4994  1.8331
 5263TIP3   OH239983   6.437   6.805  15.757 -0.1767 -0.2026 -0.5519
 5263TIP3    H139984   6.434   6.722  15.709 -0.9858 -0.8986  0.6395
 5263TIP3    H239985   6.508   6.794  15.820 -1.7744 -0.9916  1.2359
 5264TIP3   OH239986   2.375   6.727  17.252 -0.0772  0.1537 -0.1544
 5264TIP3    H139987   2.341   6.697  17.337  1.0626  0.5979  0.4868
 5264TIP3    H239988   2.470   6.730  17.264  0.1545 -0.3246 -1.6472
 5265TIP3   OH239989   0.037   2.067  15.841 -0.1283 -0.2154  0.4104
 5265TIP3    H139990   0.094   2.084  15.916 -0.3515  0.0129  0.5338
 5265TIP3    H239991   0.096   2.061  15.767 -0.0919  2.6572  0.0853
 5266TIP3   OH239992   6.451   8.025  17.036  0.1696  0.5271  0.1524
 5266TIP3    H139993   6.453   7.940  17.081  0.4942  0.5181  0.1175
 5266TIP3    H239994   6.409   8.083  17.099  3.5839  1.3437  1.9203
 5267TIP3   OH239995   1.671   1.726  17.390  0.4428  0.2612 -0.1612
 5267TIP3    H139996   1.724   1.669  17.445  0.3952  1.3673  1.0732
 5267TIP3    H239997   1.621   1.780  17.451  0.2085  1.3734 -1.2797
 5268TIP3   OH239998   6.449   2.498  18.050 -0.3348  0.0062  0.0878
 5268TIP3    H139999   6.395   2.512  17.973 -0.3959 -2.1909 -0.3367
 5268TIP3    H240000   6.535   2.474  18.015 -0.0919 -0.0634  0.7147
 5269TIP3   OH240001   4.260   7.891  16.333  0.4298 -0.4303 -0.1895
 5269TIP3    H140002   4.187   7.918  16.389  0.4336 -1.0601  0.1213
 5269TIP3    H240003   4.276   7.800  16.356  0.2902 -0.7771 -1.3647
 5270TIP3   OH240004   1.390   7.003  16.314 -0.2716 -0.4842 -0.1959
 5270TIP3    H140005   1.408   6.965  16.228 -0.6625 -4.5956  1.2841
 5270TIP3    H240006   1.295   7.013  16.316 -0.5466 -2.5444  0.3641
 5271TIP3   OH240007   3.085   8.672  16.713 -0.1536  0.2972 -0.0725
 5271TIP3    H140008   3.159   8.692  16.770  0.2010  0.2975 -0.5222
 5271TIP3    H240009   3.021   8.628  16.769 -0.0824  0.8679  0.4655
 5272TIP3   OH240010   6.677   5.434  16.910  0.2000  0.2179  0.5040
 5272TIP3    H140011   6.610   5.375  16.874 -0.5690  0.7796  0.9833
 5272TIP3    H240012   6.689   5.500  16.842  0.8541 -0.3072  0.0881
 5273TIP3   OH240013   7.553   2.591  16.597  0.1853 -0.4444 -0.0935
 5273TIP3    H140014   7.517   2.530  16.532  1.5200  0.4849 -1.7983
 5273TIP3    H240015   7.552   2.542  16.679  0.6769 -2.5851 -1.2879
 5274TIP3   OH240016   3.073   3.940  15.636 -0.5203 -0.2492  0.2277
 5274TIP3    H140017   3.120   4.023  15.650 -1.4945  0.4639 -0.6017
 5274TIP3    H240018   3.141   3.879  15.607  0.1797  0.2996  0.6728
 5275TIP3   OH240019   5.679   6.186  17.756 -0.0540  0.2199 -0.0565
 5275TIP3    H140020   5.755   6.212  17.807 -0.0991  1.6799 -0.6750
 5275TIP3    H240021   5.709   6.114  17.700  1.8114  2.6922 -2.5074
 5276TIP3   OH240022   1.641   3.552  17.018 -0.2139  0.1591  0.3721
 5276TIP3    H140023   1.685   3.636  17.008  1.3145 -0.8028 -1.5863
 5276TIP3    H240024   1.669   3.520  17.104  0.0318  1.1618  0.6721
 5277TIP3   OH240025   2.093   5.271  16.487 -0.7523 -0.1501  0.2574
 5277TIP3    H140026   2.157   5.307  16.425 -0.9672 -0.2350 -0.0179
 5277TIP3    H240027   2.137   5.274  16.572 -0.4094 -0.1380  0.0834
 5278TIP3   OH240028   4.455   0.325  16.498  0.2189 -0.0340 -0.5459
 5278TIP3    H140029   4.480   0.383  16.427  0.7560  1.6391  0.9402
 5278TIP3    H240030   4.538   0.295  16.535  0.0941  1.8540  1.4773
 5279TIP3   OH240031   7.577   7.937  16.259 -0.0697 -0.5020 -0.1560
 5279TIP3    H140032   7.612   8.022  16.288 -1.1785 -0.2517  0.4852
 5279TIP3    H240033   7.487   7.956  16.232 -0.5091 -1.5736  0.5100
 5280TIP3   OH240034   1.809   5.344  17.666  0.1735 -0.0051  0.4010
 5280TIP3    H140035   1.736   5.337  17.728 -0.1540 -1.1660 -0.0906
 5280TIP3    H240036   1.812   5.258  17.623  0.7026  0.6107 -0.8328
 5281TIP3   OH240037   8.528   6.832  16.168  0.5558  0.0134  0.2351
 5281TIP3    H140038   8.435   6.812  16.164  0.3805  0.9304 -0.9726
 5281TIP3    H240039   8.532   6.928  16.172  1.4498 -0.0150  0.2212
 5282TIP3   OH240040   4.945   7.356  17.511 -0.3780 -0.4181  0.2725
 5282TIP3    H140041   4.942   7.436  17.459 -0.0174 -1.1987 -0.9874
 5282TIP3    H240042   4.914   7.287  17.452 -0.0931 -1.3141  1.1334
 5283TIP3   OH240043   3.436   3.834  16.860 -0.8203  0.1875  0.6169
 5283TIP3    H140044   3.414   3.908  16.918  0.6426  0.5349  0.7580
 5283TIP3    H240045   3.352   3.789  16.848 -1.8239  1.9927  0.3357
 5284TIP3   OH240046   4.368   0.051  16.210 -0.3983  0.0168  0.1052
 5284TIP3    H140047   4.439   0.035  16.271 -1.0155 -1.4463  0.4778
 5284TIP3    H240048   4.392   0.001  16.132 -0.0111  1.2236 -0.5856
 5285TIP3   OH240049   5.899   0.828  17.349  0.2417  0.4191  0.1171
 5285TIP3    H140050   5.815   0.872  17.347  0.2306  0.3707 -1.0658
 5285TIP3    H240051   5.935   0.848  17.435 -0.1500  2.0012 -0.0604
 5286TIP3   OH240052   8.427   1.469  16.677  0.7761  0.0167 -0.2446
 5286TIP3    H140053   8.407   1.555  16.640  2.6068  0.1847 -0.9529
 5286TIP3    H240054   8.479   1.488  16.755 -2.0989 -0.3828  1.9331
 5287TIP3   OH240055   1.098   7.347  16.259  0.0336  0.5478 -0.0090
 5287TIP3    H140056   1.051   7.280  16.308  1.0446  1.2914  2.1180
 5287TIP3    H240057   1.082   7.428  16.308  0.2406  1.5513 -1.5365
 5288TIP3   OH240058   5.874   8.212  16.879 -0.2117 -0.1596  0.1143
 5288TIP3    H140059   5.892   8.120  16.859 -0.0283  0.2186 -1.6435
 5288TIP3    H240060   5.953   8.243  16.924 -1.0134 -1.2897  2.4857
 5289TIP3   OH240061   5.740   6.464  16.415  0.4171  0.4852 -0.1116
 5289TIP3    H140062   5.688   6.515  16.354 -0.5422 -0.0588  0.2376
 5289TIP3    H240063   5.805   6.420  16.360  0.8157  1.5268 -0.4918
 5290TIP3   OH240064   0.147   1.051  17.045  0.0303  0.0915 -0.1958
 5290TIP3    H140065   0.113   1.121  16.990 -0.3040  0.8477  0.9229
 5290TIP3    H240066   0.135   1.083  17.135  0.6257 -1.0552  0.3221
 5291TIP3   OH240067   6.564   2.311  17.199  0.1428  0.1055 -0.4684
 5291TIP3    H140068   6.477   2.340  17.172 -0.0238  0.9081  0.8646
 5291TIP3    H240069   6.547   2.236  17.256  0.3939 -0.3204 -0.9383
 5292TIP3   OH240070   5.114   8.880  17.251  0.3921 -0.2974 -0.4625
 5292TIP3    H140071   5.140   8.860  17.341  1.3468 -0.6842 -0.8100
 5292TIP3    H240072   5.146   8.969  17.237 -0.9835  0.3016  0.0173
 5293TIP3   OH240073   4.830   7.035  15.631 -0.4194 -0.0224 -0.3317
 5293TIP3    H140074   4.917   6.998  15.646 -0.2106 -0.1927 -1.8032
 5293TIP3    H240075   4.821   7.036  15.535 -2.3635 -0.7663 -0.1914
 5294TIP3   OH240076   1.008   8.404  17.686  0.3315 -0.8046 -0.1853
 5294TIP3    H140077   0.985   8.449  17.767 -0.8458 -1.8484  0.0948
 5294TIP3    H240078   1.081   8.454  17.650 -1.1890  1.5757 -0.1259
 5295TIP3   OH240079   4.197   3.196  17.048  0.2000 -0.1343  0.3771
 5295TIP3    H140080   4.126   3.139  17.016  1.1156 -0.7750 -0.5984
 5295TIP3    H240081   4.152   3.274  17.079 -0.8450  0.5248 -2.4409
 5296TIP3   OH240082   2.730   7.777  16.619  0.1542 -0.2670  0.5393
 5296TIP3    H140083   2.643   7.748  16.592  0.0567 -0.5211  1.1129
 5296TIP3    H240084   2.769   7.700  16.661  0.1854  0.1983  1.3832
 5297TIP3   OH240085   3.869   1.464  15.976  0.5924  0.3210  0.4262
 5297TIP3    H140086   3.820   1.389  16.012 -2.7887  2.7658  1.4933
 5297TIP3    H240087   3.900   1.434  15.891 -0.0697 -2.4582  1.0666
 5298TIP3   OH240088   2.298   3.562  17.092 -0.3618  0.0572 -0.1231
 5298TIP3    H140089   2.347   3.624  17.037 -1.0115 -2.2257 -3.6002
 5298TIP3    H240090   2.349   3.555  17.172  0.9262  3.2893 -0.5063
 5299TIP3   OH240091   5.055   0.209  17.199 -0.7746  0.5746  0.0993
 5299TIP3    H140092   5.108   0.264  17.257 -1.8720  1.1841  0.5380
 5299TIP3    H240093   5.053   0.255  17.116  0.3973 -0.0636 -0.3081
 5300TIP3   OH240094   0.122   4.768  17.306 -0.3753 -0.2403 -0.3794
 5300TIP3    H140095   0.170   4.706  17.361  0.1208 -0.7702 -1.3812
 5300TIP3    H240096   0.163   4.759  17.219 -1.4705  0.2001 -0.9536
 5301TIP3   OH240097   3.339   5.649  16.153 -0.2438 -0.0505  0.3738
 5301TIP3    H140098   3.342   5.605  16.238 -0.4266 -0.9352 -0.0711
 5301TIP3    H240099   3.254   5.625  16.117 -0.3851  0.7464  0.1525
 5302TIP3   OH240100   1.068   4.726  16.465 -0.4175  0.7458 -0.1389
 5302TIP3    H140101   1.036   4.673  16.391 -0.9972  3.5543 -2.0585
 5302TIP3    H240102   0.988   4.752  16.511 -0.1966  0.5406  0.3607
 5303TIP3   OH240103   4.519   7.517  16.810  0.0931 -0.6322  0.0114
 5303TIP3    H140104   4.457   7.465  16.759  0.6591  0.0181 -1.4126
 5303TIP3    H240105   4.494   7.503  16.901 -0.4863 -2.4532 -0.3936
 5304TIP3   OH240106   6.082   3.428  16.899  0.6862 -0.3073 -0.0086
 5304TIP3    H140107   6.163   3.464  16.935  0.9292 -1.2925  0.4472
 5304TIP3    H240108   6.060   3.488  16.828  0.5069  1.3538  1.3754
 5305TIP3   OH240109   4.836   7.455  17.035  0.0542  0.2031  0.6007
 5305TIP3    H140110   4.791   7.370  17.031  1.4183 -0.5045 -1.1980
 5305TIP3    H240111   4.770   7.516  17.066 -0.7351 -1.6450  2.8623
 5306TIP3   OH240112   6.562   7.247  17.112 -0.2492 -0.0904 -0.2324
 5306TIP3    H140113   6.528   7.158  17.109 -0.3361 -0.0452 -1.9138
 5306TIP3    H240114   6.503   7.297  17.055 -0.0450  0.9774  0.4744
 5307TIP3   OH240115   2.182   5.306  17.376 -0.2671 -0.4279 -0.2812
 5307TIP3    H140116   2.275   5.285  17.369 -0.0920 -0.3296  1.4040
 5307TIP3    H240117   2.172   5.388  17.327  0.8064  0.2564  0.6187
 5308TIP3   OH240118   1.607   5.324  16.769  0.4812 -0.1503  0.0022
 5308TIP3    H140119   1.647   5.270  16.837  0.2909  0.6914  0.8096
 5308TIP3    H240120   1.515   5.299  16.769  0.6272 -0.7168 -0.5152
 5309TIP3   OH240121   0.387   0.944  16.690 -0.7733  0.3410 -0.0716
 5309TIP3    H140122   0.332   1.022  16.695 -0.6568  0.3719  0.9743
 5309TIP3    H240123   0.473   0.974  16.720 -0.6111 -0.0886 -0.1064
 5310TIP3   OH240124   3.906   2.823  15.825  0.4793 -0.3990 -0.3723
 5310TIP3    H140125   3.822   2.799  15.864 -0.6171  0.8746 -1.7901
 5310TIP3    H240126   3.931   2.745  15.774 -0.1771 -0.5708 -0.4527
 5311TIP3   OH240127   6.239   5.551  17.709 -0.2344 -0.7232  0.0140
 5311TIP3    H140128   6.320   5.499  17.718  0.1267 -0.5196 -1.7280
 5311TIP3    H240129   6.173   5.487  17.681 -0.0646 -0.4909 -0.9776
 5312TIP3   OH240130   2.442   2.264  15.924  0.7613  0.2951  0.1780
 5312TIP3    H140131   2.502   2.255  15.998  1.0436  0.3253 -0.0441
 5312TIP3    H240132   2.370   2.204  15.944  0.6643  0.5625  0.6436
 5313TIP3   OH240133   1.124   7.006  16.264  0.2324  0.1242  0.4016
 5313TIP3    H140134   1.071   7.064  16.318 -0.3242  0.9770 -1.0026
 5313TIP3    H240135   1.061   6.941  16.230  0.0695  1.0360 -1.1315
 5314TIP3   OH240136   5.848   3.930  16.646 -0.3128  0.5934 -0.0177
 5314TIP3    H140137   5.786   3.883  16.701 -1.2930  1.8207 -0.0250
 5314TIP3    H240138   5.823   3.907  16.557  0.2187 -0.0912  0.0023
 5315TIP3   OH240139   5.621   5.493  17.819  0.1680 -0.2805 -0.1011
 5315TIP3    H140140   5.654   5.435  17.888 -0.3900  0.8511  1.1553
 5315TIP3    H240141   5.665   5.577  17.835  0.0908 -0.0149 -1.1922
 5316TIP3   OH240142   8.054   7.399  15.925 -0.0939  0.7376  0.8724
 5316TIP3    H140143   7.986   7.338  15.899  0.0313  0.3824  1.3726
 5316TIP3    H240144   8.008   7.467  15.974 -0.1963  0.9148  0.5338
 5317TIP3   OH240145   3.910   3.983  15.881  0.2827 -0.4505  0.2014
 5317TIP3    H140146   3.878   3.918  15.819 -0.3790 -0.7236  0.8159
 5317TIP3    H240147   3.996   3.951  15.907  0.2231 -0.7536  0.0292
 5318TIP3   OH240148   4.322   8.210  17.335  0.0063  0.3361  0.4690
 5318TIP3    H140149   4.321   8.245  17.424 -0.4300 -0.7113  0.8842
 5318TIP3    H240150   4.255   8.261  17.289 -0.8739 -0.1803  1.1629
 5319TIP3   OH240151   1.532   7.482  17.734  0.1533 -0.5354  0.2246
 5319TIP3    H140152   1.532   7.577  17.741  0.9750 -0.5590  0.6415
 5319TIP3    H240153   1.440   7.457  17.748  0.3131  0.0181  2.6839
 5320TIP3   OH240154   6.442   1.316  17.387  0.1437  0.3579  0.2640
 5320TIP3    H140155   6.441   1.411  17.374 -1.3536  0.4939  1.1433
 5320TIP3    H240156   6.362   1.285  17.346  0.1412 -0.4032  0.8314
 5321TIP3   OH240157   7.809   1.753  16.224  0.2020 -0.1637  0.3186
 5321TIP3    H140158   7.803   1.786  16.313 -1.6812 -0.3609  0.2969
 5321TIP3    H240159   7.722   1.768  16.186  0.6711 -0.9540 -1.1751
 5322TIP3   OH240160   8.941   0.114  15.638 -0.0763  0.4031  0.3909
 5322TIP3    H140161   8.926   0.195  15.688 -0.2982  0.5816  0.0386
 5322TIP3    H240162   9.020   0.131  15.587  0.8169 -0.1920  1.5248
 5323TIP3   OH240163   1.164   2.559  17.986  1.1358  0.0725 -0.2891
 5323TIP3    H140164   1.133   2.504  18.059  0.9422 -0.1325 -0.5243
 5323TIP3    H240165   1.115   2.528  17.910  0.0011  1.5124 -0.1683
 5324TIP3   OH240166   4.783   2.625  17.181  0.4348  0.4162 -0.6666
 5324TIP3    H140167   4.861   2.585  17.142  1.9402  0.3542  2.1021
 5324TIP3    H240168   4.715   2.560  17.172  1.1667 -0.2376 -1.6662
 5325TIP3   OH240169   7.289   5.893  16.442  0.0359 -0.0892  0.0591
 5325TIP3    H140170   7.365   5.920  16.391 -0.7581  0.7751 -0.6944
 5325TIP3    H240171   7.237   5.972  16.452 -2.0503 -1.1518 -1.6612
 5326TIP3   OH240172   1.304   8.382  16.076  0.1036  0.0644  0.2834
 5326TIP3    H140173   1.347   8.301  16.047 -2.1789 -0.2590 -2.8245
 5326TIP3    H240174   1.212   8.358  16.084 -0.4694  2.0974  0.3420
 5327TIP3   OH240175   0.385   8.668  17.802  0.6228 -0.0534  0.2042
 5327TIP3    H140176   0.366   8.703  17.715 -0.5540 -0.4893  0.2686
 5327TIP3    H240177   0.300   8.656  17.842  1.1598  0.2926  1.4917
 5328TIP3   OH240178   4.679   6.657  16.716 -0.2742 -0.1077  0.6661
 5328TIP3    H140179   4.743   6.663  16.787 -0.1653  0.3581  0.5336
 5328TIP3    H240180   4.719   6.707  16.644 -1.2037  1.0069  0.9000
 5329TIP3   OH240181   4.369   7.311  16.685 -0.0773  0.3494 -0.2759
 5329TIP3    H140182   4.371   7.346  16.596  1.1987 -1.2364 -0.9112
 5329TIP3    H240183   4.300   7.244  16.683  1.2368 -1.0370 -0.6453
 5330TIP3   OH240184   6.875   1.665  17.203  0.2991  0.1569 -0.5350
 5330TIP3    H140185   6.887   1.667  17.298  1.9277 -0.8778 -0.6716
 5330TIP3    H240186   6.780   1.654  17.192  0.0019  0.8624  0.9314
 5331TIP3   OH240187   5.312   6.854  16.081 -0.4027 -0.2686  0.1886
 5331TIP3    H140188   5.219   6.876  16.069 -0.4379  0.1581  1.1576
 5331TIP3    H240189   5.311   6.762  16.105 -0.8596  0.3848  3.0704
 5332TIP3   OH240190   6.553   7.518  15.796 -0.5330  0.4551 -0.1982
 5332TIP3    H140191   6.504   7.533  15.715 -2.7988 -2.0202  0.5547
 5332TIP3    H240192   6.501   7.562  15.863 -0.6219 -0.4733  0.3552
 5333TIP3   OH240193   8.734   0.870  17.144  0.3851 -0.4608 -0.3142
 5333TIP3    H140194   8.762   0.940  17.084 -2.7108  0.7164 -0.5666
 5333TIP3    H240195   8.807   0.860  17.205  0.8118  3.3857  0.0500
 5334TIP3   OH240196   8.933   8.612  16.783 -0.3233  0.1756 -0.1355
 5334TIP3    H140197   9.016   8.629  16.739  1.0173 -0.7658  1.9178
 5334TIP3    H240198   8.930   8.516  16.793 -1.8752  0.1449 -0.5067
 5335TIP3   OH240199   3.907   9.041  17.155 -0.0686 -0.7471 -0.5259
 5335TIP3    H140200   3.872   9.037  17.066 -1.1425 -1.2457 -0.0980
 5335TIP3    H240201   3.988   8.990  17.151  0.5564  0.2977 -1.5001
 5336TIP3   OH240202   3.096   8.134  16.821 -0.0050  0.1627 -0.6367
 5336TIP3    H140203   3.011   8.178  16.824  1.1688  2.5374 -0.1192
 5336TIP3    H240204   3.144   8.179  16.752  0.8453 -1.2113 -0.9858
 5337TIP3   OH240205   4.593   4.851  17.548 -0.0938 -0.0968  0.1120
 5337TIP3    H140206   4.615   4.780  17.608 -1.5745 -0.4278  0.3054
 5337TIP3    H240207   4.509   4.884  17.579  1.1430  2.6373  0.7884
 5338TIP3   OH240208   0.424   4.382  17.699  0.0498  0.3608 -0.3008
 5338TIP3    H140209   0.475   4.303  17.680 -0.7470 -0.8109  2.0646
 5338TIP3    H240210   0.490   4.447  17.726  0.6904  0.4874 -2.0790
 5339TIP3   OH240211   6.325   6.422  17.775  0.0348 -0.3086 -0.0339
 5339TIP3    H140212   6.328   6.371  17.695 -1.7577 -0.4757 -0.0202
 5339TIP3    H240213   6.274   6.500  17.753 -0.4506 -0.3390  0.9172
 5340TIP3   OH240214   2.639   4.949  17.510  0.5614  0.2308 -0.1213
 5340TIP3    H140215   2.608   5.033  17.477 -0.6356  1.6562  4.0207
 5340TIP3    H240216   2.730   4.965  17.537  0.0527  0.6035  1.5265
 5341TIP3   OH240217   8.114   4.044  16.369  0.1017 -0.4953  0.5743
 5341TIP3    H140218   8.061   4.101  16.425  0.3041  0.5300 -0.2492
 5341TIP3    H240219   8.068   3.960  16.371 -0.2978 -0.2681  1.6798
 5342TIP3   OH240220   4.834   5.810  17.536  0.0560 -0.0222  0.2634
 5342TIP3    H140221   4.882   5.777  17.460  1.1292 -0.1637  0.9878
 5342TIP3    H240222   4.777   5.878  17.500  0.1118 -0.4846 -0.7535
 5343TIP3   OH240223   8.243   6.641  16.713  0.1796 -0.1078 -0.4785
 5343TIP3    H140224   8.248   6.562  16.768 -0.0478  0.7387  0.8153
 5343TIP3    H240225   8.334   6.671  16.707  0.0510  0.5461  0.6065
 5344TIP3   OH240226   0.491   8.551  17.243 -0.9947 -0.1663  0.0383
 5344TIP3    H140227   0.580   8.518  17.258 -1.1512 -0.1497  1.1578
 5344TIP3    H240228   0.464   8.512  17.160  0.6504  1.1241 -1.1538
 5345TIP3   OH240229   0.020   1.743  17.947  0.4376 -0.6327  0.0099
 5345TIP3    H140230   0.066   1.661  17.930 -1.8711 -1.7744 -1.1989
 5345TIP3    H240231  -0.067   1.716  17.977 -0.1583  1.3769  0.2351
 5346TIP3   OH240232   5.378   1.354  16.165  0.5553  0.0327 -0.7060
 5346TIP3    H140233   5.336   1.373  16.249  0.5082  0.1865 -0.7630
 5346TIP3    H240234   5.346   1.423  16.106 -0.6020 -0.9241 -1.2537
 5347TIP3   OH240235   2.847   4.025  17.104 -0.4044  0.3558  0.0785
 5347TIP3    H140236   2.879   3.972  17.031  2.5458  2.1501 -0.1089
 5347TIP3    H240237   2.891   3.990  17.181  2.8675  3.1531 -0.2439
 5348TIP3   OH240238   1.146   8.478  17.008 -0.0626  0.3991  0.3195
 5348TIP3    H140239   1.236   8.451  16.990 -0.4132  0.1051 -1.1086
 5348TIP3    H240240   1.092   8.424  16.949 -1.2126  0.3179  1.3909
 5349TIP3   OH240241   1.101   6.718  16.566  0.0905 -0.1236  0.4738
 5349TIP3    H140242   1.065   6.706  16.654 -0.8280 -0.3709  0.0722
 5349TIP3    H240243   1.028   6.751  16.514  0.7351  0.4065 -0.1069
 5350TIP3   OH240244   3.924   0.616  16.552 -0.3779 -0.2227  0.3548
 5350TIP3    H140245   4.014   0.599  16.580  0.4189  0.7538 -1.3967
 5350TIP3    H240246   3.905   0.545  16.490 -0.4471  0.0982  0.0054
 5351TIP3   OH240247   6.835   8.042  16.867  0.0436 -0.0897 -0.3827
 5351TIP3    H140248   6.877   8.041  16.781 -0.3543  1.4873 -0.6303
 5351TIP3    H240249   6.774   7.969  16.865  1.1952 -1.0762 -0.8196
 5352TIP3   OH240250   4.084   8.717  17.950 -0.0552 -0.1117 -0.2013
 5352TIP3    H140251   4.090   8.644  18.013 -1.1602 -0.5105 -0.5233
 5352TIP3    H240252   4.140   8.690  17.877  0.4546 -0.1040  0.1826
 5353TIP3   OH240253   4.466   7.942  17.631  0.1134 -0.3266 -0.3396
 5353TIP3    H140254   4.457   8.012  17.566 -0.0626 -1.3021 -1.4044
 5353TIP3    H240255   4.411   7.970  17.704 -0.5147  0.3182 -1.0376
 5354TIP3   OH240256   6.827   4.827  17.334  0.3395 -0.1617 -0.2717
 5354TIP3    H140257   6.867   4.757  17.283 -0.4397 -1.2828  0.6145
 5354TIP3    H240258   6.902   4.873  17.373  0.8774 -0.1938 -1.2245
 5355TIP3   OH240259   2.534   1.817  16.623  0.3099  0.4452  0.2611
 5355TIP3    H140260   2.548   1.904  16.661 -0.9152  1.6132 -1.7690
 5355TIP3    H240261   2.614   1.800  16.573 -0.5814  1.8488 -1.8012
 5356TIP3   OH240262   7.185   3.538  17.056  0.2737 -0.1566  0.2303
 5356TIP3    H140263   7.099   3.556  17.018 -0.1794  0.2798  1.4193
 5356TIP3    H240264   7.226   3.476  16.995  0.2660  1.7396 -1.8310
 5357TIP3   OH240265   6.789   2.436  17.416 -0.0906  0.1311 -0.3090
 5357TIP3    H140266   6.846   2.359  17.411 -0.9441 -0.5437  0.1602
 5357TIP3    H240267   6.701   2.402  17.401 -0.4604  1.0463 -0.2641
 5358TIP3   OH240268   0.020   7.671  17.116 -0.1200  0.4482  0.2272
 5358TIP3    H140269  -0.014   7.749  17.073  0.8421 -0.4220 -2.2818
 5358TIP3    H240270   0.068   7.705  17.192 -0.9214  2.1610  0.0124
 5359TIP3   OH240271   0.926   3.960  17.619  0.1607  0.6107 -0.0298
 5359TIP3    H140272   0.979   4.039  17.628 -1.2907  1.7841 -1.3339
 5359TIP3    H240273   0.853   3.973  17.680  0.6640 -0.4268  0.8313
 5360TIP3   OH240274   2.363   6.906  16.955 -0.3887 -0.1554 -0.2886
 5360TIP3    H140275   2.351   6.991  16.998  0.0387  0.2755 -0.9939
 5360TIP3    H240276   2.438   6.867  17.000 -0.8960 -0.3901  0.3726
 5361TIP3   OH240277   8.131   5.800  16.798  0.7881  0.9864  0.5652
 5361TIP3    H140278   8.191   5.734  16.762 -0.8913 -1.1860  1.5177
 5361TIP3    H240279   8.095   5.844  16.721 -0.9841 -1.9856 -0.4724
 5362TIP3   OH240280   7.970   7.064  16.567  0.3348 -0.3200 -0.0618
 5362TIP3    H140281   7.905   7.071  16.498  1.1061 -1.2585 -0.9146
 5362TIP3    H240282   8.015   7.149  16.567 -1.8376  0.9345  1.5867
 5363TIP3   OH240283   4.006   6.306  16.086  0.2267  0.2049  0.3102
 5363TIP3    H140284   3.950   6.379  16.111  1.7715  1.8229 -0.6787
 5363TIP3    H240285   3.963   6.266  16.011  0.3503  1.3986 -0.4145
 5364TIP3   OH240286   7.529   0.860  17.788 -0.0687  0.2841 -0.9848
 5364TIP3    H140287   7.612   0.819  17.809 -0.6509 -0.5203 -0.1591
 5364TIP3    H240288   7.520   0.849  17.693  0.5710  0.0082 -1.0161
 5365TIP3   OH240289   6.344   5.402  17.456  0.0989 -0.3431  0.3043
 5365TIP3    H140290   6.391   5.349  17.522 -1.1192  0.8100  2.1949
 5365TIP3    H240291   6.295   5.338  17.405  0.6453 -1.2405  0.8713
 5366TIP3   OH240292   5.154   7.045  16.447 -0.1026  0.6410 -0.0292
 5366TIP3    H140293   5.107   7.045  16.363  0.9451  3.0449 -0.7016
 5366TIP3    H240294   5.085   7.060  16.512 -0.5256  3.3795 -0.9361
 5367TIP3   OH240295   5.887   3.060  16.509 -0.8289  0.1620 -0.4937
 5367TIP3    H140296   5.893   3.132  16.446 -1.5853 -0.9486 -1.9015
 5367TIP3    H240297   5.794   3.057  16.533 -0.8208 -0.3997 -0.5253
 5368TIP3   OH240298   9.051   4.312  17.684 -0.4894  0.5480  0.6714
 5368TIP3    H140299   9.053   4.297  17.589  2.1148  1.2922  0.5149
 5368TIP3    H240300   8.988   4.249  17.717 -0.1112 -1.0157 -1.3714
 5369TIP3   OH240301   7.261   7.546  17.724  0.1050  0.0733 -0.2926
 5369TIP3    H140302   7.216   7.541  17.809 -0.7174  1.1238 -0.6359
 5369TIP3    H240303   7.347   7.583  17.745 -0.0672  0.2659  0.0954
 5370TIP3   OH240304   3.194   2.448  17.241  0.5605  0.4923 -0.2062
 5370TIP3    H140305   3.165   2.531  17.202 -0.2573  0.1242 -0.4084
 5370TIP3    H240306   3.278   2.430  17.200  0.4811  0.9395 -0.5745
 5371TIP3   OH240307   4.633   5.569  16.825  0.0832 -0.3283 -0.2551
 5371TIP3    H140308   4.551   5.606  16.793 -1.2615 -1.0167  2.1756
 5371TIP3    H240309   4.666   5.635  16.886 -0.1878 -1.3062  0.9701
 5372TIP3   OH240310   3.915   8.129  17.815  0.3422  0.1252  0.1808
 5372TIP3    H140311   3.930   8.056  17.876  0.8261  0.6841  0.7392
 5372TIP3    H240312   3.910   8.087  17.729 -1.9918 -0.8677  0.7227
 5373TIP3   OH240313   6.475   6.662  17.296  0.4784 -0.2758 -0.1159
 5373TIP3    H140314   6.547   6.702  17.248  1.1815 -0.5581  0.6715
 5373TIP3    H240315   6.510   6.578  17.326  0.2210  0.0783  1.2503
 5374TIP3   OH240316   0.461   5.349  16.601 -0.1390  0.2338 -0.0621
 5374TIP3    H140317   0.400   5.275  16.595  2.0143 -1.5511 -2.6805
 5374TIP3    H240318   0.544   5.309  16.628  0.4139  2.2398  1.3746
 5375TIP3   OH240319   0.494   8.039  16.926 -0.1910 -0.2323  0.3358
 5375TIP3    H140320   0.450   8.071  16.847 -0.4174 -0.9145  0.1769
 5375TIP3    H240321   0.434   7.973  16.961  0.7460 -1.2467  0.0718
 5376TIP3   OH240322   3.092   8.382  17.275  0.2674  0.4035  0.3283
 5376TIP3    H140323   3.047   8.450  17.326  0.2755  0.7881 -0.1706
 5376TIP3    H240324   3.040   8.373  17.196  0.6962  0.3740  0.0484
 5377TIP3   OH240325   1.430   9.066  15.881  0.3263 -0.1930 -0.1909
 5377TIP3    H140326   1.445   9.137  15.943  2.6444 -0.4118 -0.4134
 5377TIP3    H240327   1.334   9.059  15.875  0.0465  1.3699  1.5478
 5378TIP3   OH240328   8.786   1.910  17.849 -0.2290 -0.0734 -0.1139
 5378TIP3    H140329   8.881   1.921  17.857 -0.1842 -1.0437  0.8638
 5378TIP3    H240330   8.760   1.974  17.783  1.0414  0.5115 -0.0691
 5379TIP3   OH240331   0.229   0.267  17.509  0.1817  0.2762 -0.0026
 5379TIP3    H140332   0.159   0.269  17.444 -0.8466 -2.7985  0.8207
 5379TIP3    H240333   0.292   0.203  17.474  1.3934  1.2137  0.4057
 5380TIP3   OH240334   1.904   0.364  17.273  0.0483  0.1787 -0.3378
 5380TIP3    H140335   1.824   0.374  17.222  0.3427 -0.0521 -0.8612
 5380TIP3    H240336   1.875   0.338  17.360 -0.3898 -1.6558 -0.9925
 5381TIP3   OH240337   0.901   5.681  17.211 -0.3661  0.2730  0.1283
 5381TIP3    H140338   0.958   5.749  17.176  0.2783 -0.8377 -1.0797
 5381TIP3    H240339   0.901   5.696  17.306  0.5398  1.3466 -0.0178
 5382TIP3   OH240340   7.228   8.249  17.707 -0.1626  0.3227  0.3265
 5382TIP3    H140341   7.175   8.321  17.743  0.6395  0.9369  0.2953
 5382TIP3    H240342   7.169   8.205  17.646 -0.2727  1.7495 -0.6468
 5383TIP3   OH240343   6.013   6.930  16.399  0.1343 -0.6545 -0.4016
 5383TIP3    H140344   6.057   7.015  16.388 -1.0461 -0.1591 -1.6718
 5383TIP3    H240345   6.029   6.884  16.317 -1.2229 -0.6776 -0.6799
 5384TIP3   OH240346   8.002   1.289  16.760  0.2927 -0.7038 -0.2769
 5384TIP3    H140347   7.997   1.197  16.787 -2.3909 -0.0508  1.8799
 5384TIP3    H240348   7.951   1.292  16.679 -0.1398 -1.0408 -0.0241
 5385TIP3   OH240349   3.983   7.156  16.497 -0.6757 -0.1826  0.0821
 5385TIP3    H140350   4.009   7.067  16.519  0.5640  0.0253 -0.4296
 5385TIP3    H240351   3.899   7.147  16.452 -1.1678 -0.9652  1.1240
 5386TIP3   OH240352   8.095   6.479  15.829 -0.1165 -0.1196 -0.2095
 5386TIP3    H140353   8.159   6.483  15.900 -0.9788  0.6366  0.5668
 5386TIP3    H240354   8.012   6.459  15.874 -0.7188  0.5996 -0.9684
 5387TIP3   OH240355   0.287   1.924  16.579 -0.1310  0.0605  0.3700
 5387TIP3    H140356   0.335   1.917  16.497  2.7285 -0.9495  1.9892
 5387TIP3    H240357   0.254   1.835  16.595 -0.3582  0.1691  0.5195
 5388TIP3   OH240358   0.431   2.546  16.157  0.2583  0.6327 -0.6474
 5388TIP3    H140359   0.433   2.493  16.077  0.4735  0.9185 -0.8351
 5388TIP3    H240360   0.355   2.603  16.145 -0.3182 -0.0243 -0.1854
 5389TIP3   OH240361   4.053   4.559  17.150  0.7682  0.2213  0.2926
 5389TIP3    H140362   4.004   4.568  17.069 -0.7784  0.0344  1.1707
 5389TIP3    H240363   3.993   4.514  17.210  2.3579 -0.9112  1.1314
 5390TIP3   OH240364   3.807   6.895  16.349  0.5237  0.7161  0.3334
 5390TIP3    H140365   3.759   6.936  16.421 -1.9076  1.4075 -1.5528
 5390TIP3    H240366   3.740   6.876  16.283  2.0833 -2.9878 -0.4454
 5391TIP3   OH240367   1.655   7.144  12.060  0.7191  0.2081  0.1968
 5391TIP3    H140368   1.627   7.224  12.104  1.4135  0.2877  0.4985
 5391TIP3    H240369   1.597   7.076  12.095  0.8572  0.3808  0.7739
 5392TIP3   OH240370   5.816   1.851  13.150  0.1256  0.4341 -0.2997
 5392TIP3    H140371   5.728   1.855  13.187  0.1392 -0.2078 -0.1910
 5392TIP3    H240372   5.825   1.933  13.101 -0.4601  0.5875 -0.1569
 5393TIP3   OH240373   6.304   8.475  11.889  0.3282 -0.2814 -0.1624
 5393TIP3    H140374   6.311   8.408  11.820 -0.2073 -0.4583 -0.0461
 5393TIP3    H240375   6.355   8.440  11.961 -0.2534 -0.7390  0.0308
 5394TIP3   OH240376   2.679   7.735  12.894  0.1608  0.3928 -0.0124
 5394TIP3    H140377   2.749   7.783  12.938  0.9768  0.0019 -0.8437
 5394TIP3    H240378   2.648   7.672  12.959  1.0498  0.1145  0.1495
 5395TIP3   OH240379   3.954   5.030  11.522 -0.5681 -0.6826 -0.8840
 5395TIP3    H140380   4.013   4.981  11.466 -0.8667 -0.4577 -1.4001
 5395TIP3    H240381   3.960   5.120  11.491  0.9330 -0.1098  0.8602
 5396TIP3   OH240382   2.982   3.316  11.779  0.0147  0.2882  0.4420
 5396TIP3    H140383   3.003   3.269  11.860 -0.4413  0.6560  0.7753
 5396TIP3    H240384   2.993   3.408  11.801  2.7485  0.3323 -0.7151
 5397TIP3   OH240385   2.960   6.117  12.321 -0.0461 -1.0434 -0.1542
 5397TIP3    H140386   2.905   6.045  12.288 -0.7416 -0.1815 -0.9269
 5397TIP3    H240387   2.929   6.194  12.274 -0.1034 -0.0027  1.5168
 5398TIP3   OH240388   9.110   7.665  13.255 -0.1332  0.0881  0.2341
 5398TIP3    H140389   9.186   7.717  13.280 -0.4222  0.4875  0.2956
 5398TIP3    H240390   9.061   7.722  13.195 -0.2630 -0.2534  0.0140
 5399TIP3   OH240391   0.081   1.851  11.745 -0.3619  0.2250  0.3560
 5399TIP3    H140392   0.045   1.924  11.795 -1.5348 -0.5999  0.7586
 5399TIP3    H240393   0.155   1.819  11.798 -0.8350  0.1265  0.9668
 5400TIP3   OH240394   1.874   8.812  12.057 -0.1205  0.6427  0.3174
 5400TIP3    H140395   1.931   8.889  12.060  0.0392  0.5223  0.3583
 5400TIP3    H240396   1.818   8.821  12.134  0.5256  0.2346  0.8445
 5401TIP3   OH240397   7.447   3.706  11.741  0.3922  0.6684  0.1998
 5401TIP3    H140398   7.397   3.787  11.740  0.0434  0.4573 -0.4717
 5401TIP3    H240399   7.534   3.732  11.771  0.0602  1.1432  0.7727
 5402TIP3   OH240400   0.499   6.264  12.167 -0.2211  0.1208  0.2884
 5402TIP3    H140401   0.589   6.231  12.159 -0.3201  0.2585 -2.0529
 5402TIP3    H240402   0.465   6.221  12.245  1.3255 -1.3223  0.2392
 5403TIP3   OH240403   3.140   1.926  12.189 -0.8707 -0.1902  0.2166
 5403TIP3    H140404   3.166   1.842  12.151 -0.2363  0.4819 -0.8924
 5403TIP3    H240405   3.166   1.991  12.124 -1.4825  0.8645  0.9903
 5404TIP3   OH240406   2.025   0.056  12.041  0.0327 -0.1587 -0.6135
 5404TIP3    H140407   2.105   0.067  11.990  1.7453  2.9931  2.3626
 5404TIP3    H240408   2.044  -0.016  12.101 -0.1798 -0.6903 -1.1645
 5405TIP3   OH240409   1.149   1.383  11.547 -0.1939  0.2208  0.6099
 5405TIP3    H140410   1.156   1.289  11.532 -1.1420 -0.2109  2.5793
 5405TIP3    H240411   1.094   1.414  11.475 -0.2763 -0.8131  0.2100
 5406TIP3   OH240412   1.245   2.228  12.870  0.3823 -0.0011 -0.3809
 5406TIP3    H140413   1.310   2.230  12.940  0.0837 -0.8656 -0.0592
 5406TIP3    H240414   1.224   2.320  12.854  0.8601  0.2338  0.2863
 5407TIP3   OH240415   7.322   6.825  12.878 -0.4045  0.4608  0.1713
 5407TIP3    H140416   7.294   6.734  12.868 -1.5013  0.4064  2.7829
 5407TIP3    H240417   7.268   6.859  12.950  1.0306  2.7338  0.2925
 5408TIP3   OH240418   3.972   3.252  12.089 -0.4879 -0.1332  0.1114
 5408TIP3    H140419   3.998   3.168  12.127  0.2231  0.2182  0.4349
 5408TIP3    H240420   4.036   3.268  12.020 -1.6204 -0.6374 -1.0804
 5409TIP3   OH240421   5.222   7.770  13.221 -0.4635 -0.2060 -0.2185
 5409TIP3    H140422   5.260   7.846  13.265 -0.7876 -0.5086  0.6035
 5409TIP3    H240423   5.273   7.761  13.140 -0.4601  0.9137 -0.3618
 5410TIP3   OH240424   8.768   8.038  12.929 -0.2910  0.0985  0.1089
 5410TIP3    H140425   8.734   7.959  12.888 -0.1066 -0.6165  1.2738
 5410TIP3    H240426   8.725   8.041  13.015 -1.1662  1.9023 -0.3540
 5411TIP3   OH240427   3.543   5.850  13.065  0.5711 -0.4011  0.4245
 5411TIP3    H140428   3.531   5.878  13.156  0.3895 -0.1475  0.3222
 5411TIP3    H240429   3.622   5.796  13.067  2.0231  1.6263  0.3072
 5412TIP3   OH240430   7.975   8.931  11.979  0.1700 -0.3649 -0.0629
 5412TIP3    H140431   7.911   8.883  12.031 -1.7759 -0.8866 -2.7562
 5412TIP3    H240432   7.947   9.023  11.985 -0.4925 -0.5151 -0.7179
 5413TIP3   OH240433   2.874   9.208  11.846  0.6664 -0.0642  0.1032
 5413TIP3    H140434   2.814   9.278  11.871  0.9210 -0.1022  0.8457
 5413TIP3    H240435   2.818   9.139  11.812 -0.0070 -1.0945  3.0315
 5414TIP3   OH240436   0.951   0.535  12.325 -0.0659 -0.1019 -0.4907
 5414TIP3    H140437   0.970   0.610  12.268  2.3310  1.1744  1.8066
 5414TIP3    H240438   0.958   0.460  12.267 -0.3127  1.2629 -2.4125
 5415TIP3   OH240439   4.229   6.035  12.215  0.1950 -0.0677  0.4827
 5415TIP3    H140440   4.299   6.099  12.205 -0.5369  0.4513 -2.0141
 5415TIP3    H240441   4.267   5.952  12.185  0.0671 -0.0182  0.1825
 5416TIP3   OH240442   8.170   0.234  12.256  0.1419  0.5125  0.1157
 5416TIP3    H140443   8.179   0.180  12.177 -0.1744  1.1206 -0.3511
 5416TIP3    H240444   8.168   0.171  12.328  0.3667 -0.0587 -0.3673
 5417TIP3   OH240445   1.656   8.851  12.212  0.6722  0.3866 -0.0420
 5417TIP3    H140446   1.657   8.755  12.206  0.1060  0.3658  0.1076
 5417TIP3    H240447   1.603   8.879  12.138 -1.4512  0.4266  1.4214
 5418TIP3   OH240448   7.266   7.321  12.217 -1.0013  0.3493  0.1771
 5418TIP3    H140449   7.352   7.332  12.176 -0.6077 -0.7606  0.6431
 5418TIP3    H240450   7.283   7.264  12.292 -2.1480  0.1218  0.2817
 5419TIP3   OH240451   0.137   7.856  12.601 -0.1181 -0.7353  0.4574
 5419TIP3    H140452   0.233   7.860  12.601 -0.1546  1.8722  0.1739
 5419TIP3    H240453   0.110   7.925  12.661 -1.7657  2.4909 -3.4811
 5420TIP3   OH240454   5.041   7.307  12.697  0.6176 -0.5988  0.2740
 5420TIP3    H140455   4.989   7.382  12.726  0.7315 -0.8060  1.0330
 5420TIP3    H240456   4.997   7.277  12.617  0.2115 -0.1021  0.3067
 5421TIP3   OH240457   1.640   7.877  12.300 -0.9567  0.5410  0.3090
 5421TIP3    H140458   1.579   7.943  12.332 -0.6221  1.0324 -0.0388
 5421TIP3    H240459   1.674   7.914  12.218  0.9390  0.9764  1.2427
 5422TIP3   OH240460   7.818   6.376  11.979  0.1642 -0.5037 -0.2184
 5422TIP3    H140461   7.876   6.311  12.019 -1.5201 -1.3008  1.0616
 5422TIP3    H240462   7.832   6.455  12.031  2.8560  0.5631 -2.3085
 5423TIP3   OH240463   6.851   2.584  12.501  0.3870 -0.3235  0.6901
 5423TIP3    H140464   6.930   2.637  12.497  0.0569  0.0640 -1.2229
 5423TIP3    H240465   6.850   2.536  12.419 -1.1296 -0.6666  0.8881
 5424TIP3   OH240466   1.582   1.630  12.115  0.7314 -0.0411 -0.5367
 5424TIP3    H140467   1.498   1.676  12.112  0.3436 -0.6097  0.9194
 5424TIP3    H240468   1.567   1.549  12.067  0.7627  0.3120 -1.1585
 5425TIP3   OH240469   8.416   4.712  12.291 -0.7379 -0.7079  0.0276
 5425TIP3    H140470   8.415   4.752  12.204  0.2138  2.9736  1.5171
 5425TIP3    H240471   8.325   4.718  12.321 -0.4969  1.1180  0.4831
 5426TIP3   OH240472   0.851   5.775  11.846  0.2403 -0.0452  0.0223
 5426TIP3    H140473   0.942   5.748  11.858  0.3202  0.6042  1.0234
 5426TIP3    H240474   0.844   5.797  11.753  1.3994  0.9353  0.1419
 5427TIP3   OH240475   4.875   7.682  13.473  0.3248 -0.6556  0.3862
 5427TIP3    H140476   4.811   7.693  13.544 -1.2679 -1.9982 -0.7691
 5427TIP3    H240477   4.879   7.767  13.431  0.0632 -0.2848  1.0921
 5428TIP3   OH240478   2.319   1.838  13.562  0.3231  0.0748  0.0672
 5428TIP3    H140479   2.273   1.884  13.491  0.6333 -0.1275 -0.2677
 5428TIP3    H240480   2.307   1.895  13.638 -2.0683 -0.8556  0.4689
 5429TIP3   OH240481   3.571   4.052  11.836  0.3965  0.3307 -0.4005
 5429TIP3    H140482   3.578   3.979  11.775  0.0609  0.8899 -1.1227
 5429TIP3    H240483   3.544   4.126  11.782 -1.3104  0.5172  0.6349
 5430TIP3   OH240484   2.909   4.389  11.835 -0.1553 -0.0501 -0.9211
 5430TIP3    H140485   2.839   4.394  11.769 -0.3703 -0.6445 -0.7420
 5430TIP3    H240486   2.985   4.428  11.792  0.1874 -1.9278 -2.1569
 5431TIP3   OH240487   7.156   6.862  13.085  0.8995 -0.1419 -0.1823
 5431TIP3    H140488   7.203   6.844  13.167 -0.2741  3.7382  1.5349
 5431TIP3    H240489   7.085   6.798  13.084  1.0553 -0.4052  1.7057
 5432TIP3   OH240490   4.293   3.482  12.240 -0.6764  0.0505  0.4822
 5432TIP3    H140491   4.269   3.390  12.250 -0.4071 -0.4173 -2.2394
 5432TIP3    H240492   4.209   3.528  12.233 -0.8374 -0.3145 -0.1379
 5433TIP3   OH240493   5.538   0.118  12.572  0.1817  0.3061 -0.3620
 5433TIP3    H140494   5.504   0.078  12.492  1.8878  0.8837 -1.4328
 5433TIP3    H240495   5.569   0.044  12.625  0.8705  0.0328 -1.1376
 5434TIP3   OH240496   8.477   1.801  12.231 -0.1511  0.4359  0.1775
 5434TIP3    H140497   8.466   1.878  12.175 -0.6863  0.8222  0.8036
 5434TIP3    H240498   8.456   1.727  12.174  1.2139  0.6607 -0.6810
 5435TIP3   OH240499   6.650   3.928  11.742 -0.0281 -0.1175  0.3961
 5435TIP3    H140500   6.702   3.849  11.725 -1.5369 -0.6764 -2.2171
 5435TIP3    H240501   6.567   3.895  11.776 -0.0806  0.4925  0.8705
 5436TIP3   OH240502   8.716   3.177  12.823  0.1505  0.1506 -0.1222
 5436TIP3    H140503   8.740   3.143  12.909  1.4902 -0.6177 -0.7555
 5436TIP3    H240504   8.680   3.102  12.776  0.3730  0.3129 -0.5602
 5437TIP3   OH240505   7.955   5.659  12.599 -0.4646  0.7001  0.2902
 5437TIP3    H140506   7.911   5.574  12.592  2.0755 -0.6295 -1.0611
 5437TIP3    H240507   7.883   5.723  12.599 -2.4395 -1.2660 -2.0956
 5438TIP3   OH240508   4.772   4.860  12.447 -0.2217 -0.4516  0.8494
 5438TIP3    H140509   4.807   4.946  12.472  0.6932 -0.5562 -0.0336
 5438TIP3    H240510   4.840   4.798  12.474  0.6132 -0.6097 -1.4281
 5439TIP3   OH240511   9.068   6.059  12.296  0.2047  0.0844 -0.3588
 5439TIP3    H140512   9.156   6.074  12.262  0.4039 -0.1147  0.0568
 5439TIP3    H240513   9.078   5.987  12.358 -0.0559  0.7060  0.4388
 5440TIP3   OH240514   4.657   1.302  12.377 -0.2581 -0.1366  0.0717
 5440TIP3    H140515   4.676   1.214  12.409 -0.4857 -0.5547 -0.9202
 5440TIP3    H240516   4.743   1.345  12.375 -0.1534 -0.3055  0.6115
 5441TIP3   OH240517   7.180   2.255  11.296  0.2803 -0.0696  0.0531
 5441TIP3    H140518   7.086   2.271  11.297  0.2621 -0.2099  0.6019
 5441TIP3    H240519   7.190   2.166  11.331  0.6392  0.0678  0.3057
 5442TIP3   OH240520   6.223   5.185  13.196  0.2996  0.0095 -0.6532
 5442TIP3    H140521   6.264   5.213  13.277  1.1730 -0.8568 -0.7834
 5442TIP3    H240522   6.226   5.090  13.198 -3.7304 -0.2811  0.3553
 5443TIP3   OH240523   4.591   2.933  12.078 -0.1459 -0.1933 -0.0919
 5443TIP3    H140524   4.520   2.981  12.036  0.2810  0.4256 -0.1161
 5443TIP3    H240525   4.591   2.848  12.034 -0.3709  0.0812 -0.6330
 5444TIP3   OH240526   5.188   0.992  12.989  0.1970 -0.1123  0.1334
 5444TIP3    H140527   5.123   0.922  12.978  1.3957 -1.0309 -1.5651
 5444TIP3    H240528   5.168   1.055  12.920  0.7923 -0.1612 -0.0924
 5445TIP3   OH240529   3.419   1.514  11.961  0.2913 -0.2190  0.0534
 5445TIP3    H140530   3.371   1.495  11.881  1.6730  1.6963 -1.3201
 5445TIP3    H240531   3.502   1.466  11.951  0.6062  0.2947  0.1846
 5446TIP3   OH240532   1.760   8.289  13.055 -0.6665  1.1075 -0.1765
 5446TIP3    H140533   1.820   8.320  13.122  0.7156 -0.1444 -0.7881
 5446TIP3    H240534   1.734   8.368  13.007 -0.5883  1.8252  0.9363
 5447TIP3   OH240535   8.976   2.414  13.149  0.1149  0.3024 -0.6499
 5447TIP3    H140536   9.005   2.323  13.154 -1.7544 -0.3054 -0.3344
 5447TIP3    H240537   9.014   2.456  13.226 -1.0562 -0.8464  0.5862
 5448TIP3   OH240538   6.833   6.420  11.964 -0.7270 -0.2237 -0.0213
 5448TIP3    H140539   6.744   6.456  11.965  0.1027  1.9916  0.1621
 5448TIP3    H240540   6.861   6.426  11.873 -0.1354  0.8828  0.2092
 5449TIP3   OH240541   6.649   5.023  13.411  0.0147 -0.4399 -1.0611
 5449TIP3    H140542   6.727   5.072  13.439 -1.0591  0.7006  0.0579
 5449TIP3    H240543   6.676   4.982  13.329  1.9517 -0.4730 -0.4790
 5450TIP3   OH240544   2.036   5.990  13.201 -0.0889 -0.1763  0.4675
 5450TIP3    H140545   1.995   5.961  13.282 -0.7593 -1.1397 -0.1966
 5450TIP3    H240546   2.129   5.970  13.211 -0.0318  0.5050  1.3338
 5451TIP3   OH240547   3.052   2.221  13.410  0.2506  0.2638  0.2341
 5451TIP3    H140548   3.083   2.199  13.497 -1.0659 -0.2439  0.5948
 5451TIP3    H240549   3.132   2.233  13.358  1.0502 -1.0601  1.0966
 5452TIP3   OH240550   8.504   6.392  13.445 -0.3698  0.0028 -0.1480
 5452TIP3    H140551   8.502   6.374  13.539  0.1167 -0.3137 -0.1964
 5452TIP3    H240552   8.453   6.321  13.406  2.3680 -1.9400 -0.4265
 5453TIP3   OH240553   4.330   0.354  11.996  0.2841 -0.1465  0.5665
 5453TIP3    H140554   4.287   0.285  12.048 -1.5014 -0.8697 -1.7139
 5453TIP3    H240555   4.257   0.403  11.957  1.5160  0.2876 -1.3024
 5454TIP3   OH240556   8.552   3.414  13.487  0.1031  0.7330  0.1360
 5454TIP3    H140557   8.523   3.403  13.396  0.5054 -1.1308  0.1868
 5454TIP3    H240558   8.488   3.364  13.538  1.4723 -0.6390  0.5665
 5455TIP3   OH240559   2.545   9.072  12.025 -0.2786  0.0439  0.0562
 5455TIP3    H140560   2.476   9.116  12.073  0.2479  0.6948  0.2435
 5455TIP3    H240561   2.523   8.979  12.029 -1.1103  0.2372  0.1420
 5456TIP3   OH240562   6.433   3.409  12.040 -0.4361  0.0864 -0.3829
 5456TIP3    H140563   6.475   3.335  11.996 -0.9212 -0.7457  0.5071
 5456TIP3    H240564   6.340   3.384  12.047 -1.1005  1.8022 -2.1416
 5457TIP3   OH240565   4.878   2.149  11.702 -0.1052  0.1520 -0.2553
 5457TIP3    H140566   4.899   2.186  11.616 -0.3080 -0.3864 -0.5456
 5457TIP3    H240567   4.795   2.191  11.726  0.6722  1.3923  0.3547
 5458TIP3   OH240568   6.599   2.927  12.864 -0.5827  0.1041  0.1392
 5458TIP3    H140569   6.660   2.886  12.925 -0.3708 -0.5496 -0.5019
 5458TIP3    H240570   6.529   2.963  12.920 -0.7699 -1.1159  0.7136
 5459TIP3   OH240571   1.440   0.123  13.511  0.1736  0.3600 -0.2835
 5459TIP3    H140572   1.412   0.200  13.462  1.8915  0.9567 -0.3997
 5459TIP3    H240573   1.365   0.100  13.565 -1.6438 -0.0498 -2.8402
 5460TIP3   OH240574   7.746   1.771  11.579 -0.2593  0.1452  0.4562
 5460TIP3    H140575   7.659   1.770  11.539  0.2331 -0.4001 -0.6366
 5460TIP3    H240576   7.782   1.857  11.557  0.0535 -0.1965 -0.3729
 5461TIP3   OH240577   2.355   3.276  13.923  0.2804 -0.2759  0.1222
 5461TIP3    H140578   2.297   3.261  13.998  0.0471  0.6857  0.1417
 5461TIP3    H240579   2.300   3.255  13.847  0.5260 -1.2785  0.2106
 5462TIP3   OH240580   2.209   2.992  12.458 -0.2190  0.3360  0.1156
 5462TIP3    H140581   2.254   2.907  12.450 -1.7527 -0.3466 -2.0487
 5462TIP3    H240582   2.176   2.993  12.548 -1.2323 -1.9729 -0.1510
 5463TIP3   OH240583   8.436   1.208  11.778  0.2622 -0.3725 -0.0678
 5463TIP3    H140584   8.450   1.183  11.687 -0.7155  1.2410 -0.6926
 5463TIP3    H240585   8.341   1.199  11.791  0.3626 -0.3564  0.7103
 5464TIP3   OH240586   0.964   5.038  13.307  0.1213 -0.2322 -0.1471
 5464TIP3    H140587   0.905   5.016  13.235  1.9523 -1.7105 -1.2680
 5464TIP3    H240588   0.921   5.001  13.385 -0.6040 -0.9609 -0.8729
 5465TIP3   OH240589   2.634   2.656  11.683  0.4066 -0.4220 -0.1993
 5465TIP3    H140590   2.560   2.596  11.675  2.2261 -2.9224  0.4484
 5465TIP3    H240591   2.654   2.657  11.777 -0.0465  1.9455 -0.0487
 5466TIP3   OH240592   5.474   6.768  12.305 -0.2860  0.0932  0.5516
 5466TIP3    H140593   5.526   6.795  12.381  1.4131  0.8141 -0.7997
 5466TIP3    H240594   5.538   6.756  12.235 -1.9943  2.4696 -1.6366
 5467TIP3   OH240595   7.991   1.721  11.840 -0.1555 -0.1162  0.1669
 5467TIP3    H140596   7.914   1.704  11.894 -0.2216 -0.9135 -0.1659
 5467TIP3    H240597   8.041   1.786  11.890 -0.1767 -0.8922  1.2250
 5468TIP3   OH240598   8.295   3.303  11.886 -0.4633  0.3033 -0.4031
 5468TIP3    H140599   8.250   3.221  11.871  1.3049 -0.9479  0.7290
 5468TIP3    H240600   8.380   3.293  11.841  0.6756  0.5668  1.5659
 5469TIP3   OH240601   4.510   3.983  12.492  0.5889  0.2836  0.1958
 5469TIP3    H140602   4.479   3.958  12.405  0.4878 -1.0772  0.5974
 5469TIP3    H240603   4.433   4.021  12.535  0.7998  1.5792 -0.4972
 5470TIP3   OH240604   7.879   7.170  12.644 -0.3514 -0.6698  0.7007
 5470TIP3    H140605   7.919   7.149  12.729 -0.4390 -0.3759  0.8158
 5470TIP3    H240606   7.951   7.165  12.582 -0.3479 -1.2043  0.7379
 5471TIP3   OH240607   7.416   4.902  13.272 -0.2866  0.4866  0.3108
 5471TIP3    H140608   7.408   4.884  13.178 -2.0447 -0.5481  0.6332
 5471TIP3    H240609   7.508   4.928  13.283  0.7333 -2.0991 -1.2508
 5472TIP3   OH240610   4.847   4.701  12.837 -0.0984  0.1168 -0.1167
 5472TIP3    H140611   4.860   4.795  12.846  0.6495 -0.0649  0.8662
 5472TIP3    H240612   4.800   4.691  12.755 -0.5953  1.3831 -0.0077
 5473TIP3   OH240613   8.061   7.207  12.864  0.2932 -0.1737  0.4446
 5473TIP3    H140614   8.073   7.301  12.852 -0.0563 -0.0514  1.0302
 5473TIP3    H240615   8.042   7.197  12.957  1.8141 -0.9823  0.7115
 5474TIP3   OH240616   9.144   7.093  12.530 -0.1775  0.1248  0.8434
 5474TIP3    H140617   9.059   7.054  12.511  0.3029 -0.0052 -1.2656
 5474TIP3    H240618   9.142   7.178  12.485  1.1628 -0.3178 -0.1130
 5475TIP3   OH240619   0.809   3.190  12.485  0.1134 -0.4500  0.3871
 5475TIP3    H140620   0.778   3.279  12.469  2.1230  0.0682 -1.0806
 5475TIP3    H240621   0.762   3.161  12.563 -2.0689  1.1395 -0.2517
 5476TIP3   OH240622   0.506   3.144  12.729  0.2086 -0.0102  0.2274
 5476TIP3    H140623   0.562   3.094  12.788  0.5836  0.7428  0.5210
 5476TIP3    H240624   0.422   3.149  12.774  0.2366 -0.1906  0.2997
 5477TIP3   OH240625   0.219   4.504  12.124  0.2184 -0.0590 -0.0728
 5477TIP3    H140626   0.267   4.584  12.099 -0.0238  0.0950 -0.0511
 5477TIP3    H240627   0.201   4.460  12.041 -0.2438  0.2557 -0.1435
 5478TIP3   OH240628   6.228   1.374  12.311 -0.2335 -0.1889  0.1049
 5478TIP3    H140629   6.147   1.377  12.261  0.1040  2.0891 -0.3959
 5478TIP3    H240630   6.230   1.457  12.358  2.2683  0.2587 -0.6602
 5479TIP3   OH240631   7.812   0.842  13.001 -0.1033  0.1929  0.4027
 5479TIP3    H140632   7.734   0.828  12.948 -0.1884  1.0918  0.2773
 5479TIP3    H240633   7.784   0.903  13.070  1.3194  3.7701 -1.8539
 5480TIP3   OH240634   6.114   0.638  11.783  0.4312  0.5236 -0.0796
 5480TIP3    H140635   6.144   0.547  11.784 -3.9262 -1.1695 -0.1870
 5480TIP3    H240636   6.112   0.661  11.690  2.4891  1.1920 -0.0011
 5481TIP3   OH240637   3.800   4.125  11.993  0.0949 -0.2606 -0.2091
 5481TIP3    H140638   3.712   4.109  11.958 -0.4801  0.6058  0.7872
 5481TIP3    H240639   3.796   4.214  12.028  2.1166  0.8448 -2.4588
 5482TIP3   OH240640   4.560   6.530  12.330  0.5002  0.1052  0.3918
 5482TIP3    H140641   4.619   6.548  12.403 -0.3363 -0.2609  1.1791
 5482TIP3    H240642   4.497   6.602  12.331  0.3965  0.0223  0.1235
 5483TIP3   OH240643   7.109   1.465  12.977  0.3195 -0.6420  0.0510
 5483TIP3    H140644   7.058   1.388  13.003 -1.1348  0.6059  1.0527
 5483TIP3    H240645   7.165   1.433  12.906  0.6663 -2.9049  1.2632
 5484TIP3   OH240646   8.083   7.737  12.626 -0.0505 -0.3004 -0.3698
 5484TIP3    H140647   8.172   7.713  12.601  0.1746 -0.6729  0.6937
 5484TIP3    H240648   8.093   7.784  12.709 -0.9184 -1.6121  0.5257
 5485TIP3   OH240649   0.510   2.880  12.088  0.3614 -0.3773 -0.7408
 5485TIP3    H140650   0.496   2.820  12.162  1.2426  2.0596  1.5870
 5485TIP3    H240651   0.422   2.898  12.055  0.0087 -2.1460 -0.8740
 5486TIP3   OH240652   6.025   1.582  11.718  0.1280 -0.7753  1.1060
 5486TIP3    H140653   6.002   1.631  11.638  0.4946  1.0891  2.0900
 5486TIP3    H240654   6.003   1.491  11.697 -1.3107 -0.1114 -0.5481
 5487TIP3   OH240655   6.177   7.514  11.944  0.0183  0.1457 -0.3624
 5487TIP3    H140656   6.268   7.515  11.913  0.2725  0.1925  0.3820
 5487TIP3    H240657   6.130   7.569  11.880  0.6153  0.5891 -0.4308
 5488TIP3   OH240658   0.219   7.746  12.276 -0.1127 -0.7808 -0.2648
 5488TIP3    H140659   0.136   7.791  12.259  0.9439  1.0775 -0.6813
 5488TIP3    H240660   0.261   7.798  12.344  2.0266  0.1178 -2.1373
 5489TIP3   OH240661   2.030   4.405  13.396  0.2309  0.2435 -0.1368
 5489TIP3    H140662   2.017   4.373  13.485  0.4093  1.4098  0.3241
 5489TIP3    H240663   1.951   4.456  13.377 -0.2847 -0.8623 -1.0518
 5490TIP3   OH240664   8.858   4.658  12.851  0.1660  0.1090  0.0973
 5490TIP3    H140665   8.809   4.641  12.932 -1.6323  2.2104 -0.4544
 5490TIP3    H240666   8.929   4.717  12.878  0.2678 -0.1102  0.3145
 5491TIP3   OH240667   8.284   0.073  12.580  0.2917 -0.3957 -0.0875
 5491TIP3    H140668   8.291   0.012  12.653 -2.1085 -1.0094 -0.2571
 5491TIP3    H240669   8.296   0.019  12.502  0.1459 -0.2885 -0.1870
 5492TIP3   OH240670   5.518   2.417  11.901 -0.6664 -0.0641  0.2406
 5492TIP3    H140671   5.469   2.433  11.982 -2.4093 -1.8608 -0.3634
 5492TIP3    H240672   5.585   2.354  11.926 -2.3366 -2.0523  0.0562
 5493TIP3   OH240673   3.199   3.457  11.622  0.2212 -0.1272 -0.2998
 5493TIP3    H140674   3.127   3.519  11.638  0.0917 -0.6211  1.1176
 5493TIP3    H240675   3.155   3.379  11.588  0.4096  0.6006 -2.3541
 5494TIP3   OH240676   4.475   8.321  13.027  0.5031  0.6705  0.4583
 5494TIP3    H140677   4.483   8.315  13.122 -1.1485  1.9176  0.7291
 5494TIP3    H240678   4.455   8.413  13.010  0.7080  0.4575 -1.0970
 5495TIP3   OH240679   7.941   8.005  12.453 -0.1253 -0.3855 -0.2473
 5495TIP3    H140680   7.894   8.005  12.536  0.2848 -0.2741 -0.0124
 5495TIP3    H240681   8.031   8.028  12.476 -0.3555  1.3791 -0.9249
 5496TIP3   OH240682   1.013   1.398  12.475 -0.5206 -0.1315  0.2031
 5496TIP3    H140683   0.940   1.429  12.529 -1.2104 -1.1043 -0.1434
 5496TIP3    H240684   1.041   1.317  12.518  0.9926  0.6972  0.8660
 5497TIP3   OH240685   4.045   1.235  11.654 -0.0398 -0.1544 -0.0672
 5497TIP3    H140686   4.122   1.267  11.607  0.3654  0.2606  0.8709
 5497TIP3    H240687   4.005   1.315  11.690 -0.6970 -0.4063 -0.2279
 5498TIP3   OH240688   4.717   0.269  12.991 -0.7769 -0.1874 -0.1659
 5498TIP3    H140689   4.765   0.293  13.071 -0.6057 -2.9168  0.6795
 5498TIP3    H240690   4.752   0.183  12.968 -2.1974 -0.3140 -2.1153
 5499TIP3   OH240691   0.616   5.971  11.768 -0.0077 -0.0919 -0.1236
 5499TIP3    H140692   0.590   6.064  11.764  0.5548  0.0660 -0.1869
 5499TIP3    H240693   0.663   5.964  11.851  0.3611 -0.2118 -0.3416
 5500TIP3   OH240694   4.762   9.162  12.490 -0.1280  0.0143  0.0219
 5500TIP3    H140695   4.836   9.123  12.537 -0.8016 -0.5828  0.5854
 5500TIP3    H240696   4.791   9.252  12.471  0.0235  0.3972  1.8764
 5501TIP3   OH240697   5.078   6.959  13.037 -0.0008 -0.5801  0.1349
 5501TIP3    H140698   5.084   6.976  13.131  0.3089 -2.1760  0.4226
 5501TIP3    H240699   4.988   6.983  13.014 -0.2501 -0.7160  0.9494
 5502TIP3   OH240700   5.552   0.073  12.102 -0.1255 -0.2413 -0.6633
 5502TIP3    H140701   5.511   0.033  12.178  0.5525 -0.5242 -0.4445
 5502TIP3    H240702   5.499   0.043  12.028  1.1008 -2.6230 -0.6622
 5503TIP3   OH240703   3.179   6.235  13.408  0.1216 -0.0594  0.0421
 5503TIP3    H140704   3.253   6.185  13.444  3.2772  3.3248 -1.1214
 5503TIP3    H240705   3.139   6.277  13.485  0.9428 -0.0733  0.4907
 5504TIP3   OH240706   7.755   8.341  11.629 -0.1425  0.4114 -0.7964
 5504TIP3    H140707   7.743   8.273  11.696 -2.1260 -0.4624 -1.9313
 5504TIP3    H240708   7.788   8.293  11.553 -1.8218  0.5986 -1.6968
 5505TIP3   OH240709   2.954   3.946  13.675  0.0934 -0.3056  0.0666
 5505TIP3    H140710   2.955   4.042  13.678  0.8822 -0.1582 -2.8356
 5505TIP3    H240711   3.030   3.922  13.623 -0.5581 -2.4948  0.0275
 5506TIP3   OH240712   7.277   5.768  11.405 -0.2478  0.2401  0.1908
 5506TIP3    H140713   7.211   5.818  11.356  0.5103 -0.4945 -1.6907
 5506TIP3    H240714   7.233   5.742  11.486 -2.0498  0.3323 -0.7186
 5507TIP3   OH240715   5.362   4.966  13.621  0.5250  0.2657 -0.4662
 5507TIP3    H140716   5.346   4.957  13.715 -0.3510 -1.6962 -0.7500
 5507TIP3    H240717   5.282   5.005  13.586  0.1042 -0.6925 -0.6114
 5508TIP3   OH240718   1.907   4.685  12.628 -0.4455 -0.3217  0.6774
 5508TIP3    H140719   1.971   4.750  12.597 -1.2263 -0.1050 -0.5466
 5508TIP3    H240720   1.880   4.639  12.549 -1.0719 -1.0913  1.3243
 5509TIP3   OH240721   0.512   8.263  13.303  0.0499 -0.0707  0.3900
 5509TIP3    H140722   0.443   8.282  13.366 -0.1354  0.0691  0.1474
 5509TIP3    H240723   0.570   8.339  13.307 -0.7138  0.5966 -0.6097
 5510TIP3   OH240724   6.248   2.648  13.025  0.2571  0.4497 -0.1423
 5510TIP3    H140725   6.283   2.664  12.938 -1.2663  2.2540 -0.4890
 5510TIP3    H240726   6.156   2.675  13.020 -0.6934 -2.1073  1.2649
 5511TIP3   OH240727   1.764   4.610  11.487  0.1077 -0.0445 -0.3129
 5511TIP3    H140728   1.826   4.682  11.493  0.9706 -0.8690  1.2035
 5511TIP3    H240729   1.816   4.535  11.459 -0.1046 -0.8046  1.2042
 5512TIP3   OH240730   1.461   2.291  11.724 -0.1360  0.3975 -0.0639
 5512TIP3    H140731   1.483   2.373  11.767  1.4775  1.0377 -1.9469
 5512TIP3    H240732   1.531   2.279  11.659 -1.0838 -1.7598 -0.7639
 5513TIP3   OH240733   6.128   3.888  12.363 -0.6131 -0.2059  0.3168
 5513TIP3    H140734   6.176   3.808  12.341 -0.4783 -0.2261  0.6815
 5513TIP3    H240735   6.193   3.943  12.407 -0.5794  0.2930 -0.3463
 5514TIP3   OH240736   5.598   0.659  11.662 -0.0340  0.6716  0.0483
 5514TIP3    H140737   5.569   0.738  11.616 -0.2194  0.2222 -0.6154
 5514TIP3    H240738   5.652   0.692  11.733 -0.9777  1.4555  0.4307
 5515TIP3   OH240739   3.021   5.680  13.239 -0.1454 -0.1936 -0.4581
 5515TIP3    H140740   2.951   5.643  13.292 -0.4100  0.5160 -0.3057
 5515TIP3    H240741   3.023   5.773  13.262  0.1297  0.0069 -1.2486
 5516TIP3   OH240742   6.734   1.049  12.395  0.0586  0.0067  0.0888
 5516TIP3    H140743   6.731   1.089  12.482 -0.5851  0.7453 -0.2626
 5516TIP3    H240744   6.790   1.108  12.344  0.5411 -0.4951  0.0377
 5517TIP3   OH240745   5.652   7.570  17.300  0.2910 -0.1145 -0.3901
 5517TIP3    H140746   5.607   7.515  17.364 -0.8239  0.3575 -0.7571
 5517TIP3    H240747   5.630   7.659  17.325 -1.8759  0.0602 -2.6118
 5518TIP3   OH240748   0.788   5.536  11.615  0.1121 -0.3028 -1.0028
 5518TIP3    H140749   0.722   5.600  11.591 -0.5335  0.0103  1.3645
 5518TIP3    H240750   0.872   5.578  11.594 -0.3110  1.1915  0.1687
 5519TIP3   OH240751   2.914   2.197  12.506 -0.4268 -0.3703  0.2318
 5519TIP3    H140752   2.868   2.256  12.566  0.2099  0.0892  0.2720
 5519TIP3    H240753   2.971   2.145  12.563  0.1248  0.0168  0.0423
 5520TIP3   OH240754   0.466   5.179  11.708  0.0452 -0.2125  0.5429
 5520TIP3    H140755   0.560   5.197  11.701 -0.0561  0.4853  0.8429
 5520TIP3    H240756   0.461   5.087  11.733  0.6321 -0.4019  0.0031
 5521TIP3   OH240757   6.869   3.431  12.145  0.2341 -0.3115  0.0790
 5521TIP3    H140758   6.865   3.526  12.158  0.2269 -0.2680 -0.2272
 5521TIP3    H240759   6.957   3.406  12.172 -0.0204 -0.3363  0.9159
 5522TIP3   OH240760   6.412   2.551  12.267  0.4757 -0.6370  0.2511
 5522TIP3    H140761   6.330   2.533  12.313  0.1474  0.7401  0.2450
 5522TIP3    H240762   6.391   2.538  12.175  0.8711 -2.4278  0.3798
 5523TIP3   OH240763   3.642   2.217  11.508 -0.0399  0.1798  0.4168
 5523TIP3    H140764   3.599   2.154  11.449  0.3162  0.7335 -0.4571
 5523TIP3    H240765   3.721   2.171  11.538  0.0844  0.1109 -0.0077
 5524TIP3   OH240766   4.114   5.904  13.071 -0.3191  0.4953  0.6355
 5524TIP3    H140767   4.209   5.896  13.078 -0.1337 -2.2122 -2.5605
 5524TIP3    H240768   4.082   5.814  13.075 -2.7957  1.3322  1.4961
 5525TIP3   OH240769   4.157   1.876  12.402 -0.1327  0.6022 -0.2713
 5525TIP3    H140770   4.138   1.873  12.308 -0.8221 -0.1321 -0.1193
 5525TIP3    H240771   4.239   1.827  12.412 -1.4471 -1.7094 -0.1827
 5526TIP3   OH240772   2.132   3.116  13.123  0.1237 -0.2950 -0.2138
 5526TIP3    H140773   2.069   3.182  13.095  0.7427  0.2680 -0.3046
 5526TIP3    H240774   2.086   3.033  13.114 -1.9380  0.3001  3.1568
 5527TIP3   OH240775   5.404   8.612  12.405 -0.4414 -0.3089  0.4669
 5527TIP3    H140776   5.445   8.588  12.489 -0.5877  0.4293  0.7542
 5527TIP3    H240777   5.322   8.563  12.403  0.1664 -1.3397  0.1573
 5528TIP3   OH240778   8.117   6.256  11.759  0.2593  0.5928 -0.8505
 5528TIP3    H140779   8.067   6.216  11.688 -1.5876 -1.1721  1.2997
 5528TIP3    H240780   8.132   6.185  11.821  2.6884  1.8403  0.1317
 5529TIP3   OH240781   3.067   6.915  17.662  0.4524 -0.4353 -0.0806
 5529TIP3    H140782   3.113   6.859  17.724  0.8761  1.0454  0.9769
 5529TIP3    H240783   3.116   6.904  17.580  0.3194 -1.8455 -0.0084
 5530TIP3   OH240784   4.482   0.376  13.106 -0.8630 -0.2481  0.2664
 5530TIP3    H140785   4.467   0.282  13.100  0.7133 -0.4975 -0.3445
 5530TIP3    H240786   4.558   0.392  13.050 -1.3239  1.4568  0.0616
 5531TIP3   OH240787   8.818   9.190  11.764  0.1253  0.5500  0.2556
 5531TIP3    H140788   8.776   9.125  11.820 -1.2838 -0.3104 -1.6613
 5531TIP3    H240789   8.803   9.158  11.675 -1.3900  3.8921 -0.8580
 5532TIP3   OH240790   7.714   4.381  12.498 -0.5033  0.4969 -0.2926
 5532TIP3    H140791   7.753   4.326  12.566  0.4058  1.2897 -0.1474
 5532TIP3    H240792   7.624   4.394  12.528  0.0646  1.3953  1.1633
 5533TIP3   OH240793   5.727   7.431  12.626  0.0233  0.1963  0.5386
 5533TIP3    H140794   5.716   7.397  12.715  0.2463  0.2804  0.5975
 5533TIP3    H240795   5.644   7.411  12.582  0.5612 -1.4691  0.2211
 5534TIP3   OH240796   3.810   2.077  11.993 -0.0329  0.4516  0.3513
 5534TIP3    H140797   3.793   2.022  12.069  2.0331 -1.0868 -0.2095
 5534TIP3    H240798   3.823   2.165  12.029  1.3615 -0.3226  1.8937
 5535TIP3   OH240799   5.732   1.464  11.531 -0.2924  0.6103 -0.5623
 5535TIP3    H140800   5.761   1.408  11.604 -1.4050 -0.5445 -0.9603
 5535TIP3    H240801   5.803   1.460  11.468 -0.1188  0.0872 -0.3423
 5536TIP3   OH240802   1.073   6.856  11.973 -0.1913 -0.5352  0.4953
 5536TIP3    H140803   1.125   6.789  12.018  0.1901  0.2111  1.1942
 5536TIP3    H240804   0.999   6.808  11.936 -0.5881 -1.1659  2.0249
 5537TIP3   OH240805   6.727   8.566  13.181  0.4080 -0.2702 -0.1864
 5537TIP3    H140806   6.747   8.650  13.140  2.2625  0.0371  1.1830
 5537TIP3    H240807   6.683   8.590  13.263  2.0077 -0.5148  0.7889
 5538TIP3   OH240808   4.049   8.022  13.659  0.3385 -0.1174  0.0619
 5538TIP3    H140809   3.991   8.005  13.733  0.7076 -0.3857  0.2975
 5538TIP3    H240810   4.044   8.116  13.644 -0.8638 -0.2523 -0.5162
 5539TIP3   OH240811   4.984   2.690  11.868  0.1941  0.3256  0.6683
 5539TIP3    H140812   5.055   2.721  11.924  0.9837 -0.9287  0.4027
 5539TIP3    H240813   5.025   2.625  11.811 -1.0556 -0.0230  0.1399
 5540TIP3   OH240814   0.386   8.085  12.875  0.1760 -0.2215  0.5523
 5540TIP3    H140815   0.329   8.031  12.820 -0.8291  3.0565 -1.9427
 5540TIP3    H240816   0.469   8.087  12.827  0.4992 -0.2349  1.1049
 5541TIP3   OH240817   4.153   3.836  13.506 -0.0479 -0.0068 -0.4352
 5541TIP3    H140818   4.141   3.903  13.573 -0.2203  0.3316 -0.8017
 5541TIP3    H240819   4.097   3.764  13.535 -0.6545  0.4007 -0.5579
 5542TIP3   OH240820   1.650   2.830  11.407  0.5302  0.4839  0.0127
 5542TIP3    H140821   1.652   2.858  11.499  0.1747 -0.0350  0.1906
 5542TIP3    H240822   1.601   2.898  11.362 -0.2467  0.2163  0.4186
 5543TIP3   OH240823   2.875   6.683  11.839 -0.1109 -0.6108 -0.3077
 5543TIP3    H140824   2.815   6.744  11.796 -0.0408  0.0417  0.5077
 5543TIP3    H240825   2.834   6.665  11.924  0.7150 -0.3761  0.1416
 5544TIP3   OH240826   7.327   2.480  12.760  0.1603  0.3138 -0.2439
 5544TIP3    H140827   7.400   2.433  12.801  1.1040  1.2752 -0.7771
 5544TIP3    H240828   7.259   2.482  12.827  0.7808 -0.2224  0.4142
 5545TIP3   OH240829   0.398   3.549  12.788  0.9227  0.0204 -0.1552
 5545TIP3    H140830   0.339   3.507  12.850  0.6477  0.4005 -0.1542
 5545TIP3    H240831   0.432   3.625  12.835 -1.4643  1.9665 -1.3652
 5546TIP3   OH240832   8.898   7.668  13.457  0.0384  0.1517  0.3682
 5546TIP3    H140833   8.979   7.660  13.406 -0.5607  0.0067 -0.5850
 5546TIP3    H240834   8.876   7.578  13.483  0.3274  0.2219  0.8725
 5547TIP3   OH240835   7.038   3.835  12.535 -0.1333 -0.7790 -0.1111
 5547TIP3    H140836   7.036   3.795  12.448  0.0385  1.5482 -1.2551
 5547TIP3    H240837   7.086   3.772  12.589  1.3866 -1.4834 -2.1519
 5548TIP3   OH240838   8.080   7.391  11.430  0.4123 -0.1637  0.6202
 5548TIP3    H140839   8.172   7.399  11.454  0.4622  0.2706  0.2900
 5548TIP3    H240840   8.076   7.310  11.379  0.6734  0.0158  0.3184
 5549TIP3   OH240841   1.371   7.533  12.238  0.2123  0.0910 -0.2370
 5549TIP3    H140842   1.312   7.468  12.276 -0.5922  0.8483 -0.1592
 5549TIP3    H240843   1.447   7.482  12.209  0.1681 -0.7097  0.9717
 5550TIP3   OH240844   7.672   2.292  11.809 -0.3871 -0.3794  0.9427
 5550TIP3    H140845   7.631   2.351  11.873 -1.6570  2.6488 -2.3130
 5550TIP3    H240846   7.765   2.317  11.811  0.0193 -1.8063  2.9256
 5551TIP3   OH240847   1.689   6.512  13.193  0.2602  0.5992 -0.1585
 5551TIP3    H140848   1.612   6.505  13.250  0.4704  0.0327  0.0660
 5551TIP3    H240849   1.668   6.456  13.118  0.0480  1.2230 -0.5735
 5552TIP3   OH240850   0.808   2.278  13.224  0.0253  0.6618 -0.1029
 5552TIP3    H140851   0.799   2.281  13.319  0.3138  0.9717 -0.0852
 5552TIP3    H240852   0.901   2.293  13.208 -0.0505  0.7742 -0.4444
 5553TIP3   OH240853   3.427   3.618  12.157 -0.2443 -0.0674 -0.2416
 5553TIP3    H140854   3.459   3.531  12.180  1.6880  0.3583 -1.0727
 5553TIP3    H240855   3.343   3.603  12.115  1.2297 -1.8540 -2.8753
 5554TIP3   OH240856   0.776   1.536  12.376  0.0492  0.0785 -0.0972
 5554TIP3    H140857   0.790   1.452  12.331  0.2831  1.3133 -2.5258
 5554TIP3    H240858   0.712   1.516  12.444  0.8132 -2.2428  0.0628
 5555TIP3   OH240859   9.152   7.160  11.900 -0.4502 -0.2580  0.3709
 5555TIP3    H140860   9.234   7.161  11.948 -0.6380  1.3089  0.7090
 5555TIP3    H240861   9.178   7.156  11.808 -0.0415 -0.9984  0.5095
 5556TIP3   OH240862   3.489   2.096  12.937 -0.1858  0.1610 -0.2312
 5556TIP3    H140863   3.456   2.119  12.850 -0.8765 -0.5575 -0.1739
 5556TIP3    H240864   3.579   2.129  12.938 -0.8334  2.0606 -0.4457
 5557TIP3   OH240865   5.128   7.932  12.609  0.1556  0.0147  0.7641
 5557TIP3    H140866   5.139   7.852  12.558  0.0560 -0.8921  2.1117
 5557TIP3    H240867   5.130   7.903  12.700 -1.8473  1.2753  1.2740
 5558TIP3   OH240868   5.672   8.892  11.986 -0.2145 -0.0669 -0.2104
 5558TIP3    H140869   5.723   8.946  12.047  0.3829  1.1682 -1.7434
 5558TIP3    H240870   5.716   8.901  11.902 -2.2852  0.1281 -1.3616
 5559TIP3   OH240871   7.687   0.106  11.630  0.2555 -0.3939 -0.0304
 5559TIP3    H140872   7.753   0.170  11.603  0.7528 -0.9850 -0.2039
 5559TIP3    H240873   7.619   0.160  11.673  0.6049  0.2667 -0.2865
 5560TIP3   OH240874   6.825   3.964  12.066  0.2573  0.3548  0.2720
 5560TIP3    H140875   6.750   4.019  12.042  1.5910  2.0852 -0.1327
 5560TIP3    H240876   6.858   3.929  11.984  0.6165  0.5768  0.3197
 5561TIP3   OH240877   4.489   7.933  11.846  0.0112 -0.4846 -0.1720
 5561TIP3    H140878   4.452   8.019  11.825  1.3177  0.0992 -0.1771
 5561TIP3    H240879   4.583   7.945  11.839  0.2028 -2.2091 -1.2358
 5562TIP3   OH240880   3.668   2.473  11.943 -0.5092  0.4662  0.7095
 5562TIP3    H140881   3.702   2.428  11.865  1.6468  5.3710 -1.6720
 5562TIP3    H240882   3.713   2.432  12.016 -0.7358 -2.7854 -0.8151
 5563TIP3   OH240883   2.729   1.816  13.443  0.8364  0.2619  0.2945
 5563TIP3    H140884   2.715   1.723  13.424  0.9156  0.7309 -2.3426
 5563TIP3    H240885   2.824   1.824  13.453  1.1418  0.4501 -2.2196
 5564TIP3   OH240886   5.415   4.569  12.823  0.0685  0.2367 -0.4610
 5564TIP3    H140887   5.440   4.552  12.732  0.6285  0.1087 -0.2907
 5564TIP3    H240888   5.341   4.628  12.817 -0.3682 -0.3512 -1.0216
 5565TIP3   OH240889   1.915   7.837  12.911 -1.0804  0.4001 -0.2820
 5565TIP3    H140890   1.960   7.766  12.865 -1.0098 -1.0335  1.8699
 5565TIP3    H240891   1.841   7.859  12.855 -1.2507 -1.5731 -0.8863
 5566TIP3   OH240892   5.255   5.374  12.480 -0.1815 -0.2017 -0.6258
 5566TIP3    H140893   5.320   5.307  12.458 -1.6105 -1.4982 -1.1012
 5566TIP3    H240894   5.220   5.346  12.565 -0.7836 -0.0678 -0.8222
 5567TIP3   OH240895   8.130   5.975  12.758  0.3183 -0.0938 -0.3524
 5567TIP3    H140896   8.190   5.984  12.684 -1.1933 -2.7381 -2.0602
 5567TIP3    H240897   8.048   6.013  12.727 -1.1686 -3.6520 -1.3112
 5568TIP3   OH240898   0.610   2.823  13.417  0.2124  0.1888  0.4042
 5568TIP3    H140899   0.693   2.865  13.442 -0.3627  1.1700  0.7076
 5568TIP3    H240900   0.554   2.833  13.493 -0.8186  1.2280 -0.4630
 5569TIP3   OH240901   2.207   0.768  11.886 -0.0101  0.4098 -0.5930
 5569TIP3    H140902   2.196   0.862  11.876  2.1902  1.0314  1.8644
 5569TIP3    H240903   2.277   0.758  11.951 -0.0811 -2.9268 -0.8407
 5570TIP3   OH240904   3.965   4.170  12.399 -0.0178  0.1820 -0.2932
 5570TIP3    H140905   3.929   4.100  12.346  0.3895  0.0053 -0.3426
 5570TIP3    H240906   4.022   4.218  12.339  1.0223 -0.4556  0.1507
 5571TIP3   OH240907   3.539   2.464  11.629 -0.0440 -0.3555  0.5889
 5571TIP3    H140908   3.559   2.378  11.590 -0.0976 -1.2142  2.3552
 5571TIP3    H240909   3.624   2.507  11.637  0.0588 -0.4977  0.2958
 5572TIP3   OH240910   3.096   6.991  12.218 -0.0314  0.2854 -0.5963
 5572TIP3    H140911   3.061   6.902  12.208 -0.9410  0.6154 -0.5151
 5572TIP3    H240912   3.024   7.048  12.189 -0.0363  1.0381  0.7848
 5573TIP3   OH240913   4.268   1.358  11.550 -0.6892  0.1868  0.1833
 5573TIP3    H140914   4.209   1.429  11.525 -0.3386 -0.1409 -1.7477
 5573TIP3    H240915   4.347   1.403  11.581 -0.6524  0.6695 -0.5695
 5574TIP3   OH240916   5.486   6.687  11.867 -0.1759  0.3520 -0.0697
 5574TIP3    H140917   5.544   6.734  11.807 -0.1349 -1.4868 -1.5574
 5574TIP3    H240918   5.544   6.630  11.916 -0.5795 -0.9000 -0.9914
 5575TIP3   OH240919   0.468   5.442  13.474  0.3423  0.0251 -0.0189
 5575TIP3    H140920   0.422   5.502  13.533  0.0854 -0.9302  0.7633
 5575TIP3    H240921   0.457   5.356  13.513 -0.4596 -0.7518 -1.8583
 5576TIP3   OH240922   6.530   6.618  12.970  0.2772  0.2853  0.8475
 5576TIP3    H140923   6.578   6.589  13.047  2.7916  3.1048  0.5293
 5576TIP3    H240924   6.457   6.670  13.004  0.8065  0.7038  1.3484
 5577TIP3   OH240925   8.025   2.170  13.340  0.8096  0.3230 -0.0790
 5577TIP3    H140926   8.014   2.075  13.337  1.1353  0.2831 -0.0006
 5577TIP3    H240927   7.935   2.204  13.348  0.6451  0.0546 -0.7415
 5578TIP3   OH240928   5.382   3.311  13.004  0.1575 -0.0856  0.1084
 5578TIP3    H140929   5.455   3.334  12.947 -0.3215 -0.7728 -0.8140
 5578TIP3    H240930   5.420   3.253  13.069  0.2600 -1.2433 -0.9543
 5579TIP3   OH240931   4.770   3.668  11.980  0.2707  0.3634 -0.1263
 5579TIP3    H140932   4.805   3.638  11.897 -1.9015 -0.6716 -0.7525
 5579TIP3    H240933   4.700   3.606  12.000 -0.7092  1.8599  1.3677
 5580TIP3   OH240934   7.216   3.145  13.014 -0.0441  0.0618 -0.0905
 5580TIP3    H140935   7.157   3.074  12.988 -0.5299 -0.1843  1.5391
 5580TIP3    H240936   7.165   3.225  13.003 -1.0225 -0.1976  1.9749
 5581TIP3   OH240937   4.568   1.721  13.690 -0.1090 -0.9037  0.0886
 5581TIP3    H140938   4.612   1.796  13.730 -1.0453 -1.1021  1.5500
 5581TIP3    H240939   4.544   1.751  13.603  0.5579  0.0936  0.2327
 5582TIP3   OH240940   2.903   1.232  12.341 -0.4116  0.9095  0.0551
 5582TIP3    H140941   2.954   1.296  12.290 -0.2391  0.2951 -0.5548
 5582TIP3    H240942   2.966   1.193  12.401 -0.7349  2.0516  1.1757
 5583TIP3   OH240943   3.746   4.418  12.460 -0.0902  0.1173  0.2930
 5583TIP3    H140944   3.841   4.427  12.468  0.0495 -0.2070 -0.8226
 5583TIP3    H240945   3.734   4.345  12.399 -1.0539  0.2646  0.2922
 5584TIP3   OH240946   1.341   3.048  12.498 -0.4412 -0.7182  0.3454
 5584TIP3    H140947   1.248   3.067  12.483  0.0352  1.0829 -0.7113
 5584TIP3    H240948   1.385   3.131  12.481  1.2474 -1.1296  2.3410
 5585TIP3   OH240949   6.019   8.651  12.590 -0.0328 -0.0529  0.1498
 5585TIP3    H140950   5.958   8.578  12.582 -1.3222  1.1162 -1.4826
 5585TIP3    H240951   5.973   8.715  12.644 -0.2623  0.8106 -1.0327
 5586TIP3   OH240952   8.753   1.722  11.789 -0.5233  0.1185  0.1996
 5586TIP3    H140953   8.839   1.728  11.747 -0.7555  1.5250 -0.1540
 5586TIP3    H240954   8.708   1.652  11.742 -0.2537  0.6850 -0.9486
 5587TIP3   OH240955   1.502   6.294  12.004 -0.1144  0.4986 -0.9079
 5587TIP3    H140956   1.438   6.322  12.070  1.2308 -0.5503  0.9722
 5587TIP3    H240957   1.538   6.376  11.970 -1.1741  1.0831 -0.6871
 5588TIP3   OH240958   7.265   8.253  11.972  0.0654  0.3654 -0.3985
 5588TIP3    H140959   7.292   8.163  11.992  2.2871  1.1367  0.3513
 5588TIP3    H240960   7.290   8.303  12.049 -0.2662  1.8033 -1.1888
 5589TIP3   OH240961   3.816   5.499  12.850  0.9408  0.6339 -0.0828
 5589TIP3    H140962   3.860   5.563  12.906 -1.2255  0.9451  1.3901
 5589TIP3    H240963   3.787   5.431  12.910 -0.0920  0.1845 -1.0584
 5590TIP3   OH240964   4.238   0.117  12.463  0.0923  0.2979  0.2451
 5590TIP3    H140965   4.186   0.157  12.393 -0.8262  0.0634  0.7779
 5590TIP3    H240966   4.177   0.058  12.507  1.0345 -0.6202  0.3713
 5591TIP3   OH240967   1.592   8.213  12.768 -0.4646  0.1582  0.6389
 5591TIP3    H140968   1.566   8.172  12.685 -1.5687 -0.9131  1.4756
 5591TIP3    H240969   1.511   8.252  12.801 -0.1216  0.2335  1.4005
 5592TIP3   OH240970   4.375   1.747  12.477 -0.4967 -0.9411 -0.4346
 5592TIP3    H140971   4.348   1.696  12.553 -0.9368 -0.9692 -0.6082
 5592TIP3    H240972   4.464   1.777  12.498 -0.9616 -0.1683  0.4804
 5593TIP3   OH240973   2.162   7.499  12.232 -0.7098 -0.0366  0.2849
 5593TIP3    H140974   2.258   7.498  12.234 -0.7013 -0.8256 -0.2904
 5593TIP3    H240975   2.140   7.591  12.221  0.0683 -0.0929 -2.5935
 5594TIP3   OH240976   3.060   7.360  12.143  0.0774  0.3131 -0.4310
 5594TIP3    H140977   3.143   7.348  12.098  0.9180  1.6497  0.6767
 5594TIP3    H240978   2.997   7.309  12.092  1.6997 -1.3708 -0.8401
 5595TIP3   OH240979   7.367   3.281  13.305 -0.0370 -0.2064 -0.3790
 5595TIP3    H140980   7.277   3.298  13.333  0.2815 -1.7807  1.8447
 5595TIP3    H240981   7.398   3.365  13.271 -1.7727  0.8074  0.4280
 5596TIP3   OH240982   3.903   3.481  11.561  0.7269  0.0957 -0.3821
 5596TIP3    H140983   3.875   3.566  11.528  0.5247 -0.0370 -0.5516
 5596TIP3    H240984   3.865   3.417  11.500 -0.7657 -0.2311  0.8164
 5597TIP3   OH240985   7.051   2.288  12.825 -0.1387 -0.8238 -0.2829
 5597TIP3    H140986   7.070   2.197  12.848 -0.2222 -1.3644 -2.1913
 5597TIP3    H240987   7.093   2.300  12.741 -1.1985  0.5222 -0.6475
 5598TIP3   OH240988   2.632   7.522  13.603  0.8596  0.1531 -0.7191
 5598TIP3    H140989   2.678   7.568  13.532  2.9372 -1.7706 -0.7226
 5598TIP3    H240990   2.688   7.447  13.624 -1.9501 -1.9754 -0.1775
 5599TIP3   OH240991   6.624   0.609  12.017 -0.4619 -0.1213 -0.1578
 5599TIP3    H140992   6.625   0.689  12.069  1.3851 -0.7238  0.8427
 5599TIP3    H240993   6.672   0.630  11.937 -0.2294 -0.1400 -0.0243
 5600TIP3   OH240994   0.346   0.837  12.843  0.3313  0.1554 -0.0080
 5600TIP3    H140995   0.261   0.849  12.801 -0.1492  0.7785  1.1128
 5600TIP3    H240996   0.398   0.788  12.779 -1.3515 -1.5950 -0.1110
 5601TIP3   OH240997   2.730   0.907  12.601  0.1831 -0.2604  0.4024
 5601TIP3    H140998   2.660   0.854  12.564  0.2868  0.0714 -0.2816
 5601TIP3    H240999   2.689   0.954  12.673 -0.0494 -0.8229  0.6414
 5602TIP3   OH241000   6.212   8.999  12.512 -0.2220  0.3731  0.5621
 5602TIP3    H141001   6.287   8.987  12.569 -0.4902 -0.1381  0.8164
 5602TIP3    H241002   6.143   9.032  12.569 -0.5952 -0.4633  0.6249
 5603TIP3   OH241003   3.599   8.171  12.842  0.2150  0.0415  0.1558
 5603TIP3    H141004   3.617   8.163  12.936  0.7148 -0.9949 -0.0122
 5603TIP3    H241005   3.641   8.253  12.817 -0.9472  0.9454  1.0601
 5604TIP3   OH241006   8.186   2.286  12.715  0.2169  0.1360  0.0519
 5604TIP3    H141007   8.267   2.307  12.762  1.2376 -0.0329 -1.5604
 5604TIP3    H241008   8.183   2.191  12.714  0.7606  0.1132 -1.0837
 5605TIP3   OH241009   0.990   5.316  13.437 -0.0888  0.0418  0.2547
 5605TIP3    H141010   0.928   5.366  13.384 -0.1771  0.6370  0.8999
 5605TIP3    H241011   0.994   5.230  13.395 -1.0909  0.1041  0.0030
 5606TIP3   OH241012   0.093   4.775  12.677 -0.4412 -0.2902 -0.0027
 5606TIP3    H141013   0.035   4.714  12.630 -0.5714 -0.5592  0.4927
 5606TIP3    H241014   0.041   4.854  12.688 -0.9401 -0.7181  0.9206
 5607TIP3   OH241015   6.324   4.827  11.982 -0.0755  0.0602  0.7554
 5607TIP3    H141016   6.411   4.799  12.010 -0.4288 -1.1337  0.7203
 5607TIP3    H241017   6.329   4.825  11.886 -0.2669 -0.4410  0.7534
 5608TIP3   OH241018   4.950   4.261  11.970  0.0623  0.3196  0.1905
 5608TIP3    H141019   4.943   4.211  12.051 -0.1449 -1.7859 -1.0404
 5608TIP3    H241020   4.859   4.274  11.942  0.1145  1.3945  0.4597
 5609TIP3   OH241021   6.312   5.750  12.786  0.1841 -0.4967  0.2180
 5609TIP3    H141022   6.394   5.739  12.834  0.6959  1.1378 -0.2142
 5609TIP3    H241023   6.244   5.747  12.854  0.9211  2.1748  1.1961
 5610TIP3   OH241024   7.540   2.181  13.259  0.0658 -0.3009 -0.7699
 5610TIP3    H141025   7.584   2.097  13.263 -1.1789 -0.9509 -0.2017
 5610TIP3    H241026   7.600   2.242  13.303  0.1416 -1.2888  0.5510
 5611TIP3   OH241027   0.112   5.752  13.342 -0.3746 -0.1154  0.1853
 5611TIP3    H141028   0.036   5.806  13.363 -0.7641  0.5739 -2.5735
 5611TIP3    H241029   0.082   5.662  13.349 -1.5123  0.1519 -0.9626
 5612TIP3   OH241030   5.429   2.089  11.971  0.2440  0.0421 -1.0292
 5612TIP3    H141031   5.505   2.100  12.028 -0.5595 -1.0531  0.3211
 5612TIP3    H241032   5.462   2.041  11.895  1.3539  1.6226 -1.6059
 5613TIP3   OH241033   7.365   3.409  12.304  0.2108  0.7114 -0.0776
 5613TIP3    H141034   7.396   3.499  12.295  0.8999  0.3119 -2.4210
 5613TIP3    H241035   7.287   3.405  12.249  1.6846 -0.7203 -2.2145
 5614TIP3   OH241036   7.943   7.727  12.886  0.7172  0.0116 -0.0417
 5614TIP3    H141037   7.886   7.736  12.962  0.0615 -0.7019 -0.4329
 5614TIP3    H241038   7.989   7.810  12.880  0.0076  0.4500  0.5213
 5615TIP3   OH241039   1.287   1.305  11.946 -0.0988 -0.4149 -0.0519
 5615TIP3    H141040   1.337   1.378  11.909 -1.0072  0.9355  1.2351
 5615TIP3    H241041   1.308   1.230  11.890 -0.5229  1.2135 -2.5884
 5616TIP3   OH241042   3.103   8.997  11.897  0.3660 -0.0296 -0.1985
 5616TIP3    H141043   3.042   9.071  11.887 -2.0337 -1.8931 -0.1175
 5616TIP3    H241044   3.142   9.010  11.984 -1.2783  0.2932  0.5288
 5617TIP3   OH241045   7.508   4.376  12.688  0.3021  0.3291 -0.1117
 5617TIP3    H141046   7.559   4.396  12.766 -1.0815  0.2188  0.8618
 5617TIP3    H241047   7.427   4.426  12.700 -0.2736 -0.3526 -1.0786
 5618TIP3   OH241048   0.797   0.927  11.872  0.2611 -0.2760 -0.2854
 5618TIP3    H141049   0.764   0.984  11.803 -0.6380 -0.1513  0.2252
 5618TIP3    H241050   0.861   0.980  11.920 -0.0515  0.0639 -0.2444
 5619TIP3   OH241051   1.330   1.584  11.505  0.3390  0.0363 -0.1038
 5619TIP3    H141052   1.281   1.664  11.489  0.4497 -0.3470 -2.6852
 5619TIP3    H241053   1.266   1.514  11.497  0.7676 -0.2949 -0.7207
 5620TIP3   OH241054   7.087   8.347  12.617  0.4932 -0.3094  0.0638
 5620TIP3    H141055   7.159   8.301  12.575 -1.2821 -1.5297 -1.8579
 5620TIP3    H241056   7.076   8.305  12.702  2.3971  0.3501  0.6886
 5621TIP3   OH241057   0.946   1.434  12.765 -0.0775  0.0480  0.3863
 5621TIP3    H141058   0.880   1.400  12.825  0.8552  0.9138  1.9769
 5621TIP3    H241059   1.023   1.380  12.780  0.7860  1.4898  1.4736
 5622TIP3   OH241060   1.038   2.254  12.553  1.1632 -0.4061 -0.1542
 5622TIP3    H141061   1.080   2.175  12.586  1.6700  0.5853  1.7504
 5622TIP3    H241062   0.949   2.250  12.589  2.2375  1.5448  3.1082
 5623TIP3   OH241063   8.293   0.121  11.821 -0.0357  0.2055  0.1859
 5623TIP3    H141064   8.313   0.214  11.809 -0.8118  0.2759 -0.7392
 5623TIP3    H241065   8.200   0.119  11.844  0.0077 -0.3346  0.3443
 5624TIP3   OH241066   6.106   2.921  12.475 -0.0407  0.3104  0.5445
 5624TIP3    H141067   6.067   2.991  12.529  0.3517  0.6585  0.3834
 5624TIP3    H241068   6.189   2.958  12.446  0.8498 -0.7753  1.6406
 5625TIP3   OH241069   8.706   8.362  12.005  0.4282 -0.0586  0.2983
 5625TIP3    H141070   8.723   8.399  11.918 -1.5731 -0.3856 -0.2741
 5625TIP3    H241071   8.791   8.327  12.033  0.7397 -1.7923 -2.4390
 5626TIP3   OH241072   5.966   5.037  13.438  0.2277  0.1891  0.5730
 5626TIP3    H141073   5.955   4.949  13.401 -0.3661  0.2260  0.6542
 5626TIP3    H241074   6.051   5.034  13.481  0.4285 -0.1980  0.1582
 5627TIP3   OH241075   6.480   7.179  11.868 -0.2153  0.0258  0.2266
 5627TIP3    H141076   6.575   7.190  11.875 -0.2902  0.7289  0.2847
 5627TIP3    H241077   6.468   7.114  11.799  0.3014  0.2203 -0.0529
 5628TIP3   OH241078   4.745   0.520  12.483 -0.6500  0.4542 -0.1203
 5628TIP3    H141079   4.663   0.538  12.529  0.3597 -2.2865  3.2299
 5628TIP3    H241080   4.800   0.596  12.502 -1.1209  0.5128  1.1487
 5629TIP3   OH241081   4.918   4.137  12.219  0.3538 -0.0240 -0.4915
 5629TIP3    H141082   4.996   4.192  12.232 -0.1015  0.6813 -0.6462
 5629TIP3    H241083   4.945   4.050  12.248  0.8018  0.4817  0.7063
 5630TIP3   OH241084   2.441   3.347  12.937  0.1888  0.8976  0.3334
 5630TIP3    H141085   2.361   3.376  12.893 -0.0301 -1.0904 -0.7211
 5630TIP3    H241086   2.417   3.341  13.029 -1.1596 -0.3310 -0.0431
 5631TIP3   OH241087   2.645   4.770  13.354  0.0253  0.2212 -0.4840
 5631TIP3    H141088   2.674   4.856  13.324  3.4213 -1.4269 -2.5479
 5631TIP3    H241089   2.624   4.723  13.273 -2.4556 -0.7579  0.6401
 5632TIP3   OH241090   7.728   5.827  12.451  0.2857  0.2242 -0.0396
 5632TIP3    H141091   7.639   5.846  12.422  0.1859 -0.3801 -0.1552
 5632TIP3    H241092   7.784   5.855  12.378  0.0181 -1.5262 -0.9688
 5633TIP3   OH241093   2.035   2.648  13.832 -0.7235 -0.0114  0.5630
 5633TIP3    H141094   1.990   2.702  13.898 -1.8433  0.8002 -0.8176
 5633TIP3    H241095   2.001   2.679  13.748  0.0764 -1.5589 -0.3768
 5634TIP3   OH241096   1.753   2.823  12.591 -0.7500  0.1257  0.1986
 5634TIP3    H141097   1.844   2.794  12.600 -0.6578 -0.8478 -2.6665
 5634TIP3    H241098   1.759   2.911  12.553 -0.8543 -1.0479 -2.8099
 5635TIP3   OH241099   7.488   6.443  12.956 -0.0367 -0.3168  1.0506
 5635TIP3    H141100   7.508   6.357  12.918 -1.7084  0.8821 -3.1732
 5635TIP3    H241101   7.552   6.502  12.916 -1.6537  0.9891  0.2489
 5636TIP3   OH241102   5.857   3.715  11.928  0.4522 -0.0474  0.5826
 5636TIP3    H141103   5.927   3.652  11.913  0.4593  0.1141 -0.0721
 5636TIP3    H241104   5.900   3.801  11.922  0.1562  0.0603 -0.0862
 5637TIP3   OH241105   3.975   0.438  13.270 -0.5451 -0.2142 -0.1742
 5637TIP3    H141106   3.888   0.435  13.308 -0.0621  1.6392  1.2566
 5637TIP3    H241107   3.982   0.526  13.233  0.4080 -0.6354 -1.0410
 5638TIP3   OH241108   3.295   0.326  12.090 -0.7798 -0.7666  0.3688
 5638TIP3    H141109   3.273   0.397  12.149  0.8667 -0.0609  0.2013
 5638TIP3    H241110   3.224   0.324  12.026 -0.7261  0.9268  0.2128
 5639TIP3   OH241111   3.516   3.340  13.032 -0.1779  0.1725 -0.3277
 5639TIP3    H141112   3.484   3.309  13.116 -0.0276  1.5627  0.2732
 5639TIP3    H241113   3.594   3.287  13.014 -0.1252 -0.0331  0.4874
 5640TIP3   OH241114   6.260   8.717  12.737  0.9268  0.3782  0.5577
 5640TIP3    H141115   6.181   8.713  12.683  2.0087 -0.9530 -1.0423
 5640TIP3    H241116   6.254   8.800  12.784 -1.2181  0.4685  0.1980
 5641TIP3   OH241117   7.726   2.941  12.536 -0.2706 -0.2371  0.3936
 5641TIP3    H141118   7.749   2.923  12.445 -1.5617  0.7392 -0.1635
 5641TIP3    H241119   7.644   2.894  12.549 -0.3237 -0.0047  0.9083
 5642TIP3   OH241120   7.509   1.719  11.406  0.2417 -0.6468 -0.0712
 5642TIP3    H141121   7.451   1.750  11.337  0.6264 -1.2181 -0.6616
 5642TIP3    H241122   7.463   1.740  11.487 -0.0789  0.2972 -0.4879
 5643TIP3   OH241123   2.536   0.305  13.013 -0.1285 -0.7845  0.1836
 5643TIP3    H141124   2.613   0.292  12.958 -0.4144 -0.0212 -0.4202
 5643TIP3    H241125   2.570   0.343  13.094  0.0453  0.5895 -0.4974
 5644TIP3   OH241126   1.558   6.696  12.543  0.0064  0.0541  0.0996
 5644TIP3    H141127   1.486   6.667  12.488  0.1665  2.7788 -1.7529
 5644TIP3    H241128   1.630   6.635  12.524 -0.3913  0.0964 -1.6872
 5645TIP3   OH241129   1.412   9.149  12.165 -0.5674 -0.1801 -0.5794
 5645TIP3    H141130   1.393   9.235  12.202 -2.1883 -0.8484  0.2360
 5645TIP3    H241131   1.335   9.096  12.185  0.2671 -1.7556 -1.3059
 5646TIP3   OH241132   5.877   3.407  13.133 -0.5199 -0.0971  0.2485
 5646TIP3    H141133   5.844   3.386  13.220  0.2537  2.9110  1.3564
 5646TIP3    H241134   5.814   3.469  13.097  0.3920  0.4792 -0.3962
 5647TIP3   OH241135   8.656   3.123  13.411  0.5603  0.0553  0.5447
 5647TIP3    H141136   8.744   3.123  13.373 -0.0166 -0.1532 -0.8580
 5647TIP3    H241137   8.644   3.212  13.444  1.2556  0.1196  0.6363
 5648TIP3   OH241138   1.608   4.915  13.285  0.1862  0.0727 -0.1705
 5648TIP3    H141139   1.549   4.900  13.212 -1.2891  0.4003  0.9138
 5648TIP3    H241140   1.649   5.000  13.266 -0.9041  0.6117 -0.1649
 5649TIP3   OH241141   2.487   7.767  13.672 -0.4247  0.0184  0.0292
 5649TIP3    H141142   2.556   7.834  13.672 -0.8893  0.5137 -1.2243
 5649TIP3    H241143   2.520   7.698  13.615 -1.7602  1.1478 -2.2248
 5650TIP3   OH241144   6.057   0.953  11.803  0.1447 -0.0450 -0.0207
 5650TIP3    H141145   6.117   0.882  11.826  0.6528  0.8246  1.5104
 5650TIP3    H241146   6.001   0.916  11.734  2.0952 -1.0424 -1.1621
 5651TIP3   OH241147   3.686   0.769  13.461  0.0885  0.5032 -0.5204
 5651TIP3    H141148   3.746   0.768  13.535  1.3830  0.1207 -1.5392
 5651TIP3    H241149   3.612   0.822  13.491  0.4117  0.0606  1.1468
 5652TIP3   OH241150   2.587   4.449  13.733 -0.5588  0.3471 -0.0782
 5652TIP3    H141151   2.626   4.468  13.647  0.7787 -0.1619  0.3914
 5652TIP3    H241152   2.566   4.535  13.769 -0.5600  0.5960 -0.6599
 5653TIP3   OH241153   8.389   2.678  12.517  0.1569 -0.3949 -0.0001
 5653TIP3    H141154   8.359   2.589  12.538 -0.3470 -0.1341  0.3901
 5653TIP3    H241155   8.378   2.685  12.422  0.3142 -0.7943 -0.0481
 5654TIP3   OH241156   4.259   1.760  13.356 -0.1691 -0.2725  0.3397
 5654TIP3    H141157   4.229   1.670  13.346  0.2559 -0.4462  0.5908
 5654TIP3    H241158   4.269   1.793  13.267 -0.3581 -0.4624  0.2498
 5655TIP3   OH241159   0.049   2.812  11.951  0.6445  0.0020  0.5179
 5655TIP3    H141160   0.045   2.780  12.042 -1.5062  2.8802  1.5948
 5655TIP3    H241161   0.012   2.741  11.899 -1.7664 -0.3120  2.4569
 5656TIP3   OH241162   4.824   7.119  13.053  0.2144 -0.6702  0.1057
 5656TIP3    H141163   4.739   7.149  13.022  0.8949 -0.0538 -1.2049
 5656TIP3    H241164   4.836   7.164  13.137 -0.2381  0.1236 -0.2532
 5657TIP3   OH241165   7.451   3.542  13.228  0.4189 -0.3844 -0.0936
 5657TIP3    H141166   7.369   3.575  13.263 -0.6762 -2.3054 -0.6657
 5657TIP3    H241167   7.515   3.611  13.246 -0.7674  0.1448  2.6197
 5658TIP3   OH241168   6.453   1.496  11.912  0.0577  0.0968 -0.6449
 5658TIP3    H141169   6.489   1.450  11.988 -1.8125 -0.4482 -0.0497
 5658TIP3    H241170   6.446   1.428  11.844  1.0326  0.4241 -1.1005
 5659TIP3   OH241171   2.599   8.732  12.012  0.0197 -0.5122  0.3338
 5659TIP3    H141172   2.582   8.684  11.930  0.8466  1.7195 -1.2451
 5659TIP3    H241173   2.694   8.743  12.013  0.1123 -1.2229  2.0849
 5660TIP3   OH241174   4.193   1.751  11.922  0.2892  0.4645  0.4793
 5660TIP3    H141175   4.281   1.781  11.947  0.4848 -0.1255  0.5137
 5660TIP3    H241176   4.195   1.657  11.937 -0.8532  0.6339  2.0228
 5661TIP3   OH241177   2.746   0.283  12.454  0.1207  0.1155  0.0045
 5661TIP3    H141178   2.678   0.271  12.520  1.2835 -1.7564  0.9804
 5661TIP3    H241179   2.820   0.231  12.486  0.6595 -1.1372 -2.9006
 5662TIP3   OH241180   7.757   3.083  13.090 -0.0298 -0.1581  0.0996
 5662TIP3    H141181   7.667   3.110  13.109 -0.1808  0.3993 -1.2525
 5662TIP3    H241182   7.752   3.046  13.002  1.0412 -0.2657  0.0734
 5663TIP3   OH241183   0.937   0.668  12.074 -0.0411 -0.0289 -0.0745
 5663TIP3    H141184   1.019   0.635  12.036  0.7665  1.0969  0.6365
 5663TIP3    H241185   0.873   0.658  12.004  1.0860  0.6585 -1.2526
 5664TIP3   OH241186   1.206   4.602  13.792  0.9583 -0.0832  0.2509
 5664TIP3    H141187   1.188   4.689  13.827  0.8402  0.1620 -0.4156
 5664TIP3    H241188   1.130   4.550  13.817  0.2391  0.4368 -0.8112
 5665TIP3   OH241189   2.225   2.507  13.688  0.8840  0.2381 -0.4701
 5665TIP3    H141190   2.305   2.551  13.715  1.7267 -2.2068  1.5180
 5665TIP3    H241191   2.160   2.535  13.753  1.3969 -1.2236  0.7392
 5666TIP3   OH241192   8.770   6.346  13.427 -0.0520  0.3340  0.1926
 5666TIP3    H141193   8.774   6.428  13.378 -0.0302  0.3122  0.1586
 5666TIP3    H241194   8.688   6.353  13.477 -1.0746 -0.4573 -1.2980
 5667TIP3   OH241195   1.993   4.974  12.348 -0.0423  0.4327 -0.0478
 5667TIP3    H141196   2.031   4.889  12.324 -1.7445 -0.1590 -0.8184
 5667TIP3    H241197   2.002   5.027  12.269 -0.5399  0.3835 -0.1396
 5668TIP3   OH241198   6.115   6.508  13.056  0.2208 -0.3660  0.3376
 5668TIP3    H141199   6.177   6.569  13.016  1.0871  0.0897  2.2304
 5668TIP3    H241200   6.085   6.554  13.135 -0.9759 -1.4256  0.5331
 5669TIP3   OH241201   2.181   1.673  11.869  0.1803 -0.4090 -0.4373
 5669TIP3    H141202   2.190   1.752  11.816  2.5910  0.7987  1.5608
 5669TIP3    H241203   2.151   1.606  11.808  2.5999  0.9173 -3.3487
 5670TIP3   OH241204   3.562   7.416  12.052 -0.0181 -0.0324  0.0766
 5670TIP3    H141205   3.577   7.499  12.006  2.2027  0.5476  1.6840
 5670TIP3    H241206   3.613   7.353  12.002 -1.7464 -0.5126 -1.1750
 5671TIP3   OH241207   8.308   2.375  12.462 -0.2150  0.0647 -0.5916
 5671TIP3    H141208   8.383   2.325  12.431  1.2356  2.2094 -0.7965
 5671TIP3    H241209   8.291   2.341  12.550  0.9649 -0.5188 -0.5689
 5672TIP3   OH241210   7.405   7.374  13.142 -0.1233 -0.0805  0.6831
 5672TIP3    H141211   7.435   7.465  13.138 -0.8246  0.1089 -1.3385
 5672TIP3    H241212   7.483   7.322  13.123 -0.4661  0.3285 -2.4578
 5673TIP3   OH241213   2.948   1.428  12.017  0.7679  0.1747  0.0632
 5673TIP3    H141214   3.034   1.387  12.028  1.9408  2.6845  0.9580
 5673TIP3    H241215   2.929   1.467  12.103 -0.4931  1.0480 -0.5840
 5674TIP3   OH241216   6.506   0.672  12.622 -0.0183  0.4014 -0.1602
 5674TIP3    H141217   6.461   0.687  12.705 -2.9113 -0.9793 -1.3076
 5674TIP3    H241218   6.527   0.578  12.623 -0.7464  0.2069 -1.2345
 5675TIP3   OH241219   7.706   1.288  12.140  0.0454  0.2144 -0.5364
 5675TIP3    H141220   7.679   1.197  12.147 -0.0688  0.1797 -1.3536
 5675TIP3    H241221   7.641   1.329  12.083  0.4349  0.6609 -0.6754
 5676TIP3   OH241222   7.891   5.299  13.020 -0.6303 -0.0582 -0.2282
 5676TIP3    H141223   7.799   5.278  13.008 -0.7348  1.4653 -2.8812
 5676TIP3    H241224   7.892   5.387  13.058 -0.2525 -0.3445  0.4465
 5677TIP3   OH241225   6.990   6.071  11.848 -0.2759  0.0104 -0.0748
 5677TIP3    H141226   6.977   6.104  11.937  1.1040 -2.5430  1.1785
 5677TIP3    H241227   6.963   5.979  11.853  2.7473 -1.0489 -1.4283
 5678TIP3   OH241228   8.052   7.233  13.147 -0.0830  0.3801  0.3552
 5678TIP3    H141229   8.107   7.275  13.213 -0.9688  1.8011  0.2223
 5678TIP3    H241230   8.037   7.144  13.181  1.5357  0.2546  0.8101
 5679TIP3   OH241231   5.524   0.477  12.361 -0.0398  0.0222 -0.2362
 5679TIP3    H141232   5.534   0.561  12.407  1.5122 -0.7542  0.9532
 5679TIP3    H241233   5.441   0.442  12.392  0.9197 -0.4391  2.0220
 5680TIP3   OH241234   8.619   5.930  13.245 -0.3397  0.1086 -0.1647
 5680TIP3    H141235   8.602   5.892  13.159 -0.1238 -0.6063  0.0981
 5680TIP3    H241236   8.559   6.004  13.251 -0.3929  0.1323 -0.9064
 5681TIP3   OH241237   1.651   5.154  13.187 -0.3249  0.2797  0.2524
 5681TIP3    H141238   1.683   5.223  13.130  0.5301 -0.3002  0.0187
 5681TIP3    H241239   1.632   5.198  13.270  0.5308  0.7323  0.2129
 5682TIP3   OH241240   6.953   7.898  12.430  0.0699  0.9279  0.0176
 5682TIP3    H141241   6.982   7.905  12.521  0.2319 -0.4321  0.0953
 5682TIP3    H241242   7.030   7.923  12.379  0.8420 -0.7922  0.2514
 5683TIP3   OH241243   2.332   3.344  12.055 -0.1222 -0.1617  0.2134
 5683TIP3    H141244   2.260   3.281  12.047  0.8629 -1.1906 -0.9143
 5683TIP3    H241245   2.408   3.297  12.022  1.0289  0.9978  1.1468
 5684TIP3   OH241246   4.893   3.930  12.581  0.2875  0.0135  0.0295
 5684TIP3    H141247   4.929   3.915  12.494 -1.6915  1.5408 -1.1495
 5684TIP3    H241248   4.857   3.846  12.608 -1.1316  0.0183 -1.6953
 5685TIP3   OH241249   6.454   9.163  11.956 -0.2212 -0.1948  0.0866
 5685TIP3    H141250   6.455   9.081  12.005 -0.6671 -0.0461  0.3482
 5685TIP3    H241251   6.434   9.137  11.866  1.6355 -0.5815 -0.2609
 5686TIP3   OH241252   4.129   3.726  12.156  0.1651  0.1928  0.1108
 5686TIP3    H141253   4.145   3.792  12.224  1.7635 -0.5615  0.5110
 5686TIP3    H241254   4.206   3.732  12.098 -0.6157  0.0209 -0.9826
 5687TIP3   OH241255   1.891   7.454  13.696  0.0632 -0.2844 -0.3834
 5687TIP3    H141256   1.883   7.363  13.724 -0.5854 -0.0486  0.2107
 5687TIP3    H241257   1.807   7.473  13.653 -0.3029  0.4143  0.6224
 5688TIP3   OH241258   3.189   4.195  11.280 -0.2080  0.2095 -0.2251
 5688TIP3    H141259   3.142   4.196  11.197 -0.2558  0.2641 -0.1976
 5688TIP3    H241260   3.175   4.282  11.317 -2.2630 -0.5655  0.9920
 5689TIP3   OH241261   0.523   2.676  12.283 -0.1875  0.5963 -0.1938
 5689TIP3    H141262   0.532   2.599  12.227 -0.0438  0.7051 -0.3230
 5689TIP3    H241263   0.485   2.643  12.364  0.4346  0.2852 -0.0241
 5690TIP3   OH241264   5.123   4.932  13.029 -0.2379  0.4711 -0.0456
 5690TIP3    H141265   5.134   4.839  13.007  0.3914  0.4116  0.4861
 5690TIP3    H241266   5.114   4.976  12.945 -0.2544 -0.0438 -0.3137
 5691TIP3   OH241267   0.594   8.303  12.154  0.0610  0.1087 -0.2322
 5691TIP3    H141268   0.531   8.320  12.224  0.8849 -0.1989  0.6100
 5691TIP3    H241269   0.549   8.330  12.074 -1.6182 -1.2328  0.1847
 5692TIP3   OH241270   1.209   5.420  11.964  0.2114  0.2406 -0.2034
 5692TIP3    H141271   1.277   5.415  11.896  2.0890  0.5652  1.5727
 5692TIP3    H241272   1.256   5.412  12.046 -1.8755  1.0206  1.1433
 5693TIP3   OH241273   1.840   5.705  13.437 -0.5369 -0.1619 -0.0878
 5693TIP3    H141274   1.774   5.657  13.486 -0.5605  0.4268  0.4682
 5693TIP3    H241275   1.918   5.650  13.440 -1.0923 -1.0364 -1.0677
 5694TIP3   OH241276   6.679   3.252  12.424 -0.1786  0.0746 -0.2271
 5694TIP3    H141277   6.737   3.304  12.368 -0.6097  1.2266  0.3545
 5694TIP3    H241278   6.683   3.163  12.388  1.8031  0.1555 -0.2924
 5695TIP3   OH241279   1.895   1.513  12.525  0.2246  0.4538 -0.3836
 5695TIP3    H141280   1.849   1.576  12.470 -0.2140  2.0288  1.6725
 5695TIP3    H241281   1.935   1.566  12.594  0.1427 -1.4853  1.2433
 5696TIP3   OH241282   1.851   8.112  12.468  0.5439 -0.0075 -0.1284
 5696TIP3    H141283   1.765   8.149  12.484 -0.3372 -1.0871 -2.0070
 5696TIP3    H241284   1.895   8.116  12.553 -0.3593  2.9372  0.3125
 5697TIP3   OH241285   3.761   6.143  12.774 -0.3145 -0.1543  0.2436
 5697TIP3    H141286   3.852   6.116  12.758 -0.0666  0.5701  0.3402
 5697TIP3    H241287   3.708   6.072  12.739  0.2678 -0.0943 -0.8155
 5698TIP3   OH241288   3.041   6.075  12.027  0.1208 -0.1049  0.1109
 5698TIP3    H141289   3.075   6.143  12.086  1.1758 -1.7931  1.5410
 5698TIP3    H241290   3.103   6.003  12.036 -0.4408 -0.9433 -2.0924
 5699TIP3   OH241291   6.378   3.888  11.820 -0.2334  0.2348 -0.3008
 5699TIP3    H141292   6.389   3.818  11.884  2.0142  1.5906  0.8986
 5699TIP3    H241293   6.291   3.872  11.782 -0.5283 -2.1336  1.1772
 5700TIP3   OH241294   9.183   7.651  12.560  0.4381 -0.2703 -0.6024
 5700TIP3    H141295   9.150   7.702  12.486 -0.5420 -0.5889 -0.4060
 5700TIP3    H241296   9.244   7.710  12.604  0.9023 -0.0204 -1.5622
 5701TIP3   OH241297   7.775   7.589  12.718  0.2268 -0.2397 -0.0170
 5701TIP3    H141298   7.836   7.646  12.764 -2.0314  1.2902  1.2684
 5701TIP3    H241299   7.688   7.617  12.747 -1.2338 -1.1616 -3.0123
 5702TIP3   OH241300   3.886   5.195  12.724  0.1600 -0.6106  0.3392
 5702TIP3    H141301   3.957   5.177  12.785  0.2900  1.2999  0.8255
 5702TIP3    H241302   3.833   5.261  12.769 -1.3088 -1.2013 -0.4748
 5703TIP3   OH241303   2.362   6.782  13.521 -0.3102  0.4862  0.3809
 5703TIP3    H141304   2.371   6.702  13.573  1.1438 -0.5458 -1.3445
 5703TIP3    H241305   2.269   6.803  13.526 -0.3812 -0.1045  2.5530
 5704TIP3   OH241306   5.414   2.581  12.101  0.0905 -0.0011 -0.4601
 5704TIP3    H141307   5.348   2.538  12.156 -0.8765  0.2928 -1.3613
 5704TIP3    H241308   5.481   2.610  12.163 -0.8675  0.1363  0.5475
 5705TIP3   OH241309   3.466   6.747  13.211  0.2792  0.1369  0.0469
 5705TIP3    H141310   3.435   6.810  13.146  1.2495 -0.1763 -0.7474
 5705TIP3    H241311   3.487   6.668  13.160 -1.2153 -0.9590  1.0520
 5706TIP3   OH241312   5.910   1.217  12.858  0.0085  0.3780  0.1932
 5706TIP3    H141313   5.822   1.219  12.819  0.0120 -0.2263  0.1339
 5706TIP3    H241314   5.962   1.275  12.803 -0.3626  0.7684  0.2473
 5707TIP3   OH241315   5.955   5.414  12.835  0.3430 -0.2506 -0.3412
 5707TIP3    H141316   5.978   5.427  12.927 -1.0186  1.2013 -0.1612
 5707TIP3    H241317   5.888   5.345  12.837 -0.5190  0.5756 -0.1013
 5708TIP3   OH241318   8.245   8.901  11.978 -0.1535  0.4386  0.0391
 5708TIP3    H141319   8.153   8.924  11.963 -0.2546  0.0629  0.0792
 5708TIP3    H241320   8.242   8.831  12.042  0.1097 -0.2832 -0.7277
 5709TIP3   OH241321   1.399   0.755  13.187  0.7115  0.3289  0.1160
 5709TIP3    H141322   1.464   0.822  13.209 -0.7840  1.7439  0.3469
 5709TIP3    H241323   1.433   0.715  13.106  1.4426  1.6126 -0.2428
 5710TIP3   OH241324   8.748   0.686  13.111  0.7364 -0.4208  0.0114
 5710TIP3    H141325   8.675   0.626  13.129 -0.0106 -0.6893 -3.1799
 5710TIP3    H241326   8.810   0.633  13.061  2.2397  0.3247  1.0471
 5711TIP3   OH241327   3.043   3.640  11.781 -0.9302  0.0911  0.3126
 5711TIP3    H141328   2.949   3.656  11.767 -0.8699  2.3614  2.0112
 5711TIP3    H241329   3.085   3.722  11.758  0.2006  0.4722  3.3008
 5712TIP3   OH241330   2.158   1.062  11.615 -0.1971  0.4755 -0.3432
 5712TIP3    H141331   2.132   0.971  11.631  0.0309  0.2683 -1.1283
 5712TIP3    H241332   2.108   1.089  11.539 -0.7787  1.2454  0.2972
 5713TIP3   OH241333   7.124   5.717  13.335  0.0188 -0.2468 -0.2845
 5713TIP3    H141334   7.070   5.701  13.257 -1.2993 -0.9590  0.7395
 5713TIP3    H241335   7.123   5.634  13.383  0.8245  0.1763  0.4923
 5714TIP3   OH241336   1.842   1.427  11.976  0.3405 -0.7946  0.2734
 5714TIP3    H141337   1.767   1.465  11.929  1.0205 -1.2949 -1.2954
 5714TIP3    H241338   1.803   1.370  12.042 -0.6601 -0.0089  0.3902
 5715TIP3   OH241339   5.951   0.238  12.395 -0.0890  0.1482  0.0722
 5715TIP3    H141340   5.925   0.146  12.386 -0.0484  0.2173 -0.7387
 5715TIP3    H241341   5.874   0.280  12.435 -0.9015  0.1661 -1.4483
 5716TIP3   OH241342   4.664   4.657  12.620  1.2485 -0.8606 -0.6024
 5716TIP3    H141343   4.642   4.596  12.550  2.0145 -0.3525 -1.2984
 5716TIP3    H241344   4.698   4.734  12.576 -1.7630  1.0494  0.1346
 5717TIP3   OH241345   1.491   8.246  12.133 -0.3111 -0.2970 -0.1331
 5717TIP3    H141346   1.541   8.181  12.084 -0.6767  0.5519 -1.6952
 5717TIP3    H241347   1.537   8.253  12.217  0.3706 -1.7454 -0.3527
 5718TIP3   OH241348   2.798   5.628  13.477 -0.1615 -0.1129 -0.0815
 5718TIP3    H141349   2.810   5.563  13.407 -1.3882 -1.1880  0.6668
 5718TIP3    H241350   2.857   5.598  13.547 -0.2569 -0.0583  0.0219
 5719TIP3   OH241351   1.348   6.135  11.668  0.3136  0.0575 -0.6886
 5719TIP3    H141352   1.363   6.145  11.574 -1.1028  2.2642 -0.7421
 5719TIP3    H241353   1.313   6.219  11.697 -0.7796 -1.0478  1.5260
 5720TIP3   OH241354   1.080   1.492  11.965  0.4871 -0.4021  0.0407
 5720TIP3    H141355   1.130   1.411  11.954 -0.4492 -1.0338  0.3083
 5720TIP3    H241356   1.071   1.527  11.876 -0.1200 -1.2252 -0.2356
 5721TIP3   OH241357   2.562   2.390  11.598 -0.3761 -0.2017  0.4757
 5721TIP3    H141358   2.527   2.336  11.669 -0.0483 -0.1997  0.6430
 5721TIP3    H241359   2.485   2.427  11.555 -0.5699  0.1852  1.1341
 5722TIP3   OH241360   3.003   1.202  12.765  0.3458 -0.2167  0.0746
 5722TIP3    H141361   3.062   1.276  12.779 -0.8417  1.1020 -1.5287
 5722TIP3    H241362   3.059   1.124  12.778  2.0021  0.9465  0.2691
 5723TIP3   OH241363   5.743   3.594  12.175 -0.0857  0.0555  0.5462
 5723TIP3    H141364   5.773   3.627  12.259 -0.5605 -1.2810  1.2641
 5723TIP3    H241365   5.781   3.654  12.111 -1.4503  2.3749  1.7779
 5724TIP3   OH241366   3.863   1.021  11.690  0.6178 -0.5764 -0.2352
 5724TIP3    H141367   3.949   1.051  11.662  0.2771 -1.1933 -2.0649
 5724TIP3    H241368   3.808   1.100  11.685  0.7537 -0.4971 -0.5243
 5725TIP3   OH241369   5.614   5.119  12.662 -0.3038 -0.0972  0.9893
 5725TIP3    H141370   5.666   5.046  12.695  1.5156 -0.3716 -2.0690
 5725TIP3    H241371   5.656   5.197  12.697  0.1338 -0.4133  1.1674
 5726TIP3   OH241372   5.667   4.182  12.130  0.6251 -0.3337 -0.1000
 5726TIP3    H141373   5.596   4.242  12.151 -0.4644 -1.3957 -0.6599
 5726TIP3    H241374   5.722   4.183  12.209 -0.1312  0.3013  0.4457
 5727TIP3   OH241375   2.239   1.304  11.711 -0.5013  0.5017  0.1552
 5727TIP3    H141376   2.214   1.216  11.681 -0.4028 -0.1569  1.8865
 5727TIP3    H241377   2.334   1.301  11.716 -0.5355  0.5019  0.8066
 5728TIP3   OH241378   0.632   3.525  12.178  0.2772  0.5451  0.0896
 5728TIP3    H141379   0.569   3.527  12.106  0.7941  0.1352 -0.3773
 5728TIP3    H241380   0.579   3.501  12.255  0.0051 -0.6488 -0.4559
 5729TIP3   OH241381   1.961   3.999  13.392 -0.0269 -0.0438 -0.3267
 5729TIP3    H141382   1.929   4.086  13.416  0.4900  0.0606 -0.0103
 5729TIP3    H241383   2.050   3.996  13.426  0.1574 -0.4882 -0.8344
 5730TIP3   OH241384   5.627   3.879  13.446  0.1333 -0.6479 -0.5384
 5730TIP3    H141385   5.641   3.815  13.516  1.0765 -0.9093 -0.9519
 5730TIP3    H241386   5.654   3.834  13.366  1.1945  0.3879 -0.7844
 5731TIP3   OH241387   3.591   4.595  12.081  0.4709 -0.1596  0.2195
 5731TIP3    H141388   3.532   4.544  12.136  1.5256 -0.5614  1.0168
 5731TIP3    H241389   3.584   4.684  12.116  0.4716 -0.2462  0.4455
 5732TIP3   OH241390   0.061   4.065  13.602  0.0399  0.1930 -0.2149
 5732TIP3    H141391  -0.002   4.126  13.562  0.0922 -0.8026 -1.8926
 5732TIP3    H241392   0.145   4.110  13.594 -0.0170  0.1987 -0.8029
 5733TIP3   OH241393   3.680   7.671  12.452 -0.3956 -0.0914  0.2660
 5733TIP3    H141394   3.635   7.701  12.373 -0.7880 -1.4352 -0.0514
 5733TIP3    H241395   3.735   7.598  12.423 -1.7565 -1.6701  1.4525
 5734TIP3   OH241396   6.107   0.669  11.523  0.2428 -0.5857 -0.1264
 5734TIP3    H141397   6.116   0.578  11.495  0.3666 -0.2293 -1.2760
 5734TIP3    H241398   6.072   0.715  11.447 -0.1444  0.2760  0.5464
 5735TIP3   OH241399   3.792   2.398  13.203  0.0377  0.1359 -0.4597
 5735TIP3    H141400   3.847   2.320  13.203  0.1260  0.1986 -0.5827
 5735TIP3    H241401   3.853   2.470  13.221 -0.0357  0.1822 -0.3954
 5736TIP3   OH241402   2.046   2.994  11.774  0.1277  0.2773  0.3323
 5736TIP3    H141403   1.960   3.025  11.801 -0.5945 -0.9430 -0.4570
 5736TIP3    H241404   2.030   2.907  11.739  1.6530  0.1353 -0.0870
 5737TIP3   OH241405   1.697   2.321  12.373 -0.0608  0.3216 -0.0427
 5737TIP3    H141406   1.623   2.285  12.324 -0.4168  1.2625 -0.2147
 5737TIP3    H241407   1.673   2.310  12.465 -0.4847  0.7357 -0.0990
 5738TIP3   OH241408   6.831   1.002  11.605 -0.5564  0.3109 -0.1078
 5738TIP3    H141409   6.859   1.094  11.603  0.5859 -0.0253 -0.1977
 5738TIP3    H241410   6.748   1.001  11.557 -1.7454  1.6608  1.7899
 5739TIP3   OH241411   1.385   5.446  12.393  0.5894 -0.3812  0.8612
 5739TIP3    H141412   1.424   5.457  12.480  2.8504  1.5991 -0.2850
 5739TIP3    H241413   1.341   5.529  12.376  0.2621 -0.7147  0.0458
 5740TIP3   OH241414   7.410   6.550  11.505  0.2936 -0.1285 -0.2004
 5740TIP3    H141415   7.440   6.558  11.595 -0.2781  0.5682 -0.0624
 5740TIP3    H241416   7.490   6.547  11.453  0.6272 -0.5315  0.3245
 5741TIP3   OH241417   1.681   3.621  11.732 -0.0895  0.3436  0.5400
 5741TIP3    H141418   1.590   3.629  11.704  0.2587 -1.7987 -1.4981
 5741TIP3    H241419   1.695   3.698  11.787 -2.4237  2.0666 -1.0197
 5742TIP3   OH241420   0.638   2.423  13.452 -0.3696  0.7482 -0.0559
 5742TIP3    H141421   0.724   2.409  13.413  0.1466 -2.1947  1.7961
 5742TIP3    H241422   0.657   2.454  13.541 -1.2977  1.3589 -0.0556
 5743TIP3   OH241423   7.546   7.273  17.895 -0.5441  0.2160 -0.1730
 5743TIP3    H141424   7.522   7.279  17.803 -0.1338 -1.9909 -0.4581
 5743TIP3    H241425   7.523   7.184  17.921  0.1156  0.5292  1.6354
 5744TIP3   OH241426   3.544   1.260  12.170  0.5098  0.2621 -0.2111
 5744TIP3    H141427   3.591   1.253  12.253  0.1963 -0.5220 -0.0867
 5744TIP3    H241428   3.591   1.201  12.111  0.8476  0.9600 -0.6563
 5745TIP3   OH241429   2.510   2.238  12.428  0.2918  0.1731  1.0201
 5745TIP3    H141430   2.446   2.236  12.499 -1.0439  1.3853 -0.1012
 5745TIP3    H241431   2.493   2.320  12.382  0.6875 -0.8430 -1.0778
 5746TIP3   OH241432   2.759   1.748  11.951  0.2760 -0.1503 -0.5684
 5746TIP3    H141433   2.791   1.809  12.018 -1.8521 -0.9403  1.3186
 5746TIP3    H241434   2.664   1.764  11.949  0.2949  0.0403 -3.6954
 5747TIP3   OH241435   3.737   7.762  12.761 -0.1552  0.5378  0.0520
 5747TIP3    H141436   3.691   7.693  12.713 -1.4709  0.4895  1.3097
 5747TIP3    H241437   3.828   7.752  12.734 -0.4564 -1.0754 -0.5278
 5748TIP3   OH241438   4.922   1.399  12.275 -0.3781  0.0439  0.3014
 5748TIP3    H141439   4.932   1.475  12.332  2.2309  0.5240 -0.6834
 5748TIP3    H241440   4.837   1.413  12.233 -0.6977  1.5428  1.3389
 5749TIP3   OH241441   0.338   1.368  12.382  0.3239  0.5179 -0.1546
 5749TIP3    H141442   0.316   1.450  12.338 -0.3746  1.0844  1.1724
 5749TIP3    H241443   0.255   1.339  12.420  0.4912 -0.9840 -0.8476
 5750TIP3   OH241444   5.780   8.146  11.885 -0.2889  0.2630  0.1645
 5750TIP3    H141445   5.815   8.200  11.814  1.8136 -1.7143 -0.4064
 5750TIP3    H241446   5.699   8.109  11.850  0.5619 -0.4369 -1.1396
 5751TIP3   OH241447   0.243   6.427  12.889  0.2478  0.2375 -0.0688
 5751TIP3    H141448   0.320   6.432  12.946 -0.2853 -1.4754  0.8685
 5751TIP3    H241449   0.280   6.423  12.801  1.1581  1.1720  0.2463
 5752TIP3   OH241450   9.177   1.671  12.638  0.5584  0.1804  0.3329
 5752TIP3    H141451   9.257   1.621  12.619  0.4263  0.0505  0.1198
 5752TIP3    H241452   9.114   1.605  12.667  0.5036  0.2752  0.4337
 5753TIP3   OH241453   8.762   7.307  11.979  0.2951  0.2051  0.2669
 5753TIP3    H141454   8.727   7.232  11.930 -2.4858  1.8954 -0.5952
 5753TIP3    H241455   8.778   7.273  12.067  0.3176 -1.6783 -0.4183
 5754TIP3   OH241456   0.988   1.293  11.778 -0.2789 -0.5831 -0.1239
 5754TIP3    H141457   1.058   1.256  11.723  0.2977 -1.2554  1.0262
 5754TIP3    H241458   0.922   1.323  11.715  0.6927 -0.6333 -1.2092
 5755TIP3   OH241459   7.210   7.936  11.683 -0.1832 -0.0975 -0.0581
 5755TIP3    H141460   7.149   7.998  11.644  1.3668  1.3329 -0.3324
 5755TIP3    H241461   7.247   7.888  11.609 -0.5733 -0.6079  0.0678
 5756TIP3   OH241462   4.407   4.791  13.571 -0.1452 -0.0351 -0.0825
 5756TIP3    H141463   4.403   4.795  13.476  1.0659  2.1086 -0.0986
 5756TIP3    H241464   4.323   4.825  13.601 -0.4836 -0.6091 -0.3766
 5757TIP3   OH241465   3.031   6.197  13.117 -0.2068 -0.3669  0.3595
 5757TIP3    H141466   3.093   6.217  13.187 -0.5399  1.0705  0.2892
 5757TIP3    H241467   2.974   6.274  13.114  0.7412  0.3504 -2.4769
 5758TIP3   OH241468   0.479   8.943  13.737 -0.6409 -0.1333 -0.3068
 5758TIP3    H141469   0.519   9.029  13.753  0.9849 -0.6897 -1.2466
 5758TIP3    H241470   0.413   8.960  13.670 -1.7250  0.7036  0.9081
 5759TIP3   OH241471   3.107   2.043  12.660  0.3042 -0.0054 -0.1737
 5759TIP3    H141472   3.192   2.087  12.657 -0.1544  1.1421  1.7374
 5759TIP3    H241473   3.066   2.077  12.740 -1.5360 -1.3006 -0.5182
 5760TIP3   OH241474   4.799   5.448  12.704  0.5191 -0.4863  0.0555
 5760TIP3    H141475   4.830   5.419  12.790  0.8866  2.8348  1.1896
 5760TIP3    H241476   4.867   5.508  12.673 -1.1856  1.0011 -0.9646
 5761TIP3   OH241477   0.588   0.439  12.415  0.2302 -0.1345  0.1810
 5761TIP3    H141478   0.629   0.526  12.411  0.1567 -0.0661  0.7606
 5761TIP3    H241479   0.565   0.419  12.324  0.7181  0.2258 -0.0276
 5762TIP3   OH241480   3.138   1.418  13.457  0.5384  0.1212  0.1522
 5762TIP3    H141481   3.140   1.388  13.366  2.6106  0.3789  0.0779
 5762TIP3    H241482   3.120   1.512  13.451  3.2714  0.6998 -0.2270
 5763TIP3   OH241483   6.757   7.647  12.545 -0.0896  0.4996 -0.1318
 5763TIP3    H141484   6.688   7.612  12.602 -1.5541  0.6021 -1.7521
 5763TIP3    H241485   6.725   7.735  12.522  0.9525  0.8299 -0.3640
 5764TIP3   OH241486   0.279   2.201  12.760  0.0280 -0.0420 -0.4213
 5764TIP3    H141487   0.200   2.231  12.805  0.3815 -0.1226  0.2698
 5764TIP3    H241488   0.267   2.107  12.751 -0.8486  0.1889 -2.1279
 5765TIP3   OH241489   5.015   8.572  13.218  0.4074  0.0022 -0.3242
 5765TIP3    H141490   5.058   8.545  13.299  0.7352  0.4415 -0.3442
 5765TIP3    H241491   5.008   8.492  13.166 -0.1345 -0.3524  0.2829
 5766TIP3   OH241492   3.303   5.603  13.261  0.0482  0.3554 -0.5405
 5766TIP3    H141493   3.211   5.622  13.279 -0.9642 -0.8995 -3.7851
 5766TIP3    H241494   3.341   5.689  13.241 -0.0083  1.0548  2.0179
 5767TIP3   OH241495   7.021   3.269  11.728  0.1361  0.3114  0.4198
 5767TIP3    H141496   7.112   3.291  11.706  0.6639 -1.7287  0.3585
 5767TIP3    H241497   7.029   3.203  11.797 -1.2050 -1.6060 -1.1589
 5768TIP3   OH241498   5.832   8.413  11.825  0.1013  0.4198  0.2766
 5768TIP3    H141499   5.906   8.387  11.879  0.0780  0.5016  0.3479
 5768TIP3    H241500   5.862   8.489  11.776  0.1852  0.2315  0.0315
 5769TIP3   OH241501   0.869   7.672  13.570 -0.5186  0.4635 -0.6263
 5769TIP3    H141502   0.910   7.758  13.574  1.6480 -0.5174 -0.3137
 5769TIP3    H241503   0.831   7.660  13.658  0.6216  0.4371 -0.1262
 5770TIP3   OH241504   6.873   1.591  12.776  1.1149 -0.1426 -0.7053
 5770TIP3    H141505   6.958   1.547  12.781  0.6467 -1.0073 -0.0487
 5770TIP3    H241506   6.893   1.683  12.790  1.9236 -0.3699 -0.2660
 5771TIP3   OH241507   5.889   6.327  12.152  0.2072  0.2701 -0.1120
 5771TIP3    H141508   5.845   6.242  12.153  0.1341  0.3065 -0.2071
 5771TIP3    H241509   5.847   6.375  12.080  0.6489  0.1725 -0.4413
 5772TIP3   OH241510   3.921   8.563  12.884  0.3975  0.4143  0.3619
 5772TIP3    H141511   3.891   8.645  12.924  1.9213  0.5496  1.2979
 5772TIP3    H241512   4.007   8.584  12.848  1.8322 -1.2769  2.5508
 5773TIP3   OH241513   5.353   4.411  13.038 -0.7878 -0.5021  0.0412
 5773TIP3    H141514   5.395   4.468  12.974  0.1751  2.0305  2.6730
 5773TIP3    H241515   5.293   4.469  13.085 -1.6087 -2.2821  1.2862
 5774TIP3   OH241516   4.235   7.657  13.496 -0.4301 -0.2415  0.5824
 5774TIP3    H141517   4.164   7.720  13.488  0.0927  0.1884 -1.5865
 5774TIP3    H241518   4.312   7.710  13.517  0.3130  0.2211 -2.6682
 5775TIP3   OH241519   8.879   1.197  13.553 -0.5420 -0.3206 -0.1897
 5775TIP3    H141520   8.831   1.124  13.516  0.1034 -2.0549  2.1542
 5775TIP3    H241521   8.881   1.263  13.483 -4.7162 -0.8088 -1.0086
 5776TIP3   OH241522   1.527   4.211  12.469  0.4726 -0.0905  0.2798
 5776TIP3    H141523   1.496   4.297  12.494 -0.2627 -0.4445  0.6105
 5776TIP3    H241524   1.466   4.182  12.402 -0.1323 -0.9292  1.1678
 5777TIP3   OH241525   0.993   8.965  12.022  0.2388 -1.0576 -0.2385
 5777TIP3    H141526   0.998   8.931  11.933 -2.7910  0.0431 -0.9628
 5777TIP3    H241527   0.904   8.944  12.051  0.2310  0.9746  1.4670
 5778TIP3   OH241528   5.117   3.666  11.881 -0.4835  0.6854 -0.1363
 5778TIP3    H141529   5.098   3.613  11.804 -0.1873 -1.2345  1.0468
 5778TIP3    H241530   5.195   3.716  11.857  0.6378 -1.1430 -0.5723
 5779TIP3   OH241531   0.993   5.681  13.236 -0.0231  0.2214 -0.1299
 5779TIP3    H141532   0.983   5.755  13.176 -1.8480 -1.3614 -1.8941
 5779TIP3    H241533   1.088   5.675  13.249  0.2962  1.7356 -1.3852
 5780TIP3   OH241534   7.957   3.192  12.800  0.6138 -0.2321  0.1819
 5780TIP3    H141535   8.033   3.166  12.851 -0.3797 -2.2230  0.7321
 5780TIP3    H241536   7.981   3.173  12.709  1.1559  0.1996  0.2260
 5781TIP3   OH241537   3.409   1.659  12.921  0.1066  0.3801  0.0704
 5781TIP3    H141538   3.406   1.622  12.833  3.7123 -1.1403  0.4191
 5781TIP3    H241539   3.337   1.616  12.967 -0.2213 -0.7770 -1.4409
 5782TIP3   OH241540   6.999   4.471  11.870 -0.3470  0.5880  0.1625
 5782TIP3    H141541   7.056   4.455  11.795  0.4978  0.3759  0.8245
 5782TIP3    H241542   6.999   4.388  11.918 -0.3437  0.9134  0.7338
 5783TIP3   OH241543   7.903   1.402  11.875  0.0250  0.5780  0.2226
 5783TIP3    H141544   7.880   1.478  11.928  0.7613  0.4472  0.7526
 5783TIP3    H241545   7.832   1.393  11.812 -1.6418 -0.1422  2.1028
 5784TIP3   OH241546   1.830   5.460  12.911 -0.5447  0.4276 -0.2985
 5784TIP3    H141547   1.853   5.371  12.938 -1.3944  0.8666  2.1218
 5784TIP3    H241548   1.911   5.496  12.875  0.0554 -0.9975 -0.4299
 5785TIP3   OH241549   5.108   3.939  13.215  0.1969  0.0583 -0.0257
 5785TIP3    H141550   5.078   3.848  13.212 -1.2180  0.4158  1.6408
 5785TIP3    H241551   5.192   3.935  13.261  0.4083 -0.4548 -0.4528
 5786TIP3   OH241552   0.759   1.636  11.714 -0.6076 -0.2301  0.1459
 5786TIP3    H141553   0.777   1.707  11.652  2.5874 -0.0263  1.1340
 5786TIP3    H241554   0.740   1.681  11.797 -0.6919 -0.5057  0.2765
 5787TIP3   OH241555   3.038   3.181  12.637  0.1203  0.3521  0.2044
 5787TIP3    H141556   3.126   3.143  12.631  0.4592  1.0170  0.8447
 5787TIP3    H241557   2.980   3.107  12.618  0.8179  0.4039 -2.6791
 5788TIP3   OH241558   0.669   7.070  13.171 -0.4373  0.4083  0.4522
 5788TIP3    H141559   0.696   6.981  13.191  1.3470  0.6103 -0.7498
 5788TIP3    H241560   0.726   7.125  13.226 -1.3996  0.8210  1.0587
 5789TIP3   OH241561   4.279   1.631  12.705  0.7070 -0.0204 -0.4176
 5789TIP3    H141562   4.274   1.711  12.756  1.7400  0.1147 -0.5097
 5789TIP3    H241563   4.217   1.571  12.748  1.2334  0.2352  0.7203
 5790TIP3   OH241564   8.562   6.004  12.418  0.1080  0.0888  0.0203
 5790TIP3    H141565   8.595   5.976  12.503  0.6770  0.4478 -0.0811
 5790TIP3    H241566   8.639   6.009  12.362  0.0853  2.0690  0.0867
 5791TIP3   OH241567   8.154   4.237  13.269 -0.2789  0.5318 -0.2953
 5791TIP3    H141568   8.228   4.238  13.330  0.4461  0.2483 -1.1516
 5791TIP3    H241569   8.180   4.297  13.199 -0.4434 -0.2757 -1.0674
 5792TIP3   OH241570   6.433   1.319  11.679 -0.5206  0.6246 -0.3221
 5792TIP3    H141571   6.376   1.272  11.740 -0.5742  1.2388  0.1047
 5792TIP3    H241572   6.469   1.250  11.622  1.2489 -0.3027  1.7671
 5793TIP3   OH241573   1.499   4.287  12.920  0.2075 -0.3044 -0.7904
 5793TIP3    H141574   1.501   4.254  12.830 -1.3915 -1.4659 -0.4554
 5793TIP3    H241575   1.414   4.330  12.927  0.6369  0.4504 -0.0294
 5794TIP3   OH241576   3.237   4.527  13.427 -0.0508  0.1824 -0.5091
 5794TIP3    H141577   3.253   4.537  13.333  1.0992  0.2089 -0.3282
 5794TIP3    H241578   3.320   4.496  13.462 -0.4411  0.2552  0.5179
 5795TIP3   OH241579   4.323   5.581  13.427  0.0259  0.7299  0.4475
 5795TIP3    H141580   4.407   5.562  13.385 -0.1177  1.7527 -0.3448
 5795TIP3    H241581   4.294   5.497  13.461  0.9888  0.2035  0.0097
 5796TIP3   OH241582   5.050   8.054  13.019 -0.0853 -0.2784 -0.2711
 5796TIP3    H141583   4.968   8.014  12.989 -0.2398 -0.2203  0.0657
 5796TIP3    H241584   5.064   8.127  12.959 -0.5308 -0.0020 -0.0461
 5797TIP3   OH241585   4.160   0.618  12.459  0.2162  0.1156  0.0604
 5797TIP3    H141586   4.237   0.602  12.405  0.0731  1.8329 -0.7020
 5797TIP3    H241587   4.112   0.686  12.413 -1.4442 -0.4662  0.8583
 5798TIP3   OH241588   3.227   6.260  11.752  0.0067 -0.5070 -0.0408
 5798TIP3    H141589   3.249   6.289  11.663  0.0583 -0.0164  0.1300
 5798TIP3    H241590   3.172   6.330  11.787  2.1866  0.6492  1.2971
 5799TIP3   OH241591   6.359   7.825  12.795 -0.8383  0.4251  0.1861
 5799TIP3    H141592   6.394   7.889  12.734  0.1871 -0.4076 -0.1283
 5799TIP3    H241593   6.380   7.859  12.882 -0.5607  0.6545  0.0279
 5800TIP3   OH241594   9.025   3.795  12.641  0.0307  0.1038 -0.2700
 5800TIP3    H141595   9.089   3.776  12.709  0.0775  1.6784  0.1798
 5800TIP3    H241596   8.960   3.851  12.685  0.1245  1.2402 -1.5128
 5801TIP3   OH241597   1.153   8.111  13.351  0.1830  0.4615  0.0986
 5801TIP3    H141598   1.090   8.103  13.279  0.6833  0.2955 -0.3234
 5801TIP3    H241599   1.205   8.188  13.330  1.5442 -0.6343 -0.6921
 5802TIP3   OH241600   3.623   1.537  11.551 -0.1485 -0.3770  0.0265
 5802TIP3    H141601   3.617   1.630  11.529  0.6292 -0.0361  1.2229
 5802TIP3    H241602   3.654   1.495  11.470 -0.6181  0.3645 -0.5542
 5803TIP3   OH241603   8.876   4.424  11.943  0.4439 -0.5483  0.2064
 5803TIP3    H141604   8.911   4.507  11.976  0.2155 -0.3814  0.0290
 5803TIP3    H241605   8.937   4.399  11.874  1.2064 -1.1488  1.0744
 5804TIP3   OH241606   0.219   0.611  11.754 -0.1059 -0.1777  0.0339
 5804TIP3    H141607   0.194   0.698  11.725  0.4080  0.0241  0.1801
 5804TIP3    H241608   0.140   0.576  11.795 -0.4265  0.0673 -0.3640
 5805TIP3   OH241609   5.439   6.929  13.107 -0.2617  0.7833  0.2366
 5805TIP3    H141610   5.364   6.872  13.090 -0.0311  0.3133  0.7632
 5805TIP3    H241611   5.479   6.894  13.187  1.1107  0.4046 -0.5753
 5806TIP3   OH241612   8.463   1.020  11.268  0.1779  0.0980 -0.6225
 5806TIP3    H141613   8.480   1.112  11.288 -1.7265  0.0346  1.8205
 5806TIP3    H241614   8.542   0.974  11.297  0.0671  0.7292  0.7455
 5807TIP3   OH241615   0.859   5.127  11.843  0.9878  0.0003  0.0564
 5807TIP3    H141616   0.823   5.166  11.763 -0.6855 -0.6986  0.4217
 5807TIP3    H241617   0.954   5.137  11.834  0.7353  1.9287 -0.9749
 5808TIP3   OH241618   1.024   6.666  12.967  0.0676  0.1907 -0.0249
 5808TIP3    H141619   1.018   6.757  12.998  1.8485 -0.2031  1.7225
 5808TIP3    H241620   1.076   6.622  13.034 -1.9925 -2.5144 -0.0686
 5809TIP3   OH241621   3.320   7.229  12.666  0.2940 -0.7106 -0.1517
 5809TIP3    H141622   3.355   7.291  12.602 -1.4138  1.4268  0.8812
 5809TIP3    H241623   3.249   7.184  12.620 -0.0377 -0.1583 -0.1827
 5810TIP3   OH241624   0.185   3.279  13.094  0.1873  0.5790 -0.7807
 5810TIP3    H141625   0.264   3.279  13.147  0.0869  0.3459 -0.6304
 5810TIP3    H241626   0.177   3.369  13.063  0.9200  0.4454 -1.4046
 5811TIP3   OH241627   0.210   8.681  11.881 -0.5954 -0.0576 -0.0054
 5811TIP3    H141628   0.250   8.768  11.880 -1.9135  0.5953 -1.6050
 5811TIP3    H241629   0.136   8.689  11.942 -0.9745  0.0773 -0.4800
 5812TIP3   OH241630   0.361   5.345  13.261 -0.4509  0.4803  0.4960
 5812TIP3    H141631   0.405   5.379  13.183  0.0269  0.3704  0.7108
 5812TIP3    H241632   0.418   5.372  13.333  1.8705 -3.5513  0.4967
 5813TIP3   OH241633   3.174   0.019  13.026 -0.5181 -0.3879  0.1928
 5813TIP3    H141634   3.210  -0.040  12.959  1.1108 -0.3728  0.9992
 5813TIP3    H241635   3.181  -0.031  13.108 -1.0800  0.1558  0.5808
 5814TIP3   OH241636   3.445   5.916  12.248  0.0267 -0.4586  0.0041
 5814TIP3    H141637   3.374   5.964  12.289  0.3762  0.7403 -0.7323
 5814TIP3    H241638   3.510   5.904  12.318 -0.4874 -0.7164  0.4380
 5815TIP3   OH241639   3.804   2.735  11.871 -0.0339 -0.1478 -0.1134
 5815TIP3    H141640   3.773   2.653  11.909  0.7954 -0.3742  0.0895
 5815TIP3    H241641   3.848   2.709  11.791  0.1429  0.1143 -0.1021
 5816TIP3   OH241642   5.940   2.015  11.924  0.2656 -0.6802 -0.7265
 5816TIP3    H141643   5.984   2.100  11.929 -0.3717 -0.3374 -0.6878
 5816TIP3    H241644   6.005   1.951  11.952  1.3450 -0.4269 -2.5105
 5817TIP3   OH241645   6.758   5.251  12.674  0.1731  0.3180  0.7718
 5817TIP3    H141646   6.849   5.277  12.691  0.1156  0.1256  1.3762
 5817TIP3    H241647   6.735   5.298  12.594  1.1284 -0.3948  0.0528
 5818TIP3   OH241648   6.018   2.797  12.961  0.1364  0.2370  0.0571
 5818TIP3    H141649   6.005   2.829  12.871  0.3063  3.4392  1.0634
 5818TIP3    H241650   5.935   2.817  13.005  0.1950 -0.9726  0.7563
 5819TIP3   OH241651   0.704   3.288  13.189 -0.4758 -0.2253  0.2549
 5819TIP3    H141652   0.738   3.320  13.105 -0.5087 -0.2898  0.2164
 5819TIP3    H241653   0.780   3.246  13.230 -0.1241  0.9233  0.8280
 5820TIP3   OH241654   5.119   8.274  12.808  0.4205  1.4955 -0.4298
 5820TIP3    H141655   5.212   8.288  12.791  0.2666  1.3875 -1.3863
 5820TIP3    H241656   5.075   8.308  12.730 -0.1123 -2.6081 -2.1440
 5821TIP3   OH241657   6.524   4.483  11.860  0.3551 -0.5089  0.0120
 5821TIP3    H141658   6.447   4.490  11.916  2.0315 -4.1358  3.2784
 5821TIP3    H241659   6.532   4.389  11.841  2.6595  0.0217 -2.2886
 5822TIP3   OH241660   0.880   8.391  13.544  0.3583 -0.1109  0.3672
 5822TIP3    H141661   0.805   8.395  13.486  1.6071  1.1381 -1.2700
 5822TIP3    H241662   0.887   8.299  13.570 -0.6326 -0.5711 -0.9292
 5823TIP3   OH241663   1.406   2.554  11.821 -0.2174  0.2395  0.6859
 5823TIP3    H141664   1.465   2.565  11.746 -0.9932 -3.4441 -0.6700
 5823TIP3    H241665   1.326   2.599  11.796  0.3239  1.0484  0.3742
 5824TIP3   OH241666   8.510   1.605  13.436 -0.2739  0.2413  0.1359
 5824TIP3    H141667   8.487   1.512  13.428 -0.4047  0.1059  1.7186
 5824TIP3    H241668   8.571   1.608  13.510 -0.4767  1.4452  0.2715
 5825TIP3   OH241669   3.711   8.398  12.729 -0.2769 -0.6795 -0.1116
 5825TIP3    H141670   3.772   8.471  12.745  0.8003 -1.1969 -1.6327
 5825TIP3    H241671   3.653   8.430  12.660 -1.7464 -0.2201  1.2758
 5826TIP3   OH241672   2.095   2.414  11.950 -0.2403 -0.0797 -0.0366
 5826TIP3    H141673   2.091   2.468  11.871 -0.1327 -0.1639 -0.0987
 5826TIP3    H241674   2.012   2.432  11.995  0.0352  0.5702  0.2225
 5827TIP3   OH241675   1.505   6.430  13.364 -0.5275 -0.0947  0.1791
 5827TIP3    H141676   1.439   6.489  13.400 -0.8811  1.3003 -2.5086
 5827TIP3    H241677   1.454   6.357  13.327 -0.3909 -0.1865  0.1729
 5828TIP3   OH241678   5.269   4.641  12.102  0.7409 -0.1608  0.2907
 5828TIP3    H141679   5.198   4.595  12.057  0.4323 -0.4549  1.0753
 5828TIP3    H241680   5.316   4.686  12.031 -1.1063  1.2624 -0.1209
 5829TIP3   OH241681   3.351   8.471  12.557  0.3261  0.2122 -0.1281
 5829TIP3    H141682   3.290   8.461  12.483 -0.5686 -0.8872  0.7178
 5829TIP3    H241683   3.437   8.476  12.516 -0.2081  0.3473 -1.2858
 5830TIP3   OH241684   1.110   2.454  12.716  0.3004 -0.1748  0.0556
 5830TIP3    H141685   1.033   2.432  12.768  0.3270 -0.9844 -0.2400
 5830TIP3    H241686   1.108   2.393  12.643  2.0133 -1.1875  0.8037
 5831TIP3   OH241687   3.631   2.227  13.581  0.3448 -0.1685 -0.0669
 5831TIP3    H141688   3.673   2.168  13.518 -0.6257 -0.7000 -0.2335
 5831TIP3    H241689   3.590   2.169  13.645  0.8716  0.3600  0.7681
 5832TIP3   OH241690   8.453   3.434  12.726  0.4999  0.2264 -0.1729
 5832TIP3    H141691   8.434   3.524  12.699  0.4472 -0.7681 -4.0551
 5832TIP3    H241692   8.371   3.387  12.712  1.0681 -0.7992 -0.1428
 5833TIP3   OH241693   1.470   4.955  13.830 -0.1613  0.4564 -0.4454
 5833TIP3    H141694   1.490   5.023  13.765 -2.5720  0.7574 -0.9812
 5833TIP3    H241695   1.406   4.996  13.888  1.0001 -0.2413  1.3972
 5834TIP3   OH241696   2.437   0.853  13.685 -0.1581 -0.4362 -0.3403
 5834TIP3    H141697   2.531   0.859  13.700 -0.5390  0.2784  2.1718
 5834TIP3    H241698   2.420   0.759  13.674  0.8050 -0.5784 -0.7167
 5835TIP3   OH241699   2.238   1.259  12.311 -0.7616 -0.1528  0.2549
 5835TIP3    H141700   2.185   1.324  12.265 -0.2261 -0.6925 -1.1833
 5835TIP3    H241701   2.297   1.310  12.366 -0.6265  0.5564 -0.5360
 5836TIP3   OH241702   1.173   0.843  11.452  0.6976  0.5484 -0.0208
 5836TIP3    H141703   1.242   0.823  11.515  1.2833 -0.1974 -0.8719
 5836TIP3    H241704   1.116   0.766  11.455  0.2392  0.8893  0.2175
 5837TIP3   OH241705   0.677   5.626  13.208 -0.0077  0.2955 -0.2103
 5837TIP3    H141706   0.772   5.634  13.217  0.1640 -1.8176  0.2188
 5837TIP3    H241707   0.644   5.627  13.297 -0.0670 -1.9223 -0.1591
 5838TIP3   OH241708   9.021   2.090  12.261 -0.0703  0.1053  0.6073
 5838TIP3    H141709   9.027   1.997  12.286 -0.4743  0.5294  2.3685
 5838TIP3    H241710   9.068   2.136  12.330  0.9878  1.1780 -0.7676
 5839TIP3   OH241711   3.011   4.303  13.251 -0.3573 -0.6454  0.5684
 5839TIP3    H141712   3.106   4.295  13.255 -0.3478 -0.1054  1.7346
 5839TIP3    H241713   2.994   4.334  13.162  0.7438  1.3862  1.0077
 5840TIP3   OH241714   3.945   6.818  13.260  0.6136  0.1977  0.3818
 5840TIP3    H141715   3.866   6.868  13.240 -0.4458 -1.9644 -1.3707
 5840TIP3    H241716   3.940   6.801  13.354 -1.2068 -0.1308  0.2612
 5841TIP3   OH241717   4.472   3.403  11.743  0.0191 -0.4929 -0.4101
 5841TIP3    H141718   4.477   3.452  11.825 -1.0312  0.8763 -1.1277
 5841TIP3    H241719   4.561   3.368  11.731  0.6646  0.7822  0.3978
 5842TIP3   OH241720   2.343   4.936  13.106  0.0201 -0.2954 -0.3192
 5842TIP3    H141721   2.318   4.960  13.017 -0.4720 -1.2665 -0.4572
 5842TIP3    H241722   2.438   4.933  13.105 -0.0020 -1.8401 -1.2675
 5843TIP3   OH241723   3.645   3.643  12.504 -0.0098  0.7771  0.2194
 5843TIP3    H141724   3.712   3.653  12.436  1.8088 -0.7703  1.6819
 5843TIP3    H241725   3.623   3.733  12.528  1.8809  1.3682 -0.0376
 5844TIP3   OH241726   4.967   1.123  12.315  0.0143 -0.4838  0.5067
 5844TIP3    H141727   4.916   1.113  12.396  0.8474 -0.5257  1.0321
 5844TIP3    H241728   4.980   1.217  12.307 -3.0041 -0.0784 -1.4490
 5845TIP3   OH241729   2.353   2.237  11.714 -0.1571  0.2885  0.1187
 5845TIP3    H141730   2.284   2.170  11.713 -0.7920  0.9284 -0.7433
 5845TIP3    H241731   2.317   2.307  11.768 -1.0575  1.4516 -1.8491
 5846TIP3   OH241732   5.093   0.514  12.706  0.2840  0.1655 -0.6039
 5846TIP3    H141733   4.998   0.514  12.722  0.0788  2.1011 -1.5324
 5846TIP3    H241734   5.119   0.423  12.720 -1.6547 -0.3654 -0.0461
 5847TIP3   OH241735   2.030   2.481  12.664 -0.0017  0.5792 -0.6396
 5847TIP3    H141736   2.002   2.395  12.695 -1.1862  0.2078 -2.5511
 5847TIP3    H241737   2.105   2.463  12.608 -1.6073  0.4077 -2.9011
 5848TIP3   OH241738   1.484   8.495  12.022  0.0937 -0.5645  0.8263
 5848TIP3    H141739   1.499   8.403  12.042  1.3867 -0.2471  1.4613
 5848TIP3    H241740   1.518   8.542  12.099  4.0198  0.6568 -1.4054
 5849TIP3   OH241741   6.155   7.890  12.166 -0.4929 -0.4954 -0.1935
 5849TIP3    H141742   6.127   7.888  12.075 -0.9778  0.2114 -0.0727
 5849TIP3    H241743   6.082   7.853  12.215  1.3352 -4.9774 -0.3714
 5850TIP3   OH241744   3.834   3.384  12.738  0.4727 -0.1356  0.1350
 5850TIP3    H141745   3.840   3.406  12.831  1.5019  1.9236 -0.3825
 5850TIP3    H241746   3.765   3.441  12.704  0.6809 -0.2771 -0.5398
 5851TIP3   OH241747   2.760   1.565  13.212 -0.4056  0.2987 -0.0235
 5851TIP3    H141748   2.769   1.571  13.307  0.9599  0.7697 -0.1613
 5851TIP3    H241749   2.838   1.608  13.177 -0.5658 -0.4215 -1.3549
 5852TIP3   OH241750   9.109   5.961  13.413  0.2876  0.6008  0.3976
 5852TIP3    H141751   9.035   5.903  13.393  0.1394  0.6471  0.8064
 5852TIP3    H241752   9.068   6.044  13.437  0.4890  0.7682  0.1672
 5853TIP3   OH241753   0.008   4.461  12.551 -0.1594  0.2512 -0.0435
 5853TIP3    H141754   0.035   4.542  12.507 -0.7797  1.9251  2.4146
 5853TIP3    H241755   0.073   4.449  12.621 -0.7332 -0.7051  0.3417
 5854TIP3   OH241756   2.262   2.755  11.888  0.2077 -0.0096  0.6202
 5854TIP3    H141757   2.221   2.836  11.858  1.2047  0.2661 -0.0543
 5854TIP3    H241758   2.212   2.730  11.966  0.2255  1.5533  1.1671
 5855TIP3   OH241759   4.641   3.197  13.308 -0.2137 -0.0654  0.2669
 5855TIP3    H141760   4.555   3.193  13.266 -0.0227  1.1367 -0.2790
 5855TIP3    H241761   4.646   3.285  13.345  1.2769  0.3544 -0.8409
 5856TIP3   OH241762   2.405   1.008  13.256 -0.4353  0.2076 -0.0168
 5856TIP3    H141763   2.336   0.954  13.294  1.1924 -2.9182 -1.1979
 5856TIP3    H241764   2.417   0.974  13.168  0.9077  2.3956 -0.7686
 5857TIP3   OH241765   3.116   2.056  13.085 -0.1740  0.7785 -0.1036
 5857TIP3    H141766   3.190   1.996  13.085 -0.7322  0.0571 -1.4784
 5857TIP3    H241767   3.131   2.113  13.161 -0.3864 -1.9719  2.1398
 5858TIP3   OH241768   6.715   2.424  12.655  0.7689  0.2220 -0.4368
 5858TIP3    H141769   6.755   2.508  12.630 -1.4850  1.2371 -0.8853
 5858TIP3    H241770   6.645   2.411  12.591 -1.3259 -0.1278  1.7838
 5859TIP3   OH241771   2.034   5.589  12.803 -0.0402  0.4302  0.2453
 5859TIP3    H141772   2.123   5.568  12.829 -0.3845 -0.3294  0.8558
 5859TIP3    H241773   2.037   5.590  12.707  0.3065 -1.1299  0.2093
 5860TIP3   OH241774   7.897   2.984  11.873  0.0040 -0.1223  0.4950
 5860TIP3    H141775   7.907   3.014  11.783  0.5644  2.2240  1.2809
 5860TIP3    H241776   7.821   2.925  11.870 -1.0179  1.1903 -1.2316
 5861TIP3   OH241777   0.854   2.290  12.292  0.0681  0.3045  0.3168
 5861TIP3    H141778   0.853   2.205  12.338  0.6161  0.9554  1.5876
 5861TIP3    H241779   0.856   2.355  12.363 -0.3691  1.3852 -0.6379
 5862TIP3   OH241780   0.043   2.696  12.201  0.5331  0.4086 -0.2651
 5862TIP3    H141781   0.102   2.635  12.245 -0.9692  0.5177  2.0696
 5862TIP3    H241782  -0.036   2.646  12.183  0.4381  0.8684 -1.1922
 5863TIP3   OH241783   4.402   5.332  13.010  0.0820  0.2192 -0.7615
 5863TIP3    H141784   4.393   5.393  12.937 -1.0489 -0.6524 -1.3773
 5863TIP3    H241785   4.312   5.307  13.032  0.5139 -1.7559 -0.9968
 5864TIP3   OH241786   6.940   4.973  13.303  0.4532 -0.2763  0.0241
 5864TIP3    H141787   6.964   5.037  13.237  0.7161  0.0428  0.4219
 5864TIP3    H241788   6.894   4.904  13.255  0.9419 -0.2171 -0.5348
 5865TIP3   OH241789   5.144   1.645  12.039  0.0870 -0.1487 -0.1674
 5865TIP3    H141790   5.169   1.735  12.019  0.0740 -0.0257  0.3582
 5865TIP3    H241791   5.191   1.592  11.974 -0.4879  0.2848 -0.9500
 5866TIP3   OH241792   3.304   6.879  13.640  0.3748  0.8649 -0.2360
 5866TIP3    H141793   3.354   6.906  13.563 -1.7953  0.8363 -1.7431
 5866TIP3    H241794   3.291   6.785  13.628  3.6676 -0.1462  2.4751
 5867TIP3   OH241795   4.219   5.678  12.841 -0.0217  0.3514  0.0263
 5867TIP3    H141796   4.220   5.659  12.935  0.6074  1.9294  0.3605
 5867TIP3    H241797   4.204   5.592  12.800  1.9295 -0.7675  1.4701
 5868TIP3   OH241798   6.245   4.075  12.533 -0.0334 -0.6386  0.0530
 5868TIP3    H141799   6.150   4.087  12.539 -0.2864 -2.6054  0.6311
 5868TIP3    H241800   6.282   4.151  12.578 -1.2476  1.1557 -1.8239
 5869TIP3   OH241801   4.184   6.544  13.383  0.3108  0.3637  0.3234
 5869TIP3    H141802   4.241   6.614  13.415  1.3566 -0.8109  1.1103
 5869TIP3    H241803   4.117   6.535  13.450  0.7640 -0.0459  0.7362
 5870TIP3   OH241804   2.916   8.778  12.020  0.2271 -0.0503 -0.1556
 5870TIP3    H141805   2.966   8.842  12.070  2.2257 -2.0668  0.5721
 5870TIP3    H241806   2.960   8.774  11.935 -0.5026  0.2411 -0.5590
 5871TIP3   OH241807   0.472   0.540  11.615 -0.7782  0.6248 -0.3441
 5871TIP3    H141808   0.474   0.608  11.682 -2.5108 -0.5937  1.0559
 5871TIP3    H241809   0.382   0.540  11.583 -0.8634 -1.0786 -0.1970
 5872TIP3   OH241810   3.445   7.863  12.581  0.8445  0.5128 -0.6452
 5872TIP3    H141811   3.492   7.916  12.517  1.2459 -0.5025 -1.2143
 5872TIP3    H241812   3.432   7.779  12.538  2.5095 -0.7377  1.1309
 5873TIP3   OH241813   8.154   3.374  13.130  0.0261 -0.2152  0.0239
 5873TIP3    H141814   8.071   3.353  13.173 -0.2272  0.4723 -0.1199
 5873TIP3    H241815   8.169   3.301  13.070 -1.5868  0.6748 -1.5653
 5874TIP3   OH241816   2.456   1.641  12.341 -0.3862  0.2920 -0.2023
 5874TIP3    H141817   2.409   1.724  12.350  0.9630  0.9155  1.7549
 5874TIP3    H241818   2.548   1.664  12.349 -0.0113 -1.4573  1.2452
 5875TIP3   OH241819   2.923   2.678  12.218 -0.4804  0.6261  0.3477
 5875TIP3    H141820   2.937   2.772  12.234 -0.8357  0.8540 -0.5719
 5875TIP3    H241821   2.991   2.654  12.156  0.0136  0.1029  1.0737
 5876TIP3   OH241822   3.443   3.463  12.505 -0.4795 -0.2591  0.0408
 5876TIP3    H141823   3.451   3.422  12.592 -1.3118 -0.3658  0.0790
 5876TIP3    H241824   3.511   3.531  12.504 -2.6378  2.1702  2.1782
 5877TIP3   OH241825   6.599   5.849  12.096 -0.5260  0.6511 -0.0003
 5877TIP3    H141826   6.540   5.893  12.157  0.4233 -0.6797  2.0031
 5877TIP3    H241827   6.638   5.778  12.148  0.7094 -0.2472 -2.0467
 5878TIP3   OH241828   5.615   2.964  11.882  0.3338  0.3608  0.5825
 5878TIP3    H141829   5.560   2.885  11.873  2.5942 -1.3732  1.1914
 5878TIP3    H241830   5.552   3.036  11.883 -2.0517 -1.5488  2.2333
 5879TIP3   OH241831   6.143   8.634  12.065 -0.0822  0.9654  0.2284
 5879TIP3    H141832   6.193   8.616  11.985  0.7918 -0.2184  0.9975
 5879TIP3    H241833   6.209   8.663  12.129 -0.3727 -0.4139  1.2030
 5880TIP3   OH241834   2.711   1.710  12.366  0.3754 -0.3592  0.7411
 5880TIP3    H141835   2.733   1.720  12.459  3.2994 -0.2708  0.1477
 5880TIP3    H241836   2.763   1.777  12.322 -1.5065  0.0788 -0.9363
 5881TIP3   OH241837   1.227   8.206  12.633 -0.2779 -0.1736  0.0271
 5881TIP3    H141838   1.294   8.186  12.567 -1.7462 -0.7883 -1.3413
 5881TIP3    H241839   1.174   8.127  12.639 -0.7463  0.2041  1.2878
 5882TIP3   OH241840   4.975   4.666  12.578  0.5471  0.4179 -0.1045
 5882TIP3    H141841   5.044   4.730  12.565  0.7572  0.0020 -1.1691
 5882TIP3    H241842   5.012   4.603  12.640  0.5211  1.0387  0.5598
 5883TIP3   OH241843   0.142   2.091  12.223 -0.7068 -0.0584  0.6133
 5883TIP3    H141844   0.107   2.176  12.196 -0.6230  0.1791  1.2276
 5883TIP3    H241845   0.200   2.112  12.297  0.9895 -0.3889 -0.5559
 5884TIP3   OH241846   3.669   6.856  12.507 -0.2834  0.1032  0.1790
 5884TIP3    H141847   3.715   6.775  12.484 -1.1528 -0.4648  0.3866
 5884TIP3    H241848   3.581   6.844  12.471 -0.4838  0.8655  0.4053
 5885TIP3   OH241849   4.088   7.342  12.953  0.0966 -0.0043 -0.7172
 5885TIP3    H141850   4.088   7.271  13.018  0.3875 -1.0897 -1.8639
 5885TIP3    H241851   4.119   7.418  13.002  2.7395 -1.3405 -0.1131
 5886TIP3   OH241852   6.373   2.715  12.764 -0.3456 -0.1323 -0.5551
 5886TIP3    H141853   6.467   2.699  12.773  0.4049  2.8236 -2.0700
 5886TIP3    H241854   6.351   2.681  12.678 -0.1536  1.0914 -1.1019
 5887TIP3   OH241855   4.008   7.701  12.674 -0.1088 -0.5075  0.1005
 5887TIP3    H141856   4.006   7.718  12.580  0.5156 -0.6610  0.0522
 5887TIP3    H241857   4.096   7.729  12.701 -0.5650  0.2988  0.7892
 5888TIP3   OH241858   2.068   7.068  12.685 -0.3275 -0.1403  0.2893
 5888TIP3    H141859   2.001   7.137  12.682 -0.1776  0.0349  0.9133
 5888TIP3    H241860   2.151   7.115  12.675 -0.2494 -0.2731  0.3221
 5889TIP3   OH241861   6.566   3.505  12.271 -0.3998 -0.2991 -0.0994
 5889TIP3    H141862   6.628   3.562  12.226 -3.4503  2.2218 -1.5727
 5889TIP3    H241863   6.525   3.455  12.201 -1.6083 -0.1624  0.4805
 5890TIP3   OH241864   6.984   5.719  13.105  0.5868  0.2967  0.4444
 5890TIP3    H141865   6.951   5.808  13.097  1.7252  0.6354 -0.7576
 5890TIP3    H241866   6.915   5.664  13.068  1.5590  1.0524 -2.7481
 5891TIP3   OH241867   2.142   2.064  11.744 -0.3681 -0.3831 -0.4118
 5891TIP3    H141868   2.048   2.053  11.754 -0.2599 -0.8089  0.2369
 5891TIP3    H241869   2.180   2.013  11.816  0.3705 -0.5849 -0.9276
 5892TIP3   OH241870   0.367   7.642  12.618  0.3666  0.5742  0.3126
 5892TIP3    H141871   0.435   7.590  12.575  2.0668  1.6667  1.5579
 5892TIP3    H241872   0.313   7.578  12.664  1.5606 -0.2182  0.6621
 5893TIP3   OH241873   4.113   3.555  11.722 -0.0916 -0.3652  0.0730
 5893TIP3    H141874   4.034   3.527  11.675 -0.7733  0.8165  0.4688
 5893TIP3    H241875   4.179   3.566  11.654 -0.1853 -1.5765 -0.2415
 5894TIP3   OH241876   5.349   8.929  12.601  0.2972 -0.2826  0.1764
 5894TIP3    H141877   5.405   9.006  12.609  1.1743 -1.0217  1.7122
 5894TIP3    H241878   5.355   8.904  12.509  0.5996  1.0316 -0.1715
 5895TIP3   OH241879   1.360   7.540  12.914 -0.2636 -1.0573  0.8737
 5895TIP3    H141880   1.335   7.514  13.003 -1.8923  0.8873  1.0565
 5895TIP3    H241881   1.441   7.590  12.927 -1.5968  1.0251  1.6035
 5896TIP3   OH241882   0.599   5.005  12.243  0.2671  0.3584  0.3061
 5896TIP3    H141883   0.611   5.082  12.187 -0.6383 -0.2298 -0.7360
 5896TIP3    H241884   0.570   5.041  12.327  1.4629  1.2445  0.3558
 5897TIP3   OH241885   8.392   2.658  11.488 -0.0784  0.0145  0.3308
 5897TIP3    H141886   8.451   2.686  11.558  0.0644  0.3803  0.0693
 5897TIP3    H241887   8.349   2.580  11.522 -1.5383  1.3199  1.6337
 5898TIP3   OH241888   3.670   1.721  13.752  0.2492  0.0371 -0.2089
 5898TIP3    H141889   3.720   1.640  13.745  1.2029  0.6767 -0.9615
 5898TIP3    H241890   3.722   1.786  13.705 -0.7274  0.9873 -0.0141
 5899TIP3   OH241891   8.603   3.011  12.609 -0.4694  0.1031  0.1964
 5899TIP3    H141892   8.650   2.949  12.665 -0.3799  0.8134  0.9094
 5899TIP3    H241893   8.671   3.049  12.553 -0.3931  0.2156  0.3673
 5900TIP3   OH241894   2.981   2.508  13.479  0.1831 -0.7518 -0.1096
 5900TIP3    H141895   3.043   2.553  13.536 -1.7664 -0.2224  1.7198
 5900TIP3    H241896   3.030   2.433  13.445  1.8779 -0.2301  1.0560
 5901TIP3   OH241897   0.121   4.316  11.571  0.1912  0.1029 -0.2902
 5901TIP3    H141898   0.134   4.226  11.600  0.1267 -0.2720 -1.3580
 5901TIP3    H241899   0.194   4.333  11.511 -0.3925  0.3697 -0.9418
 5902TIP3   OH241900   4.727   6.849  13.156 -0.6185  0.6033 -0.4477
 5902TIP3    H141901   4.773   6.933  13.156 -1.9583  1.3781 -0.1510
 5902TIP3    H241902   4.718   6.826  13.064 -1.9904  1.8308 -0.6614
 5903TIP3   OH241903   1.001   8.715  12.790  0.1982 -0.1299 -0.0246
 5903TIP3    H141904   0.914   8.753  12.781 -0.3448 -1.3275  0.0579
 5903TIP3    H241905   0.988   8.621  12.782  1.7144 -0.2498 -1.7678
 5904TIP3   OH241906   0.455   7.767  12.003 -0.0762 -0.3337 -0.1592
 5904TIP3    H141907   0.507   7.716  11.942  0.4972 -0.0012  0.0430
 5904TIP3    H241908   0.446   7.711  12.080  1.0794  0.0917  0.3057
 5905TIP3   OH241909   5.352   3.672  11.519 -0.1170  0.1079  0.2042
 5905TIP3    H141910   5.384   3.642  11.604  0.1547  1.7001  0.6898
 5905TIP3    H241911   5.398   3.755  11.504 -0.9008  0.3351 -1.0406
 5906TIP3   OH241912   4.893   1.270  11.585  0.6095 -0.3279  0.0421
 5906TIP3    H141913   4.905   1.324  11.663  0.0597  0.6421 -0.5291
 5906TIP3    H241914   4.962   1.298  11.526  0.8207 -0.8310  0.0430
 5907TIP3   OH241915   4.562   4.226  12.050 -0.1117 -0.7132  0.0664
 5907TIP3    H141916   4.545   4.132  12.054 -1.9350 -0.4111  0.6167
 5907TIP3    H241917   4.575   4.252  12.141  0.4876 -0.4368 -0.0910
 5908TIP3   OH241918   4.525   0.305  12.395 -0.0650  0.0296 -0.0973
 5908TIP3    H141919   4.497   0.217  12.371 -0.0475 -0.0418  0.1369
 5908TIP3    H241920   4.546   0.299  12.489 -1.6515  0.6741  0.3259
 5909TIP3   OH241921   5.189   4.933  12.519  0.6915  0.1475  0.1514
 5909TIP3    H141922   5.235   4.928  12.603  1.0240 -2.2563 -0.0869
 5909TIP3    H241923   5.259   4.932  12.453  0.4131  1.3346 -0.1741
 5910TIP3   OH241924   2.726   2.482  12.299 -0.1251 -0.1988  0.1423
 5910TIP3    H141925   2.782   2.549  12.259 -0.5298 -0.1589 -0.3704
 5910TIP3    H241926   2.740   2.492  12.393  1.1173 -0.5366  0.0105
 5911TIP3   OH241927   2.061   1.999  11.477  0.0926 -0.2697  0.3939
 5911TIP3    H141928   2.117   2.013  11.554 -0.7971 -0.1246  1.0332
 5911TIP3    H241929   2.085   1.912  11.446  1.1395  0.0541  0.2479
 5912TIP3   OH241930   2.662   1.162  13.342  0.5147  0.5895  0.0113
 5912TIP3    H141931   2.624   1.222  13.405 -0.4429  0.7312 -0.6740
 5912TIP3    H241932   2.587   1.115  13.305  1.1542 -0.3082 -0.1891
 5913TIP3   OH241933   3.016   8.204  12.586  0.3925  0.7327 -0.1004
 5913TIP3    H141934   3.084   8.264  12.558 -0.1457  0.8264 -1.2451
 5913TIP3    H241935   3.002   8.146  12.512  0.0335 -0.0290  0.5396
 5914TIP3   OH241936   5.638   4.877  12.486  0.0999  0.1733  0.2329
 5914TIP3    H141937   5.680   4.797  12.519  1.3757  1.4903  1.9747
 5914TIP3    H241938   5.709   4.926  12.444 -0.1838  1.3379  1.0662
 5915TIP3   OH241939   0.434   3.128  11.728  0.3436 -0.1384  0.1053
 5915TIP3    H141940   0.382   3.201  11.696 -0.7493 -0.2565  1.5287
 5915TIP3    H241941   0.384   3.092  11.801  1.1546 -1.9212 -0.1453
 5916TIP3   OH241942   5.568   8.358  11.922  0.0438 -0.7187  0.2802
 5916TIP3    H141943   5.657   8.382  11.895 -0.2653  0.7682  0.5387
 5916TIP3    H241944   5.529   8.439  11.953 -1.7188 -1.1546 -0.6541
 5917TIP3   OH241945   6.830   2.717  11.684  0.3734 -0.1188 -0.0414
 5917TIP3    H141946   6.848   2.808  11.709  0.3582 -0.5847  1.8342
 5917TIP3    H241947   6.880   2.703  11.604  0.5299  1.4768 -0.2520
 5918TIP3   OH241948   2.675   8.442  12.873 -0.0702  0.3456 -0.4340
 5918TIP3    H141949   2.705   8.390  12.798  1.5938  0.6043  0.0115
 5918TIP3    H241950   2.709   8.395  12.949  1.1726  1.8543 -0.0091
 5919TIP3   OH241951   3.172   3.899  11.739 -0.1851  0.3754 -0.4491
 5919TIP3    H141952   3.198   3.971  11.682  0.3127  2.3921  2.1506
 5919TIP3    H241953   3.240   3.833  11.727 -0.1702  0.6488 -2.2032
 5920TIP3   OH241954   0.370   5.861  12.421 -0.5311  0.5680  0.1386
 5920TIP3    H141955   0.411   5.775  12.413 -1.3341  0.2716 -0.9888
 5920TIP3    H241956   0.333   5.862  12.509  0.2660  0.1202  0.4838
 5921TIP3   OH241957   3.864   1.261  12.910 -0.6849  0.1105  0.3684
 5921TIP3    H141958   3.778   1.304  12.902 -1.1220 -0.5691  1.2588
 5921TIP3    H241959   3.846   1.168  12.893 -0.4964 -0.3545  2.4513
 5922TIP3   OH241960   1.708   7.280  13.473  0.2903  0.4054  0.0228
 5922TIP3    H141961   1.681   7.330  13.396 -0.3382  0.1717  0.0906
 5922TIP3    H241962   1.729   7.193  13.439  0.5949  0.4771  0.0265
 5923TIP3   OH241963   1.834   4.482  11.949  0.4474  0.8304  0.1434
 5923TIP3    H141964   1.869   4.393  11.944  1.6977  1.3685 -1.5178
 5923TIP3    H241965   1.755   4.473  12.003  0.2633 -1.3730 -0.3741
 5924TIP3   OH241966   7.775   2.348  13.340 -0.1268  0.2751 -0.0343
 5924TIP3    H141967   7.867   2.369  13.329 -0.1216  0.9579  1.1716
 5924TIP3    H241968   7.729   2.410  13.284  0.1474 -0.4733 -1.1296
 5925TIP3   OH241969   0.613   5.408  12.851 -0.3710  0.4007  0.2174
 5925TIP3    H141970   0.560   5.460  12.911 -1.7437  1.0292 -1.4737
 5925TIP3    H241971   0.613   5.457  12.769  0.1748 -1.1555 -0.7720
 5926TIP3   OH241972   1.175   2.901  12.904  0.1928  0.0488  0.0396
 5926TIP3    H141973   1.163   2.922  12.811 -0.8208  1.4368  0.4323
 5926TIP3    H241974   1.268   2.884  12.914  0.5894  1.4433 -0.9753
 5927TIP3   OH241975   7.676   0.796  11.825  0.3978  0.3175  0.2326
 5927TIP3    H141976   7.761   0.784  11.783  0.7821  2.6655  0.2132
 5927TIP3    H241977   7.612   0.766  11.760  1.1203  1.0579 -0.8621
 5928TIP3   OH241978   9.100   3.337  12.080  0.2647 -0.3180  0.3503
 5928TIP3    H141979   9.066   3.248  12.072 -1.4914  0.1925  1.5623
 5928TIP3    H241980   9.184   3.327  12.125  1.2039 -1.5098 -1.5521
 5929TIP3   OH241981   4.764   5.370  13.212 -0.3449 -0.4542  0.3995
 5929TIP3    H141982   4.704   5.351  13.285  0.8358 -0.7978  1.3214
 5929TIP3    H241983   4.818   5.443  13.243  0.3809 -0.8069  0.0012
 5930TIP3   OH241984   5.132   2.585  12.474  0.1768  0.1841 -0.0336
 5930TIP3    H141985   5.163   2.675  12.465 -0.5666  0.3257 -1.7462
 5930TIP3    H241986   5.041   2.594  12.502  0.2022 -0.0375  0.1180
 5931TIP3   OH241987   3.579   2.399  13.032  0.1170 -0.6220 -0.3445
 5931TIP3    H141988   3.605   2.431  12.945 -0.7029 -1.2729 -0.8505
 5931TIP3    H241989   3.661   2.389  13.080  0.5756 -0.1576 -1.0089
 5932TIP3   OH241990   8.624   6.743  13.263 -0.2927  0.2911  0.3444
 5932TIP3    H141991   8.701   6.693  13.291  0.3011  0.3299 -1.0993
 5932TIP3    H241992   8.574   6.682  13.209  1.2821  1.5593 -2.8589
 5933TIP3   OH241993   8.844   1.687  12.265  0.3256 -0.2409  0.3266
 5933TIP3    H141994   8.891   1.753  12.316  1.5290 -0.2011 -0.8075
 5933TIP3    H241995   8.802   1.736  12.194 -0.5284 -0.4339  0.6786
 5934TIP3   OH241996   4.968   6.152  13.263 -0.1893 -0.2048  0.1662
 5934TIP3    H141997   4.994   6.218  13.327  1.5549  0.1960 -0.9137
 5934TIP3    H241998   4.882   6.181  13.233  0.1334  1.0502  0.4139
 5935TIP3   OH241999   1.530   2.542  12.145 -0.1144  0.3013  0.4249
 5935TIP3    H142000   1.554   2.602  12.215 -1.3008  2.0568 -0.5918
 5935TIP3    H242001   1.470   2.480  12.185  1.3831 -0.4839  1.5708
 5936TIP3   OH242002   6.349   6.805  11.896 -0.8585 -0.5151 -0.0925
 5936TIP3    H142003   6.307   6.720  11.889 -1.8978 -0.2078  1.7485
 5936TIP3    H242004   6.438   6.786  11.923 -0.7524 -1.0372 -0.7717
 5937TIP3   OH242005   6.476   4.573  12.931  0.0984  0.5310  0.1402
 5937TIP3    H142006   6.474   4.573  12.836  0.9281  1.5200  0.0995
 5937TIP3    H242007   6.564   4.605  12.953 -0.5533  1.6773  1.2129
 5938TIP3   OH242008   3.082   8.785  12.642  0.7158  0.4074  0.3251
 5938TIP3    H142009   3.003   8.731  12.646  0.8324  0.2944  2.7584
 5938TIP3    H242010   3.051   8.875  12.657  0.9394  0.4719  0.4137
 5939TIP3   OH242011   2.491   0.675  13.215 -0.2401 -0.3352  0.1499
 5939TIP3    H142012   2.516   0.701  13.303 -1.8985  3.5065 -0.3057
 5939TIP3    H242013   2.397   0.660  13.219 -0.1600 -1.2605 -0.7833
 5940TIP3   OH242014   7.074   3.637  12.318 -0.5003 -0.0337 -0.4913
 5940TIP3    H142015   7.093   3.549  12.287  1.4324  0.0181  0.4205
 5940TIP3    H242016   7.059   3.688  12.238 -0.8395 -1.0032 -1.0585
 5941TIP3   OH242017   0.130   3.826  13.148 -0.3451  0.7795  0.2598
 5941TIP3    H142018   0.118   3.917  13.120  2.2203  2.0406  2.6663
 5941TIP3    H242019   0.084   3.821  13.232 -0.1476 -0.0498  0.3249
 5942TIP3   OH242020   8.105   1.094  12.664  0.3407 -0.5272  0.0787
 5942TIP3    H142021   8.108   1.036  12.588 -2.7935  0.3892 -0.8767
 5942TIP3    H242022   8.023   1.071  12.708  2.5852 -1.9297  4.0880
 5943TIP3   OH242023   4.451   3.446  13.205 -0.5191 -0.0694 -0.4257
 5943TIP3    H142024   4.392   3.375  13.232  0.0435 -0.7473 -0.9397
 5943TIP3    H242025   4.529   3.435  13.259 -1.0101  1.0916  0.5595
 5944TIP3   OH242026   4.581   5.950  12.260 -0.0535 -0.2939 -0.6294
 5944TIP3    H142027   4.548   5.867  12.294  1.0234  0.0247  1.3811
 5944TIP3    H242028   4.565   5.946  12.166 -0.0593 -2.7512 -0.5848
 5945TIP3   OH242029   3.933   8.662  13.193  0.5379  0.0560  0.3405
 5945TIP3    H142030   3.865   8.727  13.213  0.8872  0.2271  0.9916
 5945TIP3    H242031   3.892   8.578  13.215  0.3863  0.1248  0.3217
 5946TIP3   OH242032   4.929   4.455  11.666  0.2659 -0.2471  0.7355
 5946TIP3    H142033   4.994   4.395  11.630  1.5414  0.2564  2.1231
 5946TIP3    H242034   4.848   4.403  11.668  1.2165 -1.7766  1.4486
 5947TIP3   OH242035   4.414   0.074  13.046 -0.6267 -0.5037 -0.6220
 5947TIP3    H142036   4.502   0.036  13.041 -0.0632  0.4581  1.0872
 5947TIP3    H242037   4.385   0.055  13.135 -1.7092  0.1237 -0.8276
 5948TIP3   OH242038   4.247   6.763  13.090 -0.2287 -0.3579  0.2873
 5948TIP3    H142039   4.219   6.777  13.181 -1.5765 -0.0853 -0.1442
 5948TIP3    H242040   4.236   6.669  13.076  0.6658 -0.5218  0.6047
 5949TIP3   OH242041   8.184   7.645  12.347 -0.6813  0.2195 -0.7619
 5949TIP3    H142042   8.188   7.551  12.329  0.8614  0.0081  0.4291
 5949TIP3    H242043   8.098   7.658  12.387 -0.5573 -0.8759 -0.0857
 5950TIP3   OH242044   1.638   1.459  11.805 -0.0243 -0.3194  0.1181
 5950TIP3    H142045   1.550   1.453  11.768 -0.6650 -0.3904  1.5765
 5950TIP3    H242046   1.697   1.456  11.729 -1.1070 -3.4509 -0.7579
 5951TIP3   OH242047   7.909   0.641  11.724 -0.0830 -0.7694 -0.4248
 5951TIP3    H142048   7.933   0.689  11.645  0.3546 -0.8908 -0.3644
 5951TIP3    H242049   7.992   0.623  11.769 -0.2969 -1.0085 -0.1158
 5952TIP3   OH242050   6.770   3.002  12.355 -0.1680 -0.3052  0.2512
 5952TIP3    H142051   6.764   2.996  12.260 -0.0321 -0.3169  0.2439
 5952TIP3    H242052   6.809   2.919  12.382  1.2253  0.3091  0.1937
 5953TIP3   OH242053   5.202   5.669  12.709  0.7013 -0.2160  0.3926
 5953TIP3    H142054   5.185   5.715  12.791 -0.0704  0.6240 -0.2221
 5953TIP3    H242055   5.256   5.730  12.658  1.1364 -0.7107  0.2557
 5954TIP3   OH242056   5.914   1.323  11.721  0.1602 -0.7088  0.0841
 5954TIP3    H142057   6.000   1.281  11.721  0.9003  0.7424  0.2079
 5954TIP3    H242058   5.852   1.252  11.739  1.3847 -1.6599  0.6550
 5955TIP3   OH242059   0.610   2.563  13.696  0.3594 -0.2286  0.5095
 5955TIP3    H142060   0.525   2.606  13.689 -0.4233 -1.5781  1.3768
 5955TIP3    H242061   0.672   2.635  13.702 -0.5738  0.8021 -1.2982
 5956TIP3   OH242062   2.249   5.936  15.818 -0.3150 -0.2241  0.1309
 5956TIP3    H142063   2.307   5.927  15.894  0.3934  0.6572 -0.2905
 5956TIP3    H242064   2.295   5.995  15.759 -1.6298  0.4739 -0.2375
 5957TIP3   OH242065   5.212   4.387  11.930  0.0893  0.2722 -0.4724
 5957TIP3    H142066   5.251   4.354  11.850 -0.4906  0.7311 -0.9604
 5957TIP3    H242067   5.130   4.339  11.938 -0.2846  0.8639 -0.6525
 5958TIP3   OH242068   4.159   4.252  12.770  0.2024  0.4275 -0.4202
 5958TIP3    H142069   4.072   4.260  12.732  0.4418 -0.0108 -1.0792
 5958TIP3    H242070   4.175   4.336  12.814 -1.4300 -0.2564  1.5978
 5959TIP3   OH242071   3.257   3.260  12.914 -0.0826  0.0243 -0.0954
 5959TIP3    H142072   3.216   3.255  13.000  0.3311 -2.5427  0.0182
 5959TIP3    H242073   3.351   3.252  12.931  0.0612  0.2712 -0.7293
 5960TIP3   OH242074   4.959   4.374  13.516  0.7318  0.3473  0.5660
 5960TIP3    H142075   4.990   4.314  13.448  0.6396  2.0456 -1.0493
 5960TIP3    H242076   5.019   4.447  13.513 -1.1249  1.9321  0.0564
 5961TIP3   OH242077   1.241   2.133  11.628  0.2219 -0.3956  0.1375
 5961TIP3    H142078   1.170   2.179  11.672  1.0647  0.4532  0.6432
 5961TIP3    H242079   1.310   2.199  11.616  0.7923 -1.1008 -0.6688
 5962TIP3   OH242080   1.869   6.210  13.114 -0.7199  0.7870  0.6777
 5962TIP3    H142081   1.908   6.283  13.162 -1.4577  1.8598 -0.2898
 5962TIP3    H242082   1.927   6.136  13.131  0.7343  1.8929  0.7027
 5963TIP3   OH242083   3.282   4.387  12.617  0.2552  0.0740  0.2847
 5963TIP3    H142084   3.345   4.450  12.651  0.4772  0.1841 -0.3091
 5963TIP3    H242085   3.229   4.437  12.554 -0.2360 -0.0868  0.5648
 5964TIP3   OH242086   2.379   1.791  11.687 -0.4893 -0.6223 -0.8025
 5964TIP3    H142087   2.399   1.715  11.741 -2.7366 -0.2490  0.6841
 5964TIP3    H242088   2.455   1.849  11.696 -0.8240 -0.5095  2.1416
 5965TIP3   OH242089   1.063   1.781  12.214 -0.0926 -0.0630 -0.4335
 5965TIP3    H142090   1.073   1.740  12.300  2.0321  0.4978 -0.3418
 5965TIP3    H242091   1.117   1.728  12.156 -1.9864 -0.7935 -1.6008
 5966TIP3   OH242092   1.922   6.679  12.776 -0.0112  1.0737 -0.0259
 5966TIP3    H142093   1.912   6.769  12.806 -0.9034  1.5753 -1.7095
 5966TIP3    H242094   1.864   6.628  12.833 -0.6819  1.8012 -0.0429
 5967TIP3   OH242095   0.534   7.724  12.360  0.2524  0.5881 -0.1820
 5967TIP3    H142096   0.578   7.646  12.394 -0.5761  0.5619  0.9013
 5967TIP3    H242097   0.452   7.728  12.409  0.4180  2.3000  0.0071
 5968TIP3   OH242098   6.540   4.640  12.633  0.0676 -0.4854  0.2683
 5968TIP3    H142099   6.560   4.672  12.545 -0.2822 -1.0457 -0.0196
 5968TIP3    H242100   6.503   4.553  12.619 -1.2153 -0.0591  0.8846
 5969TIP3   OH242101   4.306   3.166  11.671 -0.0794  0.7741 -0.0440
 5969TIP3    H142102   4.365   3.242  11.677 -0.4852  1.0742  0.2050
 5969TIP3    H242103   4.263   3.176  11.587  0.1235  0.6272 -0.1667
 5970TIP3   OH242104   0.429   1.581  13.352  0.6742 -0.5515 -0.1217
 5970TIP3    H142105   0.520   1.595  13.324  0.2245  0.3624 -1.1845
 5970TIP3    H242106   0.418   1.485  13.352  2.6373 -0.9735  3.4345
 5971TIP3   OH242107   7.843   8.873  12.432  0.2457 -0.1971  0.4084
 5971TIP3    H142108   7.891   8.956  12.439  0.3298 -0.1289 -0.6750
 5971TIP3    H242109   7.859   8.828  12.515 -0.2103  1.0800  1.2201
 5972TIP3   OH242110   7.521   8.062  11.926  0.2452 -0.0579  0.3271
 5972TIP3    H142111   7.436   8.019  11.941 -1.0394  2.0123 -0.5913
 5972TIP3    H242112   7.570   7.999  11.872 -0.9546 -1.0264  0.3048
 5973TIP3   OH242113   4.998   1.868  12.343  0.3583  0.0142  0.0418
 5973TIP3    H142114   4.914   1.900  12.377  1.2174  0.7782  1.5833
 5973TIP3    H242115   5.040   1.946  12.306  2.3121  0.8541  3.4929
 5974TIP3   OH242116   2.534   8.184  12.900  0.2453  0.2743  0.0354
 5974TIP3    H142117   2.511   8.179  12.993 -2.4919 -2.0045 -0.6179
 5974TIP3    H242118   2.629   8.172  12.898  0.1510 -1.6561  2.4633
 5975TIP3   OH242119   1.828   2.511  12.022 -0.6723  0.1901  0.2772
 5975TIP3    H142120   1.816   2.605  12.033 -1.5998  0.2431 -1.0213
 5975TIP3    H242121   1.757   2.472  12.074  0.3598  0.1268  1.7268
 5976TIP3   OH242122   5.087   2.114  11.410  0.2136 -0.0246 -0.0968
 5976TIP3    H142123   5.145   2.183  11.443  0.8467 -0.4359 -0.3345
 5976TIP3    H242124   5.042   2.154  11.336  1.9486 -0.4175 -1.4228
 5977TIP3   OH242125   5.160   6.825  13.688  0.3652 -0.1502  0.2182
 5977TIP3    H142126   5.117   6.764  13.748  1.5036 -2.1699 -0.8758
 5977TIP3    H242127   5.187   6.898  13.742 -0.2888 -1.0322  1.7970
 5978TIP3   OH242128   1.447   8.683  13.681  0.1901 -0.5196 -0.0071
 5978TIP3    H142129   1.407   8.621  13.742  1.1028 -2.2725 -1.1249
 5978TIP3    H242130   1.535   8.649  13.665  0.3274  0.4348 -1.5333
 5979TIP3   OH242131   7.643   5.192  13.027  0.2336  0.1354 -0.4745
 5979TIP3    H142132   7.604   5.179  12.941  1.5932  2.2324 -1.4878
 5979TIP3    H242133   7.581   5.250  13.073 -0.7243 -1.3611  0.1825
 5980TIP3   OH242134   8.946   4.495  12.526 -0.3944 -0.5983 -0.4433
 5980TIP3    H142135   8.889   4.437  12.576  0.6482 -1.1825  0.1029
 5980TIP3    H242136   9.030   4.449  12.523  0.3769  0.7467 -0.2291
 5981TIP3   OH242137   0.554   5.149  12.537 -0.3359  0.4003  0.5091
 5981TIP3    H142138   0.596   5.126  12.619 -1.0115  0.1018  0.7831
 5981TIP3    H242139   0.577   5.240  12.523 -0.6294  0.6080  1.3021
 5982TIP3   OH242140   5.213   2.241  12.043  0.8277 -0.2516 -0.2841
 5982TIP3    H142141   5.286   2.181  12.030 -0.0918 -1.6044  0.5574
 5982TIP3    H242142   5.142   2.204  11.991  0.6033  0.7994 -0.7390
 5983TIP3   OH242143   5.138   5.934  13.385 -0.1597  0.5372  0.6867
 5983TIP3    H142144   5.114   5.953  13.294 -0.2597  1.3499  0.8760
 5983TIP3    H242145   5.158   6.020  13.423 -1.6215  0.4060  1.8598
 5984TIP3   OH242146   3.604   1.386  12.863 -0.6025 -0.1708 -0.1648
 5984TIP3    H142147   3.574   1.460  12.811  1.3688 -0.1545 -1.3760
 5984TIP3    H242148   3.572   1.308  12.817  1.5371 -0.1733 -1.7827
 5985TIP3   OH242149   5.548   1.889  11.805  0.3029 -0.6738  0.4394
 5985TIP3    H142150   5.473   1.851  11.759 -1.3539  0.8133  1.7475
 5985TIP3    H242151   5.622   1.874  11.747 -0.7629 -3.1936 -0.4251
 5986TIP3   OH242152   0.958   8.427  13.026  0.1367  0.2124 -0.7134
 5986TIP3    H142153   0.903   8.351  13.047 -0.7753  1.1909  0.6555
 5986TIP3    H242154   0.951   8.483  13.104  1.6727  1.1882 -1.2496
 5987TIP3   OH242155   7.985   1.629  11.580  0.4732  0.5284  0.4171
 5987TIP3    H142156   7.905   1.683  11.579  0.1826  0.0888 -0.1103
 5987TIP3    H242157   8.034   1.662  11.656 -0.7169  0.0590  1.4326
 5988TIP3   OH242158   3.850   3.792  11.786  0.2200 -0.7064 -0.2499
 5988TIP3    H142159   3.874   3.710  11.743 -2.2645 -1.3421 -0.5389
 5988TIP3    H242160   3.814   3.764  11.871 -1.5824 -0.0364 -0.7601
 5989TIP3   OH242161   6.414   0.938  12.365  0.1201  0.2199 -0.2941
 5989TIP3    H142162   6.389   1.017  12.316  1.4746  0.4154 -0.7260
 5989TIP3    H242163   6.377   0.866  12.315 -0.7029  0.5505 -0.1748
 5990TIP3   OH242164   5.989   2.640  12.661  0.0755 -0.0412 -0.2564
 5990TIP3    H142165   6.005   2.547  12.677  0.9109  0.1666  0.1710
 5990TIP3    H242166   6.077   2.677  12.650 -0.0455  1.1482  2.1781
 5991TIP3   OH242167   5.726   4.268  12.693  0.1867 -0.3707  0.0232
 5991TIP3    H142168   5.649   4.273  12.751  0.3635  0.7583  0.1851
 5991TIP3    H242169   5.742   4.359  12.667  2.3043 -0.3726  1.0851
 5992TIP3   OH242170   0.395   5.213  12.970 -0.4250  0.3028 -0.3126
 5992TIP3    H142171   0.474   5.265  12.960 -1.2627  1.6255 -0.3684
 5992TIP3    H242172   0.416   5.149  13.038  1.0535 -0.1624 -1.1694
 5993TIP3   OH242173   3.033   0.166  12.024  0.2714 -0.6272 -0.3654
 5993TIP3    H142174   2.976   0.122  11.961  0.3372 -1.0141 -0.1597
 5993TIP3    H242175   2.989   0.249  12.044 -0.4165 -1.0906  0.0873
 5994TIP3   OH242176   5.418   8.820  12.004  0.4865 -0.4824  0.3148
 5994TIP3    H142177   5.513   8.833  12.005  0.5824 -0.3429 -2.7941
 5994TIP3    H242178   5.388   8.863  11.924 -1.9022 -2.3984  0.0560
 5995TIP3   OH242179   8.600   5.373  12.295 -0.4442 -0.2872 -0.5344
 5995TIP3    H142180   8.686   5.342  12.266  0.4839  1.2138  0.4539
 5995TIP3    H242181   8.578   5.317  12.369 -0.7819 -1.2691 -1.3443
 5996TIP3   OH242182   1.944   4.328  13.649 -0.6773 -0.1502  0.1116
 5996TIP3    H142183   1.937   4.407  13.704 -0.3283  0.3948 -0.6085
 5996TIP3    H242184   1.858   4.286  13.657 -1.6208  1.4066 -1.1216
 5997TIP3   OH242185   8.837   3.824  12.054  0.2527  0.3431  0.6933
 5997TIP3    H142186   8.845   3.919  12.048 -0.7761  0.3996  0.0301
 5997TIP3    H242187   8.832   3.794  11.963  0.4054 -0.3340  0.8994
 5998TIP3   OH242188   3.403   0.206  13.749  0.4450  0.5826 -0.1610
 5998TIP3    H142189   3.418   0.295  13.781  1.1021  1.2530 -2.1863
 5998TIP3    H242190   3.491   0.170  13.736  0.1884 -0.0730 -0.1289
 5999TIP3   OH242191   8.440   1.279  11.448 -0.2815 -0.2314  0.3023
 5999TIP3    H142192   8.369   1.314  11.502  0.1304  0.7304  0.2424
 5999TIP3    H242193   8.470   1.354  11.396  1.0417 -0.5204  0.6147
 6000TIP3   OH242194   1.256   4.520  12.415  0.3798  0.2776 -0.0587
 6000TIP3    H142195   1.217   4.580  12.351 -0.4899 -1.4127 -1.1784
 6000TIP3    H242196   1.336   4.565  12.443  0.4917  1.3466 -1.8989
 6001TIP3   OH242197   0.558   1.052  12.443 -0.6799  0.4859 -0.5063
 6001TIP3    H142198   0.628   1.099  12.397  1.6850 -1.8598  0.4495
 6001TIP3    H242199   0.560   1.088  12.532 -0.1823 -0.0830 -0.2855
 6002TIP3   OH242200   3.967   7.615  11.866 -0.1488  0.0725  0.4678
 6002TIP3    H142201   3.903   7.641  11.800  0.0285 -0.4428  0.0883
 6002TIP3    H242202   3.915   7.589  11.942 -0.4547 -1.4808 -0.2367
 6003TIP3   OH242203   7.522   2.260  12.207  0.4673  0.2607  0.3609
 6003TIP3    H142204   7.544   2.350  12.232 -1.8269  0.5837  1.5104
 6003TIP3    H242205   7.487   2.268  12.118 -0.2469  0.6269  0.6626
 6004TIP3   OH242206   5.913   1.374  12.265 -0.2987 -0.1888 -0.0558
 6004TIP3    H142207   5.897   1.354  12.172 -0.2759 -1.0701  0.1257
 6004TIP3    H242208   5.843   1.435  12.288 -0.3513 -0.0165 -0.6314
 6005TIP3   OH242209   2.569   7.880  12.682 -0.0580 -0.5061 -0.4383
 6005TIP3    H142210   2.609   7.814  12.738 -0.7452 -0.5074  0.0701
 6005TIP3    H242211   2.503   7.922  12.738  0.8551  1.1177 -0.4962
 6006TIP3   OH242212   9.045   3.202  13.404  0.1984 -0.5813 -0.1683
 6006TIP3    H142213   8.964   3.253  13.404 -0.4493 -1.5648  0.6938
 6006TIP3    H242214   9.021   3.119  13.446  1.9944 -0.3186  1.5528
 6007TIP3   OH242215   1.940   8.675  12.347 -0.0472 -0.5688  0.7196
 6007TIP3    H142216   2.000   8.661  12.274  0.2766  0.4336  0.7776
 6007TIP3    H242217   1.864   8.621  12.327 -0.1885  0.1005 -0.6198
 6008TIP3   OH242218   3.010   4.800  13.221  0.2175 -0.4030 -0.7477
 6008TIP3    H142219   3.090   4.792  13.273 -0.0762  0.4849 -0.1388
 6008TIP3    H242220   3.023   4.881  13.170 -0.5460  0.0783 -0.1840
 6009TIP3   OH242221   6.450   3.023  13.087  0.1590 -0.2564  0.2609
 6009TIP3    H142222   6.355   3.032  13.078  0.2980  0.1023 -1.0519
 6009TIP3    H242223   6.484   3.112  13.074  0.7261 -0.5364 -0.2165
 6010TIP3   OH242224   8.651   8.086  12.044  0.0597  0.6212 -0.2624
 6010TIP3    H142225   8.644   8.181  12.045  0.0080  0.6179 -0.3397
 6010TIP3    H242226   8.737   8.068  12.006 -0.4533  0.6120 -1.4491
 6011TIP3   OH242227   6.649   2.005  12.571  0.2562  0.4750  0.0139
 6011TIP3    H142228   6.611   1.921  12.598  0.8973 -0.3172 -1.4443
 6011TIP3    H242229   6.721   2.018  12.632  0.6032 -0.4166 -0.1791
 6012TIP3   OH242230   0.063   5.552  11.976 -0.1482 -0.5391 -0.1354
 6012TIP3    H142231   0.119   5.552  11.899 -1.2455 -2.7462 -1.0212
 6012TIP3    H242232   0.075   5.639  12.015  3.0900 -0.5942 -0.7867
 6013TIP3   OH242233   8.917   3.750  13.593 -0.0344 -0.0519 -0.3848
 6013TIP3    H142234   8.939   3.781  13.681 -0.5304 -0.2706 -0.1788
 6013TIP3    H242235   8.827   3.719  13.600 -0.2379  0.3568 -1.0909
 6014TIP3   OH242236   3.144   0.357  13.648 -0.0261 -0.3228  0.1947
 6014TIP3    H142237   3.195   0.278  13.666  0.5580  0.0396  0.1658
 6014TIP3    H242238   3.189   0.425  13.698 -0.7154 -0.0719  0.4701
 6015TIP3   OH242239   3.359   2.232  12.448 -0.0300 -0.7493 -0.7368
 6015TIP3    H142240   3.308   2.314  12.449  0.3588 -0.4428 -2.5210
 6015TIP3    H242241   3.433   2.251  12.391  1.1137 -1.7760  0.3550
 6016TIP3   OH242242   4.643   2.556  12.239 -0.1698 -0.2838  0.1586
 6016TIP3    H142243   4.616   2.642  12.272  2.7706  0.6505  0.4272
 6016TIP3    H242244   4.583   2.538  12.167 -0.0256  2.6942 -0.8444
 6017TIP3   OH242245   2.376   3.522  13.776  0.4440  0.4269  0.2753
 6017TIP3    H142246   2.468   3.538  13.757  0.1270  0.4386 -1.4156
 6017TIP3    H242247   2.374   3.435  13.816  1.0844 -0.1335 -0.8594
 6018TIP3   OH242248   0.225   3.153  12.663  0.3208  0.5006  0.3456
 6018TIP3    H142249   0.146   3.181  12.711  1.1105  1.2159  1.2825
 6018TIP3    H242250   0.196   3.079  12.611 -0.2205 -1.5531  3.3027
 6019TIP3   OH242251   1.798   8.362  12.210 -0.6812 -0.1828 -0.0643
 6019TIP3    H142252   1.841   8.378  12.127  0.3817  0.1181  0.5263
 6019TIP3    H242253   1.836   8.280  12.242 -0.6535  0.0026  0.3921
 6020TIP3   OH242254   1.517   5.150  12.903  0.1785  0.1231  0.2860
 6020TIP3    H142255   1.564   5.137  12.985  2.0874  1.1496 -0.5775
 6020TIP3    H242256   1.489   5.242  12.906  0.9865  0.4114 -0.5368
 6021TIP3   OH242257   2.258   1.903  12.281  0.4794 -0.3503  0.1665
 6021TIP3    H142258   2.184   1.850  12.251  0.7098  0.4231 -1.9764
 6021TIP3    H242259   2.222   1.958  12.350 -0.2655 -1.7973  0.9788
 6022TIP3   OH242260   3.657   9.101  12.467  0.3685  0.8486 -0.0083
 6022TIP3    H142261   3.708   9.069  12.541 -3.3063  0.6503  2.6701
 6022TIP3    H242262   3.720   9.151  12.415  3.4303 -0.0732  2.4970
 6023TIP3   OH242263   3.428   3.286  13.324 -0.4454  0.9197 -0.6845
 6023TIP3    H142264   3.338   3.289  13.292  0.2004  2.5370 -2.5719
 6023TIP3    H242265   3.433   3.205  13.376 -2.4454 -0.2575 -2.1805
 6024TIP3   OH242266   3.218   4.463  11.399  0.1325  0.4317  0.1033
 6024TIP3    H142267   3.141   4.504  11.359  0.4528  0.2729 -0.6766
 6024TIP3    H242268   3.268   4.536  11.436  0.4732  0.7099 -0.8882
 6025TIP3   OH242269   3.624   4.117  12.827 -0.0218  0.8027  0.6941
 6025TIP3    H142270   3.559   4.181  12.857 -0.6975  0.8584 -0.8102
 6025TIP3    H242271   3.576   4.061  12.766  0.4772 -1.3184  2.1145
 6026TIP3   OH242272   8.857   5.011  12.811  0.6894 -0.3349 -0.2950
 6026TIP3    H142273   8.941   4.967  12.824  1.3832  1.0117 -0.0474
 6026TIP3    H242274   8.809   4.993  12.892  1.1796 -0.1973  0.0357
 6027TIP3   OH242275   2.054   4.163  12.116 -0.1293 -0.8340 -0.0781
 6027TIP3    H142276   2.100   4.083  12.144  1.0882 -0.5213 -1.0521
 6027TIP3    H242277   1.975   4.166  12.169 -0.5436 -3.0518 -0.4799
 6028TIP3   OH242278   3.230   1.259  12.925 -0.2656  0.1349  0.1550
 6028TIP3    H142279   3.235   1.340  12.875 -0.3283 -0.2562 -0.4948
 6028TIP3    H242280   3.304   1.207  12.894 -0.0710  0.0463  0.7557
 6029TIP3   OH242281   7.807   2.899  13.276 -0.2115  0.0022 -0.0979
 6029TIP3    H142282   7.824   2.969  13.213  1.0986  0.5770  0.8351
 6029TIP3    H242283   7.727   2.925  13.320 -1.2755 -0.5206 -1.6457
 6030TIP3   OH242284   5.656   1.420  11.839 -0.2957  0.4204  0.1698
 6030TIP3    H142285   5.632   1.355  11.905  1.0679  0.3169  0.5942
 6030TIP3    H242286   5.605   1.396  11.762 -2.1627  0.7169  1.2287
 6031TIP3   OH242287   0.325   7.487  13.421 -0.1621 -0.2797  0.2636
 6031TIP3    H142288   0.290   7.401  13.443 -1.0302 -0.6705 -2.2892
 6031TIP3    H242289   0.419   7.480  13.438 -0.1819 -1.8309 -0.0838
 6032TIP3   OH242290   5.441   8.558  12.058 -0.2547 -0.2529 -0.5014
 6032TIP3    H142291   5.436   8.646  12.021 -0.0684  0.0763  0.2492
 6032TIP3    H242292   5.384   8.561  12.135 -0.6562 -0.9413 -0.7608
 6033TIP3   OH242293   2.112   2.201  13.672 -0.4654  0.2347  0.2293
 6033TIP3    H142294   2.133   2.294  13.672  1.3269 -0.1183 -0.2868
 6033TIP3    H242295   2.017   2.197  13.666 -0.4744  2.0467 -2.5756
 6034TIP3   OH242296   1.349   5.808  12.026 -0.6995  0.4458 -0.5014
 6034TIP3    H142297   1.441   5.790  12.042 -1.7421 -2.2416  4.5264
 6034TIP3    H242298   1.340   5.903  12.036  1.3042  0.5330  1.0233
 6035TIP3   OH242299   2.393   4.046  12.393 -0.6291  0.2456  0.1059
 6035TIP3    H142300   2.407   4.085  12.307 -1.2564  1.4606  0.5352
 6035TIP3    H242301   2.408   3.952  12.379 -1.5740  0.2896 -1.5234
 6036TIP3   OH242302   6.886   5.073  11.837 -0.2921 -0.5389 -0.4569
 6036TIP3    H142303   6.793   5.061  11.819 -0.6633 -0.0660  0.9908
 6036TIP3    H242304   6.908   5.004  11.899 -0.0156  0.1334  0.2178
 6037TIP3   OH242305   0.174   8.701  12.362 -0.5881 -0.2399  0.7375
 6037TIP3    H142306   0.231   8.627  12.346  0.9952  0.8487  1.1355
 6037TIP3    H242307   0.086   8.669  12.340  0.2554 -1.6889 -0.7111
 6038TIP3   OH242308   7.740   3.782  12.332 -0.1059  0.0964  0.0853
 6038TIP3    H142309   7.788   3.804  12.413 -1.4286  1.6366  0.5031
 6038TIP3    H242310   7.708   3.866  12.300  0.0754 -0.5419 -1.8773
 6039TIP3   OH242311   7.955   1.907  13.288 -0.5094 -0.2309 -0.4497
 6039TIP3    H142312   7.928   1.833  13.342  0.6647 -0.6479 -0.4018
 6039TIP3    H242313   8.036   1.878  13.246  1.2803  1.7779  1.3375
 6040TIP3   OH242314   4.372   0.630  12.292 -0.2300 -0.8477  0.8301
 6040TIP3    H142315   4.374   0.724  12.274 -0.7374 -1.0788 -0.5350
 6040TIP3    H242316   4.448   0.595  12.245 -0.2513 -1.1693  1.0344
 6041TIP3   OH242317   5.201   0.230  12.859  0.3557 -0.1665 -0.2242
 6041TIP3    H142318   5.255   0.157  12.891  0.6377 -0.0041 -0.3318
 6041TIP3    H242319   5.122   0.187  12.825 -0.7026 -0.2697  2.1180
 6042TIP3   OH242320   8.142   3.637  12.729  0.4951  0.2001 -0.0169
 6042TIP3    H142321   8.176   3.633  12.819  2.7842  0.4531 -0.8006
 6042TIP3    H242322   8.147   3.547  12.698 -3.3207 -0.5404  1.0267
 6043TIP3   OH242323   6.056   2.600  12.041 -0.1748 -0.5572  0.6889
 6043TIP3    H142324   5.993   2.532  12.018  0.4088 -0.8597 -0.0784
 6043TIP3    H242325   6.078   2.641  11.957  3.4703 -2.9403  0.2595
 6044TIP3   OH242326   6.565   3.162  11.935  0.2789  0.2064 -0.0327
 6044TIP3    H142327   6.654   3.164  11.972  0.2007 -1.7673  0.3510
 6044TIP3    H242328   6.523   3.088  11.978 -1.0090  0.0541 -1.4854
 6045TIP3   OH242329   8.587   4.291  13.083 -0.1227 -0.5378  0.5588
 6045TIP3    H142330   8.507   4.342  13.065 -0.6430 -1.1620  1.0517
 6045TIP3    H242331   8.652   4.356  13.109 -0.7226 -0.1000  0.9813
 6046TIP3   OH242332   2.708   7.367  12.333  0.3586 -0.1382  0.1611
 6046TIP3    H142333   2.752   7.416  12.263 -0.1204  0.0328 -0.0200
 6046TIP3    H242334   2.731   7.276  12.316 -0.7818 -0.2490 -0.9821
 6047TIP3   OH242335   1.996   6.520  13.074  0.6193 -0.5291  0.0308
 6047TIP3    H142336   2.083   6.524  13.113 -0.1185 -1.5458  1.8939
 6047TIP3    H242337   1.946   6.589  13.119  0.4581  0.1490 -1.1285
 6048TIP3   OH242338   0.729   7.390  12.738  0.1467 -0.0570  0.1639
 6048TIP3    H142339   0.656   7.363  12.793  0.5341 -1.2877  0.1070
 6048TIP3    H242340   0.803   7.398  12.799  0.9749 -2.9859 -0.3073
 6049TIP3   OH242341   7.547   1.827  12.571  0.0404 -0.8506 -0.2251
 6049TIP3    H142342   7.538   1.798  12.480 -1.5098  0.9701 -0.7355
 6049TIP3    H242343   7.616   1.894  12.568 -1.5516  0.8462 -0.5617
 6050TIP3   OH242344   0.012   3.838  13.404  0.0130 -0.2896 -0.2615
 6050TIP3    H142345   0.066   3.878  13.472 -1.1375  1.2156 -0.1888
 6050TIP3    H242346  -0.072   3.883  13.410 -0.6289 -1.2368 -1.6332
 6051TIP3   OH242347   8.930   7.850  12.564  0.0783 -0.5321 -0.2550
 6051TIP3    H142348   8.835   7.860  12.567  0.1549  0.5215 -0.6907
 6051TIP3    H242349   8.957   7.898  12.486  0.9563 -0.9787 -0.2428
 6052TIP3   OH242350   6.872   6.989  12.054 -0.4743  0.1402  0.4290
 6052TIP3    H142351   6.804   6.975  11.988  0.1564 -0.0875 -0.1828
 6052TIP3    H242352   6.847   6.933  12.127 -0.8742 -0.0352  0.1612
 6053TIP3   OH242353   4.873   0.998  11.627  0.0261  0.2670  0.1577
 6053TIP3    H142354   4.821   1.017  11.705  0.1949  1.4979  0.0052
 6053TIP3    H242355   4.868   1.079  11.575 -0.1560 -0.5616 -1.1535
 6054TIP3   OH242356   6.232   0.271  12.045 -0.1048 -0.3194  0.3130
 6054TIP3    H142357   6.157   0.303  12.094 -1.2210 -0.5450 -1.1901
 6054TIP3    H242358   6.292   0.345  12.041 -0.4621  0.0165  1.0983
 6055TIP3   OH242359   0.972   9.205  12.204 -0.1304 -0.0960 -0.7679
 6055TIP3    H142360   0.884   9.217  12.170 -0.8117  0.7702  1.1043
 6055TIP3    H242361   1.012   9.140  12.148 -1.9740 -0.5125 -1.6574
 6056TIP3   OH242362   5.078   1.292  12.562 -0.0977  0.5664  0.2980
 6056TIP3    H142363   5.152   1.353  12.566  0.3293  0.0056  1.6418
 6056TIP3    H242364   5.089   1.246  12.479 -0.0215  1.8058 -0.3977
 6057TIP3   OH242365   8.405   5.369  12.735  0.4083 -0.2549 -0.4907
 6057TIP3    H142366   8.355   5.449  12.753  0.4076 -0.0302 -1.4588
 6057TIP3    H242367   8.342   5.298  12.748 -0.3047  0.0399 -2.0324
 6058TIP3   OH242368   1.818   4.366  12.920  0.9369 -1.0143  0.1336
 6058TIP3    H142369   1.861   4.326  12.996  1.6339 -0.3744  0.0913
 6058TIP3    H242370   1.725   4.345  12.931  0.9811 -0.6485  1.3367
 6059TIP3   OH242371   4.096   0.919  13.081 -0.2765  0.1969  0.3143
 6059TIP3    H142372   4.133   0.859  13.146  0.6925 -0.3533 -0.7149
 6059TIP3    H242373   4.148   0.905  13.002 -0.5895  1.7886 -0.2171
 6060TIP3   OH242374   1.595   2.788  13.460  0.4256 -0.4516 -0.0685
 6060TIP3    H142375   1.643   2.751  13.534  0.0738 -0.9021 -0.0592
 6060TIP3    H242376   1.506   2.800  13.493  0.8313  1.7672  0.3845
 6061TIP3   OH242377   2.302   1.413  11.991  0.0332 -0.5940 -0.3843
 6061TIP3    H142378   2.233   1.369  12.040  1.7183 -4.1360 -0.8751
 6061TIP3    H242379   2.274   1.405  11.899  0.1962 -0.2757 -0.4625
 6062TIP3   OH242380   1.396   5.379  12.662  0.6243  0.3511 -0.2571
 6062TIP3    H142381   1.475   5.433  12.665 -1.1922  3.2522  2.6748
 6062TIP3    H242382   1.374   5.364  12.754 -1.3288 -1.8804 -0.9918
 6063TIP3   OH242383   5.061   9.170  12.515 -0.5234 -0.2683 -0.2026
 6063TIP3    H142384   5.117   9.237  12.555 -1.1985  1.3364 -1.7914
 6063TIP3    H242385   5.110   9.140  12.439  0.4835 -2.8562  1.3343
 6064TIP3   OH242386   3.830   0.370  11.896 -0.5620  0.0770  0.4538
 6064TIP3    H142387   3.876   0.387  11.814  0.0422  1.9232  1.1287
 6064TIP3    H242388   3.737   0.382  11.875 -0.3132  2.2178  0.3541
 6065TIP3   OH242389   0.028   4.685  12.365 -0.0446 -0.3964  0.2407
 6065TIP3    H142390  -0.056   4.725  12.343 -0.8024 -1.8435  0.3839
 6065TIP3    H242391   0.080   4.690  12.284 -0.4001  0.1799  0.0481
 6066TIP3   OH242392   8.432   1.203  12.117  0.2694  0.5219  0.0962
 6066TIP3    H142393   8.464   1.142  12.183  3.1805  0.2753 -1.3808
 6066TIP3    H242394   8.501   1.269  12.109 -0.8229  1.5656 -1.4027
 6067TIP3   OH242395   8.889   0.715  11.423  0.2141  0.1735 -0.2654
 6067TIP3    H142396   8.981   0.707  11.449 -0.1580 -0.1085  1.0194
 6067TIP3    H242397   8.842   0.660  11.485 -0.7222 -0.6994 -1.6780
 6068TIP3   OH242398   8.383   4.327  11.925  0.3818 -0.2890  0.5023
 6068TIP3    H142399   8.324   4.367  11.988 -0.1981 -0.9746  0.4055
 6068TIP3    H242400   8.449   4.394  11.908 -2.2389  1.9239 -2.0030
 6069TIP3   OH242401   7.536   5.897  12.277  0.5151  0.2490 -0.4107
 6069TIP3    H142402   7.586   5.974  12.250 -0.0954  0.4189 -1.1137
 6069TIP3    H242403   7.505   5.860  12.194 -1.7930  1.0154  0.0469
 6070TIP3   OH242404   3.454   4.432  12.239  0.1143 -0.4217  0.2108
 6070TIP3    H142405   3.479   4.340  12.246  0.3990 -0.4158 -0.5730
 6070TIP3    H242406   3.441   4.461  12.329 -1.1426 -1.5401  0.4227
 6071TIP3   OH242407   7.618   7.637  11.452  0.5562 -0.0532 -0.5103
 6071TIP3    H142408   7.569   7.574  11.505 -0.0520  1.6317  1.0280
 6071TIP3    H242409   7.709   7.620  11.473  0.4743 -1.0713 -0.9046
 6072TIP3   OH242410   6.140   5.699  12.174 -0.3393 -0.9423  0.6440
 6072TIP3    H142411   6.110   5.609  12.187  1.7124 -2.0847 -1.7253
 6072TIP3    H242412   6.203   5.713  12.244  0.2625 -1.8380  0.3018
 6073TIP3   OH242413   5.632   1.533  12.629  0.0100 -0.0259 -0.4735
 6073TIP3    H142414   5.553   1.588  12.638 -0.3885 -0.5571 -0.6885
 6073TIP3    H242415   5.657   1.542  12.537 -0.2743 -0.4928 -0.5998
 6074TIP3   OH242416   4.167   4.966  12.086 -0.5422  0.1538 -0.0621
 6074TIP3    H142417   4.128   5.050  12.109  1.1085  1.4766 -1.8587
 6074TIP3    H242418   4.109   4.930  12.019 -1.9135 -0.7852  1.5441
 6075TIP3   OH242419   2.237   5.973  11.924 -0.1791  0.0493  0.3680
 6075TIP3    H142420   2.221   5.997  12.015  1.0156  2.2675  0.0623
 6075TIP3    H242421   2.242   5.877  11.925  0.2780  0.0396  2.7146
 6076TIP3   OH242422   2.289   3.758  11.742  0.1099 -0.0826 -0.2840
 6076TIP3    H142423   2.202   3.777  11.778 -0.1267  3.1102 -2.2647
 6076TIP3    H242424   2.272   3.720  11.656  0.6806 -0.0764 -0.4026
 6077TIP3   OH242425   7.424   1.726  11.998  0.0886  0.1782 -0.7234
 6077TIP3    H142426   7.409   1.807  11.950 -1.6310 -2.2000 -4.7743
 6077TIP3    H242427   7.338   1.702  12.033 -0.1517 -1.2665 -2.1835
 6078TIP3   OH242428   9.107   8.313  12.680  0.0205 -0.2595  0.3928
 6078TIP3    H142429   9.136   8.294  12.591  0.1294  1.1422  0.0960
 6078TIP3    H242430   9.088   8.228  12.718  1.5687 -1.0194 -0.4177
 6079TIP3   OH242431   4.627   3.077  11.582 -0.1269 -0.3395  0.3434
 6079TIP3    H142432   4.681   2.998  11.591 -2.0499 -1.8479 -0.5943
 6079TIP3    H242433   4.542   3.052  11.619 -0.2459  1.9893  1.8864
 6080TIP3   OH242434   7.887   1.055  12.840 -0.5865 -0.4059  0.1197
 6080TIP3    H142435   7.850   1.133  12.882 -0.5750 -0.5678  0.4305
 6080TIP3    H242436   7.895   0.991  12.911 -2.6146 -1.4391 -0.4879
 6081TIP3   OH242437   3.102   8.125  13.837  0.0424  0.0241 -0.1232
 6081TIP3    H142438   3.105   8.083  13.923 -0.3936 -1.5577 -0.8505
 6081TIP3    H242439   3.176   8.086  13.789  1.3424  2.1209  0.0268
 6082TIP3   OH242440   2.800   1.714  12.639  0.2240  0.3301 -0.1269
 6082TIP3    H142441   2.856   1.686  12.712 -0.5022  0.0218  0.3200
 6082TIP3    H242442   2.859   1.765  12.583  0.9018  0.2026  0.4445
 6083TIP3   OH242443   1.985   7.226  12.962  0.0828 -0.5125  0.0581
 6083TIP3    H142444   1.993   7.137  12.926  0.1457 -0.4981  0.0369
 6083TIP3    H242445   1.898   7.227  13.002  0.1818 -0.6639  0.2785
 6084TIP3   OH242446   8.112   5.191  12.214  0.3602 -0.0798  0.4690
 6084TIP3    H142447   8.099   5.131  12.288  0.0111 -1.5558 -0.7402
 6084TIP3    H242448   8.173   5.145  12.157 -1.0554  0.0389 -1.1976
 6085TIP3   OH242449   1.218   6.081  11.953 -0.2191 -0.6696 -0.2285
 6085TIP3    H142450   1.162   6.157  11.970 -0.3404 -0.7195 -0.3999
 6085TIP3    H242451   1.240   6.088  11.860  2.2442  0.8251  0.3813
 6086TIP3   OH242452   0.595   6.642  13.385 -0.4986 -0.4909 -1.3006
 6086TIP3    H142453   0.500   6.633  13.390 -0.3244 -2.0395  0.0295
 6086TIP3    H242454   0.628   6.552  13.385  1.0175  0.0081  0.0693
 6087TIP3   OH242455   0.182   3.579  13.026 -0.6858 -0.1496  0.5845
 6087TIP3    H142456   0.094   3.543  13.029 -0.6907 -0.3548 -0.9912
 6087TIP3    H242457   0.177   3.661  13.074 -2.4924  1.3035 -1.8662
 6088TIP3   OH242458   4.011   3.457  12.269 -0.0544 -0.3007 -0.2677
 6088TIP3    H142459   3.995   3.407  12.189 -1.0172  0.0554 -0.3107
 6088TIP3    H242460   3.944   3.525  12.268 -0.7868 -0.9396  1.3858
 6089TIP3   OH242461   3.290   1.969  12.438 -0.0216 -0.1769 -0.0823
 6089TIP3    H142462   3.254   1.960  12.350  1.2698  0.8437 -0.7315
 6089TIP3    H242463   3.287   2.062  12.456 -1.8698 -0.5065  1.6862
 6090TIP3   OH242464   3.339   5.688  12.625  0.7134 -0.6826 -0.5381
 6090TIP3    H142465   3.282   5.642  12.686  1.8888  0.7934  1.7919
 6090TIP3    H242466   3.280   5.745  12.575 -0.1001 -0.8088  0.2627
 6091TIP3   OH242467   8.417   1.304  13.187  0.1760  0.1855 -0.4635
 6091TIP3    H142468   8.507   1.331  13.206  0.0372 -0.4006  1.2002
 6091TIP3    H242469   8.413   1.300  13.092  1.2939  2.2731 -0.6593
 6092TIP3   OH242470   2.341   2.970  12.217 -0.0093 -0.7892 -0.0118
 6092TIP3    H142471   2.282   2.953  12.144  1.4732 -1.9555 -1.0089
 6092TIP3    H242472   2.284   2.975  12.294 -1.6448  0.7271 -1.2322
 6093TIP3   OH242473   5.953   3.126  13.079 -0.1992 -0.4956  0.0991
 6093TIP3    H142474   5.918   3.158  13.162 -1.5517  0.6348 -0.8434
 6093TIP3    H242475   5.879   3.133  13.018  0.7430 -1.3145 -1.1894
 6094TIP3   OH242476   5.676   3.880  12.100 -0.0317  0.4875 -0.1999
 6094TIP3    H142477   5.758   3.893  12.147 -0.2731  0.4861  0.2317
 6094TIP3    H242478   5.656   3.966  12.063 -1.1592  1.2020  1.8874
 6095TIP3   OH242479   0.677   2.498  13.025  0.2215  0.3576 -0.2782
 6095TIP3    H142480   0.680   2.429  13.092  1.4751  0.9336  0.2923
 6095TIP3    H242481   0.636   2.572  13.070 -2.2972 -0.3318 -1.2527
 6096TIP3   OH242482   6.108   6.437  12.620 -0.2725  0.2503  0.4979
 6096TIP3    H142483   6.031   6.412  12.568 -0.3077  1.7723 -0.2331
 6096TIP3    H242484   6.149   6.354  12.644  0.3706 -0.5683 -2.9207
 6097TIP3   OH242485   0.471   8.824  13.192  0.0243 -1.0136 -0.2810
 6097TIP3    H142486   0.395   8.775  13.226 -1.1167 -0.1133 -1.4414
 6097TIP3    H242487   0.535   8.756  13.173 -0.9225 -1.9282 -0.3441
 6098TIP3   OH242488   5.295   0.034  13.036  0.3671 -0.0090  0.6851
 6098TIP3    H142489   5.384   0.068  13.052  1.0909 -1.4847 -0.0016
 6098TIP3    H242490   5.254   0.032  13.122  1.4894 -0.5774  1.2255
 6099TIP3   OH242491   2.343   5.757  12.039 -0.5610  0.3141 -0.8945
 6099TIP3    H142492   2.348   5.801  12.124 -0.4920 -1.5263  0.1081
 6099TIP3    H242493   2.432   5.723  12.025 -0.8114 -0.2102 -1.2236
 6100TIP3   OH242494   7.833   7.111  11.412 -0.8189  0.2299 -0.6559
 6100TIP3    H142495   7.922   7.109  11.378 -1.7355 -0.1084 -3.2858
 6100TIP3    H242496   7.828   7.192  11.463  1.0993 -0.0086 -0.0405
 6101TIP3   OH242497   3.050   6.468  11.876  0.1741  0.8572  0.8164
 6101TIP3    H142498   2.978   6.523  11.844 -0.5005  0.0592  0.9198
 6101TIP3    H242499   3.101   6.525  11.932 -0.2638  1.4992  0.5752
 6102TIP3   OH242500   2.887   4.510  12.155  0.2200  0.0438  0.2900
 6102TIP3    H142501   2.913   4.423  12.185  0.5653 -0.0606 -0.2905
 6102TIP3    H242502   2.947   4.530  12.084 -0.5436  0.3062 -0.2997
 6103TIP3   OH242503   8.426   9.026  12.460  0.2908  0.3309 -0.5624
 6103TIP3    H142504   8.473   8.944  12.470 -0.3105  0.0971  0.4111
 6103TIP3    H242505   8.493   9.094  12.466  0.5742 -0.0219  0.2655
 6104TIP3   OH242506   2.872   7.128  11.799 -0.1059 -0.0703  0.0565
 6104TIP3    H142507   2.874   7.058  11.733  0.5879 -0.5754  0.5948
 6104TIP3    H242508   2.780   7.135  11.824 -0.1870 -0.7611 -0.0349
 6105TIP3   OH242509   4.165   4.599  13.493  0.4786 -0.7549  0.1523
 6105TIP3    H142510   4.187   4.679  13.540  0.9486 -0.4097 -0.6512
 6105TIP3    H242511   4.182   4.529  13.557 -1.4138 -0.1551  1.3959
 6106TIP3   OH242512   0.029   0.963  12.239  0.4027 -0.5341  0.5073
 6106TIP3    H142513   0.101   0.923  12.189 -0.1550  1.1221 -1.7694
 6106TIP3    H242514  -0.046   0.906  12.221  0.6097 -0.9668  0.9877
 6107TIP3   OH242515   8.843   3.142  12.507  0.6979  0.0221 -0.3517
 6107TIP3    H142516   8.844   3.214  12.570 -0.4705  0.0628 -0.3693
 6107TIP3    H242517   8.848   3.184  12.422  2.9909 -0.0569 -0.3206
 6108TIP3   OH242518   0.206   3.170  11.949  0.4749  0.3329 -0.5604
 6108TIP3    H142519   0.228   3.083  11.982 -3.0268 -1.2071 -1.8472
 6108TIP3    H242520   0.203   3.225  12.028  0.5812 -1.2389  0.5879
 6109TIP3   OH242521   7.278   8.018  13.162 -0.1937  0.1416 -0.3608
 6109TIP3    H142522   7.284   8.054  13.073 -0.8545 -0.3880 -0.6341
 6109TIP3    H242523   7.218   8.076  13.208 -0.8778 -0.3200 -0.6568
 6110TIP3   OH242524   1.076   3.547  12.422 -0.1761 -0.3706  0.4536
 6110TIP3    H142525   1.025   3.526  12.500 -1.5580 -0.2618 -0.3855
 6110TIP3    H242526   1.088   3.642  12.425 -2.1304 -0.0404 -0.5298
 6111TIP3   OH242527   6.252   0.788  12.008  0.3082 -0.2672 -0.2367
 6111TIP3    H142528   6.233   0.704  11.966  0.0218  0.5929 -1.9213
 6111TIP3    H242529   6.169   0.815  12.047  0.8830 -1.7063  2.2281
 6112TIP3   OH242530   7.318   8.445  11.546 -0.1551  0.8737  0.2200
 6112TIP3    H142531   7.358   8.522  11.586  1.2117 -0.3830  1.4034
 6112TIP3    H242532   7.328   8.376  11.611  1.1783 -1.0131 -1.8413
 6113TIP3   OH242533   2.248   2.105  13.437 -0.4681  0.0820  0.6455
 6113TIP3    H142534   2.166   2.116  13.389 -1.1642 -0.0935  1.7618
 6113TIP3    H242535   2.227   2.131  13.526  0.2403 -1.5662  1.3335
 6114TIP3   OH242536   5.566   0.602  13.282  0.1031 -0.4661 -0.2318
 6114TIP3    H142537   5.650   0.631  13.317  0.4280 -0.8782 -0.6718
 6114TIP3    H242538   5.513   0.682  13.280  0.8723  0.0416 -1.0892
 6115TIP3   OH242539   2.105   1.458  12.831 -0.1609  0.1285 -0.3816
 6115TIP3    H142540   2.057   1.525  12.782 -0.5078 -1.6876 -2.6881
 6115TIP3    H242541   2.195   1.490  12.833 -0.6429  1.5230  0.2116
 6116TIP3   OH242542   8.980   6.337  12.211  0.6258 -0.0100 -0.4575
 6116TIP3    H142543   8.991   6.248  12.244  0.2256  0.1561  0.1453
 6116TIP3    H242544   8.933   6.327  12.128  1.2469 -0.4034 -0.7682
 6117TIP3   OH242545   2.550   4.847  12.785 -0.0372  0.4164  0.6622
 6117TIP3    H142546   2.481   4.859  12.720  1.6320  0.8228 -1.1068
 6117TIP3    H242547   2.543   4.755  12.810 -1.0410  0.3855  0.3363
 6118TIP3   OH242548   7.432   1.428  12.055  0.8107 -0.5449  0.2985
 6118TIP3    H142549   7.347   1.445  12.015  1.4485  0.1022 -0.8152
 6118TIP3    H242550   7.457   1.512  12.094  1.2393 -0.5487  0.0365
 6119TIP3   OH242551   5.218   7.355  11.947  0.1732 -0.0200 -0.1024
 6119TIP3    H142552   5.220   7.451  11.944 -2.0897  0.1081  0.3412
 6119TIP3    H242553   5.309   7.329  11.935  1.0899  2.2206  1.2237
 6120TIP3   OH242554   8.702   0.823  12.528  0.2619  0.3898  0.9864
 6120TIP3    H142555   8.732   0.775  12.451 -2.0583 -0.3485  0.4644
 6120TIP3    H242556   8.758   0.792  12.599  0.8128 -0.7938  0.0645
 6121TIP3   OH242557   5.465   8.121  13.125 -0.1489 -0.0139  0.0924
 6121TIP3    H142558   5.425   8.142  13.041  1.8915 -0.7614 -1.1460
 6121TIP3    H242559   5.406   8.057  13.164 -0.3733 -0.8292 -1.5039
 6122TIP3   OH242560   9.007   0.783  12.753  0.3151 -0.5462  0.3648
 6122TIP3    H142561   9.049   0.850  12.807 -0.1465 -0.1709  0.2639
 6122TIP3    H242562   8.949   0.737  12.814 -0.7976  0.3885  0.0291
 6123TIP3   OH242563   3.373   4.773  11.958 -0.3687  0.1196  0.3859
 6123TIP3    H142564   3.322   4.796  11.881  0.9465 -0.3971 -0.6777
 6123TIP3    H242565   3.463   4.797  11.936  0.2410 -1.2395  1.2333
 6124TIP3   OH242566   1.582   7.917  13.469  0.3315 -0.4516  0.4782
 6124TIP3    H142567   1.643   7.873  13.411  3.0892  1.7020  1.4862
 6124TIP3    H242568   1.553   7.849  13.530  0.9245 -1.7686 -0.6536
 6125TIP3   OH242569   4.779   3.265  11.738 -0.1289 -0.2744 -0.0240
 6125TIP3    H142570   4.767   3.189  11.681 -1.2088 -0.5442  0.5371
 6125TIP3    H242571   4.835   3.232  11.809 -1.8661 -1.0316  1.0567
 6126TIP3   OH242572   8.066   0.350  11.905 -0.3262 -0.0275 -0.4195
 6126TIP3    H142573   8.011   0.384  11.976 -0.7319  0.4197 -0.9395
 6126TIP3    H242574   8.021   0.272  11.874 -0.6107  0.2692 -0.7631
 6127TIP3   OH242575   5.429   3.896  13.776  0.1683 -0.6525 -0.3263
 6127TIP3    H142576   5.360   3.950  13.738  0.5517  0.1315  0.0495
 6127TIP3    H242577   5.412   3.808  13.744 -1.0349 -0.4803 -0.1765
 6128TIP3   OH242578   3.387   9.031  13.075 -0.2093 -0.0865  0.3090
 6128TIP3    H142579   3.440   8.982  13.013 -0.2088  0.5258 -0.1903
 6128TIP3    H242580   3.423   9.120  13.072  0.8574 -0.3869  2.4045
 6129TIP3   OH242581   6.741   2.139  12.354 -0.9252  1.1026 -0.0580
 6129TIP3    H142582   6.821   2.184  12.382  0.6825 -0.5522 -1.6366
 6129TIP3    H242583   6.706   2.101  12.434  0.9277  0.3321  0.4589
 6130TIP3   OH242584   0.804   2.864  12.374 -0.8626  0.4595 -0.2783
 6130TIP3    H142585   0.803   2.957  12.397 -1.0208  0.4584 -0.2767
 6130TIP3    H242586   0.713   2.835  12.387 -0.8317  0.3243 -0.3575
 6131TIP3   OH242587   0.605   7.332  12.985  0.0164 -0.4298  0.3036
 6131TIP3    H142588   0.598   7.241  13.013  2.1090 -0.7766 -0.1924
 6131TIP3    H242589   0.680   7.366  13.032 -0.9348  1.1809  0.7385
 6132TIP3   OH242590   3.959   6.563  13.146  0.0124  0.0975 -0.1879
 6132TIP3    H142591   3.965   6.647  13.191 -0.4796  0.7104 -1.2079
 6132TIP3    H242592   4.050   6.539  13.126  0.4911 -1.3788  3.1108
 6133TIP3   OH242593   2.923   6.139  12.587  0.1989  0.7021  0.1920
 6133TIP3    H142594   2.950   6.163  12.498  0.1898  1.4700  0.3892
 6133TIP3    H242595   2.958   6.051  12.600  0.4956  0.7202 -0.4471
 6134TIP3   OH242596   1.785   3.792  13.406  0.1441  0.1631  0.2378
 6134TIP3    H142597   1.696   3.823  13.423  0.2158 -0.3225  1.6733
 6134TIP3    H242598   1.841   3.866  13.430  0.1664  0.0910  0.4123
 6135TIP3   OH242599   2.902   7.825  12.503  0.1486  0.2533  0.5640
 6135TIP3    H142600   2.927   7.797  12.415 -1.0322 -0.3881  0.4125
 6135TIP3    H242601   2.984   7.855  12.543  0.8742 -0.3966 -0.3946
 6136TIP3   OH242602   9.033   4.852  12.966  0.6780 -0.5166 -0.3266
 6136TIP3    H142603   8.970   4.849  13.038  1.1391 -1.6609  0.0456
 6136TIP3    H242604   9.115   4.880  13.007  0.6189  0.1478 -0.6557
 6137TIP3   OH242605   5.534   0.728  12.486 -0.1848 -0.5195 -0.6261
 6137TIP3    H142606   5.591   0.803  12.501  0.3245 -1.0037 -0.1007
 6137TIP3    H242607   5.449   0.756  12.521  0.0449 -0.2441 -0.2748
 6138TIP3   OH242608   1.727   3.219  12.916  0.0205  0.0029 -0.1971
 6138TIP3    H142609   1.680   3.137  12.902 -1.9666  0.3793  3.2511
 6138TIP3    H242610   1.673   3.285  12.874 -0.8512  0.0365  0.9371
 6139TIP3   OH242611   8.382   5.061  12.533 -0.0417 -0.9195 -0.1963
 6139TIP3    H142612   8.289   5.042  12.523  0.0355 -0.8202 -1.1599
 6139TIP3    H242613   8.392   5.079  12.627 -0.9021 -1.3711  0.0003
 6140TIP3   OH242614   8.665   3.655  13.536  0.0894 -0.7405  0.1514
 6140TIP3    H142615   8.642   3.689  13.450 -1.4199  0.2781  0.9076
 6140TIP3    H242616   8.615   3.574  13.545 -0.2133 -0.5450  0.2734
 6141TIP3   OH242617   2.732   5.905  13.483  0.2026  0.2044  0.0134
 6141TIP3    H142618   2.749   5.812  13.491  0.1560  0.0064 -1.8216
 6141TIP3    H242619   2.653   5.911  13.429  1.0748  1.2951 -1.2098
 6142TIP3   OH242620   1.722   7.820  13.266  0.1305 -0.4023 -0.1005
 6142TIP3    H142621   1.802   7.769  13.280  0.5786  0.3886  0.3268
 6142TIP3    H242622   1.753   7.911  13.262 -0.9052  0.0822  1.7071
 6143TIP3   OH242623   5.847   5.252  12.106 -0.2978  0.0001  0.1857
 6143TIP3    H142624   5.764   5.260  12.154 -0.9953 -1.1559 -0.7735
 6143TIP3    H242625   5.874   5.161  12.121 -0.6563 -0.4679 -1.7454
 6144TIP3   OH242626   2.504   7.891  13.147  0.8925  0.2827 -0.2106
 6144TIP3    H142627   2.470   7.974  13.180  0.3392  0.5010 -1.2701
 6144TIP3    H242628   2.595   7.888  13.177  1.2863  1.8430 -1.1466
 6145TIP3   OH242629   9.168   7.386  13.184 -0.0329 -0.5688 -0.2109
 6145TIP3    H142630   9.260   7.372  13.159  0.0807 -0.6356  0.2320
 6145TIP3    H242631   9.170   7.464  13.239 -0.7093  1.4648 -2.8736
 6146TIP3   OH242632   4.087   1.539  13.078 -0.2993 -0.1206 -0.1440
 6146TIP3    H142633   4.074   1.530  13.173  0.2489 -0.1266 -0.0681
 6146TIP3    H242634   4.137   1.461  13.053  0.1705  0.2297 -0.3184
 6147TIP3   OH242635   0.805   7.693  12.802  0.1729  0.3122  0.4103
 6147TIP3    H142636   0.732   7.632  12.808  0.8135 -0.4976  0.1436
 6147TIP3    H242637   0.787   7.759  12.869 -1.1584  0.5330 -0.1271
 6148TIP3   OH242638   5.202   6.235  13.061 -0.4615  0.2022 -0.9532
 6148TIP3    H142639   5.108   6.234  13.077 -0.4353 -0.3093 -0.8439
 6148TIP3    H242640   5.241   6.232  13.148 -0.3374  1.4970 -0.9332
 6149TIP3   OH242641   3.541   4.861  13.132 -0.3115 -0.3411  0.1421
 6149TIP3    H142642   3.537   4.781  13.185 -1.1537  0.3739  1.2048
 6149TIP3    H242643   3.488   4.924  13.180  1.0104  1.1168 -0.2431
 6150TIP3   OH242644   9.210   3.929  11.853  0.9079  0.3713  0.3637
 6150TIP3    H142645   9.133   3.987  11.850  0.6243 -0.0080  0.2268
 6150TIP3    H242646   9.283   3.988  11.872  0.6595  0.8145 -0.0038
 6151TIP3   OH242647   8.955   2.707  11.619  0.2501 -0.3796  0.4837
 6151TIP3    H142648   9.042   2.745  11.607 -0.9233  2.7093  0.8968
 6151TIP3    H242649   8.948   2.692  11.713  0.5022 -1.1720  0.3853
 6152TIP3   OH242650   2.956   2.206  11.643 -0.1878  0.1637 -0.0146
 6152TIP3    H142651   2.889   2.223  11.708  0.8072 -0.0525  1.0949
 6152TIP3    H242652   2.909   2.203  11.560 -2.0170 -2.5758  0.9623
 6153TIP3   OH242653   4.469   2.011  12.338  0.1376 -0.2340 -0.8569
 6153TIP3    H142654   4.470   2.098  12.378 -0.1012 -0.5687 -0.1103
 6153TIP3    H242655   4.444   2.027  12.247 -1.9347  0.3059 -0.2530
 6154TIP3   OH242656   5.034   8.929  11.710 -0.4111 -0.3473  0.4811
 6154TIP3    H142657   4.999   9.018  11.699 -1.6376 -0.7023  1.3364
 6154TIP3    H242658   4.978   8.874  11.655 -1.6846 -1.0127  2.3366
 6155TIP3   OH242659   9.152   4.323  13.093 -0.3050  0.3388  0.0674
 6155TIP3    H142660   9.089   4.275  13.148 -0.8947  0.3629 -0.5712
 6155TIP3    H242661   9.125   4.414  13.099  0.0193  0.4224  0.2468
 6156TIP3   OH242662   2.452   4.681  11.678  0.0337  0.0674  0.5785
 6156TIP3    H142663   2.511   4.631  11.733  1.1841 -1.6308 -1.9973
 6156TIP3    H242664   2.509   4.740  11.628 -0.6078 -0.2525 -0.5854
 6157TIP3   OH242665   4.790   5.763  12.994  0.1074 -0.6983 -0.0869
 6157TIP3    H142666   4.817   5.673  13.011  2.6908 -0.2433 -1.3493
 6157TIP3    H242667   4.762   5.762  12.903 -2.2347 -0.6592  0.5644
 6158TIP3   OH242668   1.545   2.146  12.789  0.2786 -0.4027 -0.2518
 6158TIP3    H142669   1.615   2.209  12.772 -0.2870  0.5096  0.6741
 6158TIP3    H242670   1.465   2.192  12.763 -0.2968 -0.1163  1.8487
 6159TIP3   OH242671   5.897   6.348  12.461  0.9859 -0.0906 -0.0923
 6159TIP3    H142672   5.900   6.337  12.366  3.6424  0.1362 -0.1056
 6159TIP3    H242673   5.842   6.276  12.492 -0.4989  0.2322 -1.8068
 6160TIP3   OH242674   1.559   9.016  13.473  0.1533 -0.4821  0.1633
 6160TIP3    H142675   1.504   8.990  13.546  0.1386  1.1091  0.7473
 6160TIP3    H242676   1.624   8.945  13.466  0.0212 -0.7743  1.5693
 6161TIP3   OH242677   6.409   7.455  11.827 -0.0065 -0.5443 -0.1799
 6161TIP3    H142678   6.488   7.472  11.879 -0.0068 -0.5638 -0.1731
 6161TIP3    H242679   6.399   7.360  11.830 -0.3200 -0.5013  0.2428
 6162TIP3   OH242680   5.062   4.472  12.725 -0.5056  0.1079 -0.2462
 6162TIP3    H142681   5.006   4.460  12.802 -0.2171 -1.6860 -0.2877
 6162TIP3    H242682   5.068   4.385  12.686  0.1176  0.8080 -1.7832
 6163TIP3   OH242683   9.154   0.518  12.217  0.0567 -0.0688 -0.0777
 6163TIP3    H142684   9.236   0.521  12.265  0.1399  0.1709 -0.2312
 6163TIP3    H242685   9.114   0.434  12.241 -0.4145  0.5129  1.2302
 6164TIP3   OH242686   4.490   7.864  12.898 -0.6863 -0.9237  0.5613
 6164TIP3    H142687   4.567   7.896  12.852 -1.3022 -0.0364  0.1142
 6164TIP3    H242688   4.487   7.914  12.979 -1.4820 -0.0321  0.0015
 6165TIP3   OH242689   7.362   6.085  13.290  0.1142 -0.4048  0.9357
 6165TIP3    H142690   7.425   6.154  13.310  2.0289 -2.2019  1.4663
 6165TIP3    H242691   7.378   6.018  13.357 -1.0001 -1.7823 -0.1035
 6166TIP3   OH242692   0.238   3.336  11.741  0.0181 -0.5647  0.0244
 6166TIP3    H142693   0.163   3.395  11.730  0.1009  0.0608  2.3144
 6166TIP3    H242694   0.208   3.270  11.803  0.7124 -1.5798 -0.6786
 6167TIP3   OH242695   3.166   9.074  12.808  0.0065 -0.7900 -0.0049
 6167TIP3    H142696   3.145   9.137  12.739 -0.3567 -0.0701  0.7465
 6167TIP3    H242697   3.090   9.016  12.812 -0.2172 -0.4900  0.1610
 6168TIP3   OH242698   2.513   5.439  12.261 -0.0227 -0.0972  0.7813
 6168TIP3    H142699   2.563   5.413  12.184  0.7410  0.0409  1.2260
 6168TIP3    H242700   2.504   5.534  12.254 -1.3212 -0.2416  0.0588
 6169TIP3   OH242701   5.933   1.006  16.420 -0.1163 -0.1008 -0.1830
 6169TIP3    H142702   5.902   1.058  16.494  0.6029 -0.5087  0.4211
 6169TIP3    H242703   5.936   1.067  16.347 -0.1971  0.4736  0.2894
 6170TIP3   OH242704   3.769   5.782  13.248 -0.1662 -0.2167  0.2557
 6170TIP3    H142705   3.695   5.814  13.300  0.1609 -1.2276  1.4141
 6170TIP3    H242706   3.846   5.811  13.297  0.2142  0.6727 -0.8438
 6171TIP3   OH242707   5.000   1.948  12.651 -0.1496 -0.4120  0.3140
 6171TIP3    H142708   4.927   2.007  12.671  1.0153  0.9224  0.8149
 6171TIP3    H242709   4.991   1.876  12.713 -0.8012 -0.0606  0.6370
 6172TIP3   OH242710   2.170   2.384  12.344 -0.0332  0.5992 -0.2247
 6172TIP3    H142711   2.217   2.424  12.417 -0.4601  0.3034  0.2110
 6172TIP3    H242712   2.107   2.451  12.317 -1.3386 -0.0836  1.0598
 6173TIP3   OH242713   8.303   7.242  12.628  0.1446  0.0585 -0.3483
 6173TIP3    H142714   8.390   7.282  12.626  0.8148 -1.3686 -3.0551
 6173TIP3    H242715   8.308   7.178  12.700  0.8440  0.9145  0.3969
 6174TIP3   OH242716   4.848   0.429  12.809  0.1418 -0.1316  0.2624
 6174TIP3    H142717   4.784   0.498  12.795 -0.1590 -0.3503  0.5445
 6174TIP3    H242718   4.816   0.382  12.886  0.3847 -0.5373  0.1173
 6175TIP3   OH242719   7.083   8.196  13.251 -0.4007  0.0971  0.0281
 6175TIP3    H142720   7.097   8.283  13.288 -0.8964 -0.7543  2.3945
 6175TIP3    H242721   6.988   8.183  13.254 -0.3183 -0.6098 -0.1089
 6176TIP3   OH242722   2.889   4.899  12.914  0.2281 -0.7318 -0.4287
 6176TIP3    H142723   2.932   4.948  12.984 -2.9739  2.6761 -0.5195
 6176TIP3    H242724   2.812   4.860  12.955  0.8788 -2.9469 -1.1499
 6177TIP3   OH242725   4.100   3.786  13.080 -0.1663 -0.4964 -0.6236
 6177TIP3    H142726   4.023   3.738  13.047  0.3804 -2.2201  0.4461
 6177TIP3    H242727   4.111   3.858  13.018 -2.1697 -0.6493 -1.2571
 6178TIP3   OH242728   4.121   7.201  12.322 -0.5865 -0.9059  0.5773
 6178TIP3    H142729   4.060   7.176  12.391 -0.6363  0.3312  1.0095
 6178TIP3    H242730   4.206   7.203  12.365 -0.7219  0.6150  0.8297
 6179TIP3   OH242731   7.791   7.027  13.021 -0.2981 -0.0849 -0.8099
 6179TIP3    H142732   7.734   7.008  12.947  0.7489  0.5574 -1.8177
 6179TIP3    H242733   7.847   6.950  13.028 -0.9034 -0.4789 -0.1723
 6180TIP3   OH242734   3.569   2.588  13.270 -0.0430 -0.6307 -0.1244
 6180TIP3    H142735   3.586   2.550  13.356 -0.6681  1.1465  0.8444
 6180TIP3    H242736   3.564   2.513  13.211 -0.4352 -1.9627  1.5289
 6181TIP3   OH242737   4.641   1.811  12.843 -0.3690  0.3413  0.2862
 6181TIP3    H142738   4.734   1.831  12.828 -0.4707  1.7630  1.4172
 6181TIP3    H242739   4.640   1.716  12.859  1.1895  0.5986  2.3119
 6182TIP3   OH242740   0.282   0.021  12.921  0.1401 -0.4173 -0.0247
 6182TIP3    H142741   0.233  -0.058  12.901  0.6666 -0.8705  0.4279
 6182TIP3    H242742   0.217   0.091  12.923 -0.3434 -0.8591 -0.3191
 6183TIP3   OH242743   6.038   0.129  11.810 -0.2603 -0.4840  0.0710
 6183TIP3    H142744   6.056   0.089  11.895  0.1255  0.3625  0.4040
 6183TIP3    H242745   5.962   0.185  11.826  0.4060  0.4312  0.1122
 6184TIP3   OH242746   8.326   0.690  13.096 -0.1889  0.2324 -0.0695
 6184TIP3    H142747   8.396   0.671  13.160 -1.0462 -0.4505  0.7046
 6184TIP3    H242748   8.313   0.784  13.102 -0.3324  0.1691  0.8807
 6185TIP3   OH242749   7.211   7.590  11.690 -0.2963  0.1414  0.6555
 6185TIP3    H142750   7.250   7.510  11.655  2.6490  0.6156  2.4866
 6185TIP3    H242751   7.223   7.655  11.620 -0.9969 -0.5438 -0.1193
 6186TIP3   OH242752   7.775   4.440  12.236  0.1175  0.4904 -0.4127
 6186TIP3    H142753   7.755   4.393  12.317 -0.5000  1.8547  0.2485
 6186TIP3    H242754   7.724   4.393  12.169 -0.0097 -0.1559  0.1271
 6187TIP3   OH242755   2.342   4.861  12.283  0.3637  0.1164 -0.1545
 6187TIP3    H142756   2.380   4.936  12.329 -0.7821  0.7993 -0.2799
 6187TIP3    H242757   2.388   4.859  12.199  0.0974  0.9495 -0.3236
 6188TIP3   OH242758   5.828   0.884  11.675  0.2863 -0.1702  0.0428
 6188TIP3    H142759   5.747   0.923  11.642  1.8614  1.3003 -2.3524
 6188TIP3    H242760   5.801   0.839  11.756 -2.5017  1.9198  0.4311
 6189TIP3   OH242761   5.299   6.111  12.789  0.2170  0.3945  0.3586
 6189TIP3    H142762   5.315   6.026  12.748  0.6737  0.2824  0.7674
 6189TIP3    H242763   5.256   6.091  12.872 -0.0326  0.5879  0.2802
 6190TIP3   OH242764   7.172   8.169  11.470 -0.6304  0.4916  0.1505
 6190TIP3    H142765   7.225   8.246  11.452  0.7633 -0.3304  0.5786
 6190TIP3    H242766   7.221   8.096  11.431 -0.2400 -0.6045  2.4925
 6191TIP3   OH242767   8.405   9.149  12.004 -0.8528 -0.1204 -0.0427
 6191TIP3    H142768   8.353   9.186  11.933  1.3786 -0.4393 -1.9538
 6191TIP3    H242769   8.395   9.054  11.994  2.4671 -0.3793 -2.5457
 6192TIP3   OH242770   2.523   8.469  12.403 -0.0252 -0.1066 -0.1791
 6192TIP3    H142771   2.612   8.471  12.437 -0.0410  1.6579 -0.1075
 6192TIP3    H242772   2.510   8.380  12.372  1.5218 -0.5726  0.4282
 6193TIP3   OH242773   4.596   6.582  13.005 -0.4318  0.3015 -0.6599
 6193TIP3    H142774   4.670   6.623  12.960 -0.6997  0.5438 -0.8880
 6193TIP3    H242775   4.548   6.656  13.043 -0.6694  0.1636 -0.6907
 6194TIP3   OH242776   8.217   9.111  12.810  0.8244 -0.6896  0.2378
 6194TIP3    H142777   8.218   9.175  12.880  1.3579  0.8261 -1.0946
 6194TIP3    H242778   8.143   9.054  12.831 -1.4647  2.0110  0.0846
 6195TIP3   OH242779   3.324   2.327  12.963 -0.5850 -0.9009 -0.5733
 6195TIP3    H142780   3.410   2.361  12.987 -1.0427 -0.6676  0.8375
 6195TIP3    H242781   3.341   2.238  12.932 -0.0242 -1.7951  1.9957
 6196TIP3   OH242782   8.579   6.551  12.719  0.2227  0.3579 -0.3765
 6196TIP3    H142783   8.643   6.606  12.764  1.3770 -0.7581 -0.5581
 6196TIP3    H242784   8.499   6.560  12.769  1.0342  0.3968  0.9502
 6197TIP3   OH242785   2.295   2.728  12.466  0.1429  0.4355 -0.0103
 6197TIP3    H142786   2.317   2.732  12.559 -0.9853 -1.3744  0.3936
 6197TIP3    H242787   2.368   2.680  12.426  0.9510  1.7770 -0.2251
 6198TIP3   OH242788   4.905   7.486  12.262  0.5499  0.5614 -0.5340
 6198TIP3    H142789   4.978   7.547  12.276  0.9783  0.0227 -0.4020
 6198TIP3    H242790   4.931   7.407  12.308  0.6261 -0.2131 -1.8482
 6199TIP3   OH242791   2.842   6.768  12.446  0.2826  0.2443 -0.0514
 6199TIP3    H142792   2.897   6.821  12.503  0.3679  1.7990 -1.4958
 6199TIP3    H242793   2.781   6.724  12.506  2.8175 -1.2868  1.5586
 6200TIP3   OH242794   6.356   0.135  13.087  0.1907 -0.0888 -0.5107
 6200TIP3    H142795   6.336   0.070  13.154  2.5173  0.9608  1.3989
 6200TIP3    H242796   6.308   0.213  13.115  0.3626  0.0633 -0.6373
 6201TIP3   OH242797   7.279   6.560  12.847  0.2069 -0.3574 -0.1896
 6201TIP3    H142798   7.356   6.523  12.890 -0.3162 -1.5375 -0.2280
 6201TIP3    H242799   7.208   6.501  12.870 -1.1909  1.8406  1.6100
 6202TIP3   OH242800   1.621   0.346  12.773 -0.8510  0.0420  0.1297
 6202TIP3    H142801   1.541   0.294  12.766  0.7775 -2.6200 -0.3484
 6202TIP3    H242802   1.630   0.388  12.688 -1.2343 -0.4923 -0.1826
 6203TIP3   OH242803   7.601   0.770  12.284 -0.4038 -0.3695  0.0297
 6203TIP3    H142804   7.595   0.750  12.191  1.8348  0.3915 -0.3342
 6203TIP3    H242805   7.672   0.715  12.316 -0.4299  0.1635  1.0473
 6204TIP3   OH242806   2.384   1.436  12.483 -0.6874  0.1787 -0.2163
 6204TIP3    H142807   2.440   1.453  12.559  0.1705  0.0824 -0.8086
 6204TIP3    H242808   2.391   1.516  12.430 -2.6379  0.9429  0.5994
 6205TIP3   OH242809   2.575   9.031  13.441  0.2391 -0.2959  0.0565
 6205TIP3    H142810   2.540   9.116  13.412  0.2313 -0.0070  0.8922
 6205TIP3    H242811   2.561   8.973  13.366 -2.5276 -0.3449  0.4893
 6206TIP3   OH242812   5.322   4.027  12.919 -0.1256  0.6796  0.4211
 6206TIP3    H142813   5.233   4.055  12.899 -0.3673 -0.2055  0.2122
 6206TIP3    H242814   5.316   3.932  12.928  0.6017  0.7136  1.4527
 6207TIP3   OH242815   2.051   6.816  13.504 -0.1512 -0.1405  0.0839
 6207TIP3    H142816   2.005   6.900  13.505 -0.6180 -0.3796 -0.6946
 6207TIP3    H242817   1.990   6.755  13.547  0.8247  0.2194  2.0844
 6208TIP3   OH242818   2.781   8.940  13.594  0.2429  0.3586  0.1601
 6208TIP3    H142819   2.765   8.848  13.615  1.0447  0.0865 -0.3695
 6208TIP3    H242820   2.696   8.973  13.564 -0.0481 -0.2128  0.3426
 6209TIP3   OH242821   0.328   8.495  12.282  0.5037  0.5696  0.4725
 6209TIP3    H142822   0.329   8.407  12.318  2.2722  0.0657 -0.6648
 6209TIP3    H242823   0.354   8.483  12.190  3.6318  2.4700  0.9434
 6210TIP3   OH242824   1.005   7.029  12.624 -0.1636 -0.1014 -0.4764
 6210TIP3    H142825   1.053   6.957  12.582 -0.8632 -0.0663 -1.3741
 6210TIP3    H242826   0.916   7.022  12.588 -0.1746  1.3916 -0.8101
 6211TIP3   OH242827   0.484   3.427  13.688  0.7750 -0.4499 -0.0810
 6211TIP3    H142828   0.522   3.481  13.756  1.8386 -1.3612  0.0751
 6211TIP3    H242829   0.397   3.404  13.721  1.1273 -0.5506  0.7796
 6212TIP3   OH242830   1.259   1.375  12.332  0.9957 -0.5930 -0.3311
 6212TIP3    H142831   1.182   1.374  12.388  0.4096  0.4485 -1.0917
 6212TIP3    H242832   1.326   1.419  12.384  1.4601 -2.4477  0.7561
 6213TIP3   OH242833   5.516   4.513  13.629 -0.2400  0.4758  0.4250
 6213TIP3    H142834   5.462   4.541  13.703 -0.5818  0.4796  0.1775
 6213TIP3    H242835   5.455   4.509  13.555  0.1186  0.5837  0.1188
 6214TIP3   OH242836   1.419   7.987  12.894 -0.1273  0.0836  0.3209
 6214TIP3    H142837   1.366   8.066  12.900  0.6309  0.5618  1.1169
 6214TIP3    H242838   1.422   7.966  12.801 -3.1405 -0.9942  0.3646
 6215TIP3   OH242839   1.288   5.194  12.446 -0.4160 -0.3720 -0.4242
 6215TIP3    H142840   1.328   5.266  12.397  0.6552 -0.2257  0.6142
 6215TIP3    H242841   1.325   5.202  12.534 -0.5776 -1.9658 -0.1882
 6216TIP3   OH242842   2.124   1.519  13.243 -0.0759 -0.3052  0.2205
 6216TIP3    H142843   2.153   1.576  13.172  0.1128  0.1795  0.6857
 6216TIP3    H242844   2.185   1.444  13.240  0.5245  0.1638  0.4683
 6217TIP3   OH242845   1.259   6.859  11.664  0.1507 -0.0848 -0.4376
 6217TIP3    H142846   1.306   6.822  11.739 -1.1578  0.0467  0.4801
 6217TIP3    H242847   1.321   6.921  11.626  1.0683 -0.6126  0.1556
 6218TIP3   OH242848   9.021   7.773  12.798 -0.0485  0.1777  0.3167
 6218TIP3    H142849   9.018   7.781  12.703 -0.6342 -1.5020  0.1490
 6218TIP3    H242850   9.104   7.728  12.815  0.0114  0.3940  0.6025
 6219TIP3   OH242851   2.872   3.777  13.300  0.4792 -0.4063 -0.3616
 6219TIP3    H142852   2.959   3.750  13.330 -0.1087 -0.4893  1.3712
 6219TIP3    H242853   2.886   3.805  13.209  1.9946 -1.9867 -0.6764
 6220TIP3   OH242854   7.582   8.439  12.611 -0.7056  0.2571 -0.0691
 6220TIP3    H142855   7.626   8.516  12.647  1.3777 -0.5887 -0.6491
 6220TIP3    H242856   7.634   8.365  12.642 -2.9007 -0.9881  0.8178
 6221TIP3   OH242857   2.537   2.056  13.484 -0.1771  0.2070  0.5711
 6221TIP3    H142858   2.578   1.970  13.484 -0.8064 -0.1442 -1.7861
 6221TIP3    H242859   2.450   2.042  13.523 -1.1133 -0.7137 -1.7261
 6222TIP3   OH242860   7.559   9.176  11.991  0.3924  0.2152  0.2294
 6222TIP3    H142861   7.502   9.152  12.064  0.0730 -0.3981 -0.2178
 6222TIP3    H242862   7.499   9.199  11.920  0.6810 -0.8842 -0.3928
 6223TIP3   OH242863   8.529   4.989  12.308 -0.1194  0.5406  0.2924
 6223TIP3    H142864   8.540   4.894  12.309 -0.5401  0.3660 -2.7273
 6223TIP3    H242865   8.493   5.009  12.394  0.3242 -1.9714  1.1588
 6224TIP3   OH242866   8.611   5.563  12.543 -0.1063 -0.0635  0.2644
 6224TIP3    H142867   8.554   5.633  12.575  1.5269  1.8634 -0.8282
 6224TIP3    H242868   8.583   5.547  12.453  0.7969  0.6277 -0.1528
 6225TIP3   OH242869   5.453   5.590  12.361 -0.0471 -0.0370 -0.1217
 6225TIP3    H142870   5.379   5.546  12.404 -0.2556 -0.6171 -1.0490
 6225TIP3    H242871   5.418   5.618  12.277  0.2899  1.2988  0.1595
 6226TIP3   OH242872   3.096   2.763  12.563 -0.3853 -0.3797  0.5890
 6226TIP3    H142873   3.047   2.790  12.485  0.9620 -1.9142 -0.8825
 6226TIP3    H242874   3.060   2.678  12.586 -0.3299 -0.2288  1.2534
 6227TIP3   OH242875   1.130   4.542  12.077 -0.0055 -0.1732 -0.1665
 6227TIP3    H142876   1.185   4.607  12.034 -0.2273  0.8582  1.0490
 6227TIP3    H242877   1.102   4.584  12.158 -2.8413 -0.5205 -0.8535
 6228TIP3   OH242878   8.944   1.445  12.362 -0.3018 -0.9091 -0.1379
 6228TIP3    H142879   8.868   1.388  12.372  0.1542 -1.2754  1.8140
 6228TIP3    H242880   8.908   1.533  12.360 -0.8009 -1.0295  1.5171
 6229TIP3   OH242881   5.844   2.582  12.422  0.1472  0.3799  0.1312
 6229TIP3    H142882   5.901   2.614  12.493  0.1242 -0.3571  0.4872
 6229TIP3    H242883   5.797   2.508  12.460 -1.1463  1.0411 -0.1238
 6230TIP3   OH242884   8.189   5.833  13.538 -0.2401 -0.4046  0.1600
 6230TIP3    H142885   8.115   5.781  13.568 -0.1009  0.1571  1.5187
 6230TIP3    H242886   8.205   5.803  13.448 -1.8699 -0.7857 -0.0241
 6231TIP3   OH242887   4.934   3.358  12.133  0.2035 -0.0716 -0.1628
 6231TIP3    H142888   4.925   3.308  12.052  1.4349 -0.3987 -0.1101
 6231TIP3    H242889   4.852   3.342  12.180 -0.0473 -0.7982 -0.8335
 6232TIP3   OH242890   7.928   4.712  13.032 -0.2262 -0.3945  0.3376
 6232TIP3    H142891   8.022   4.699  13.028 -0.0412  0.9830 -0.5940
 6232TIP3    H242892   7.910   4.739  13.122  0.3652 -0.0350  0.3512
 6233TIP3   OH242893   0.807   7.156  12.025 -0.1814  0.4144  0.5379
 6233TIP3    H142894   0.780   7.184  12.113  1.4740 -1.0649  1.5722
 6233TIP3    H242895   0.758   7.075  12.009  0.7984 -0.2589  0.8579
 6234TIP3   OH242896   7.561   7.283  12.116 -0.3672 -0.1568  0.0469
 6234TIP3    H142897   7.629   7.217  12.128  0.6033  0.7106 -0.4957
 6234TIP3    H242898   7.608   7.363  12.092 -1.5975  0.3955 -0.6816
 6235TIP3   OH242899   7.865   3.839  11.766 -0.6386 -0.4561  0.0092
 6235TIP3    H142900   7.886   3.918  11.816  0.1768 -1.2673  0.9966
 6235TIP3    H242901   7.791   3.800  11.812  1.3177 -2.2319  1.8523
 6236TIP3   OH242902   4.416   2.904  12.767 -0.0357 -0.0285 -0.1824
 6236TIP3    H142903   4.321   2.915  12.765 -0.0300  0.2587  0.6555
 6236TIP3    H242904   4.430   2.810  12.765 -0.3881 -0.1144  0.8005
 6237TIP3   OH242905   5.585   0.765  12.213 -0.0570 -0.6764  0.0790
 6237TIP3    H142906   5.547   0.757  12.301 -2.0588  2.6664 -0.3321
 6237TIP3    H242907   5.675   0.794  12.228 -0.4068 -0.0588  1.0276
 6238TIP3   OH242908   2.799   8.415  12.421 -0.5175  0.1163 -0.9027
 6238TIP3    H142909   2.823   8.336  12.373  2.0337  0.3286 -0.0981
 6238TIP3    H242910   2.831   8.487  12.366 -0.2622  0.4782 -0.2807
 6239TIP3   OH242911   0.529   1.835  13.201  0.5775  0.5165  0.0796
 6239TIP3    H142912   0.530   1.829  13.105  0.1303 -0.1877  0.1134
 6239TIP3    H242913   0.557   1.748  13.230 -1.1589  0.0859  0.5884
 6240TIP3   OH242914   1.995   7.076  13.628  0.3978 -0.7080 -0.3950
 6240TIP3    H142915   2.080   7.112  13.656 -0.8569  2.4342 -0.1968
 6240TIP3    H242916   1.934   7.105  13.696 -1.0203 -2.1917 -0.9753
 6241TIP3   OH242917   3.087   4.502  12.460 -0.3330 -0.3203 -0.0863
 6241TIP3    H142918   2.996   4.532  12.457 -0.0578  0.7045  1.3214
 6241TIP3    H242919   3.139   4.581  12.445  0.3561 -0.7509 -0.0051
 6242TIP3   OH242920   0.609   3.400  12.676 -0.6391  0.2651 -0.3272
 6242TIP3    H142921   0.564   3.321  12.706 -0.2750  0.4071  0.6356
 6242TIP3    H242922   0.550   3.472  12.700 -0.7075  0.3369 -0.6924
 6243TIP3   OH242923   1.853   3.636  13.043  0.2853  0.6152 -0.3486
 6243TIP3    H142924   1.769   3.594  13.056  1.2397 -1.5722 -0.8831
 6243TIP3    H242925   1.844   3.722  13.085 -1.3048 -0.6152  1.9974
 6244TIP3   OH242926   2.504   6.557  13.036 -0.2006  0.8139 -0.6110
 6244TIP3    H142927   2.577   6.506  13.071  1.0240  0.2748 -3.6357
 6244TIP3    H242928   2.499   6.634  13.093  1.3099 -0.1927  0.9653
 6245TIP3   OH242929   6.722   1.590  12.256  0.4136  0.4266  0.0393
 6245TIP3    H142930   6.681   1.675  12.236 -0.7606  0.6748  2.9756
 6245TIP3    H242931   6.795   1.613  12.314 -0.3854 -0.6053  1.4792
 6246TIP3   OH242932   8.987   5.709  13.043  0.6285  0.0535  0.3614
 6246TIP3    H142933   8.902   5.690  13.004  0.0938  1.5729  0.7286
 6246TIP3    H242934   8.995   5.647  13.115  0.7092 -1.3872 -0.8463
 6247TIP3   OH242935   3.322   1.420  13.668 -0.1356  0.2332 -0.9084
 6247TIP3    H142936   3.325   1.510  13.637 -1.1067  0.2294 -1.0379
 6247TIP3    H242937   3.276   1.372  13.600 -0.1164 -0.2550 -0.5866
 6248TIP3   OH242938   7.708   1.263  12.582  0.5790  0.2758  0.1281
 6248TIP3    H142939   7.785   1.266  12.525 -0.2189  1.3005 -0.9394
 6248TIP3    H242940   7.694   1.169  12.598  1.9809  0.0743  0.2749
 6249TIP3   OH242941   6.194   4.757  11.732 -0.6453  0.0312  0.1865
 6249TIP3    H142942   6.154   4.839  11.762  0.1407 -0.2726  2.2389
 6249TIP3    H242943   6.119   4.702  11.708 -1.3539  0.4531  1.3134
 6250TIP3   OH242944   1.788   5.102  12.784 -0.0442  0.2225 -0.0466
 6250TIP3    H142945   1.796   5.074  12.692  0.4918  2.5625 -0.7769
 6250TIP3    H242946   1.695   5.122  12.795 -0.0863  0.0652 -0.1075
 6251TIP3   OH242947   0.023   0.548  11.929  0.6736 -0.0841  0.3811
 6251TIP3    H142948   0.002   0.528  12.021  1.3780 -1.3083  0.2902
 6251TIP3    H242949  -0.041   0.498  11.879  0.7855 -0.0324  0.1860
 6252TIP3   OH242950   9.002   8.430  11.887  0.0838 -0.0614  0.1109
 6252TIP3    H142951   9.078   8.391  11.844  0.3819  0.2568  0.3358
 6252TIP3    H242952   8.966   8.491  11.822  1.4887  1.6307  0.8287
 6253TIP3   OH242953   1.112   4.870  12.701  0.0227 -0.4240 -0.2116
 6253TIP3    H142954   1.149   4.933  12.763 -1.2290  1.5118 -1.3204
 6253TIP3    H242955   1.132   4.906  12.615 -1.0657 -1.3498 -0.8904
 6254TIP3   OH242956   9.109   2.138  12.019  0.0706 -0.0956  0.1589
 6254TIP3    H142957   9.045   2.137  12.091 -0.8116  3.4161 -0.4193
 6254TIP3    H242958   9.178   2.197  12.049  0.9822 -0.5940 -0.8918
 6255TIP3   OH242959   4.343   0.876  11.747 -0.1743 -0.2785 -0.5103
 6255TIP3    H142960   4.286   0.934  11.799 -0.5926 -2.1143  1.1692
 6255TIP3    H242961   4.431   0.912  11.758 -0.6380  1.0437 -0.9479
 6256TIP3   OH242962   2.373   1.522  12.836  0.1421  0.4504 -0.4199
 6256TIP3    H142963   2.409   1.507  12.924 -2.2739 -2.5880  0.2096
 6256TIP3    H242964   2.445   1.502  12.777  0.8037 -1.1339  0.8444
 6257TIP3   OH242965   1.841   7.580  12.170 -0.5882 -0.4060 -0.1800
 6257TIP3    H142966   1.882   7.643  12.228 -0.7231 -0.6365  0.1671
 6257TIP3    H242967   1.913   7.523  12.142 -0.3943  0.1286 -0.8034
 6258TIP3   OH242968   6.073   1.075  12.070  0.1893 -0.3511  0.3252
 6258TIP3    H142969   5.981   1.100  12.085  0.7701  1.6688  0.8955
 6258TIP3    H242970   6.071   1.026  11.988 -1.3366  0.1237  0.0381
 6259TIP3   OH242971   9.124   6.430  11.986 -0.2192  0.7075  0.0056
 6259TIP3    H142972   9.195   6.494  11.983 -0.5033  1.0901  0.9872
 6259TIP3    H242973   9.115   6.408  12.079  1.3959 -2.5022 -0.4643
 6260TIP3   OH242974   5.196   3.230  11.717 -0.3716  0.1844 -0.4288
 6260TIP3    H142975   5.187   3.156  11.778 -1.8507 -0.3173 -1.2106
 6260TIP3    H242976   5.290   3.236  11.701 -0.2061 -1.4719 -0.2751
 6261TIP3   OH242977   0.877   4.808  12.781 -0.0952  0.2048  0.4780
 6261TIP3    H142978   0.905   4.799  12.872  0.0247 -3.7416  0.2169
 6261TIP3    H242979   0.957   4.799  12.730 -0.5606 -1.2150 -0.0482
 6262TIP3   OH242980   7.824   5.596  12.906 -0.5739 -0.4804 -0.1024
 6262TIP3    H142981   7.897   5.622  12.962 -0.1652  0.1209 -0.8912
 6262TIP3    H242982   7.822   5.661  12.836 -2.3268 -0.0806  0.2745
 6263TIP3   OH242983   3.204   1.441  12.715  0.0632 -0.1876  0.1028
 6263TIP3    H142984   3.242   1.403  12.636 -0.3481  0.1792 -0.2755
 6263TIP3    H242985   3.190   1.533  12.694  1.0733  0.2013  1.0183
 6264TIP3   OH242986   8.851   1.116  12.294 -0.2866 -0.8403  0.0776
 6264TIP3    H142987   8.893   1.077  12.370 -0.8872 -0.7159  0.4782
 6264TIP3    H242988   8.921   1.164  12.250 -0.1087 -0.2391  0.9945
 6265TIP3   OH242989   9.031   8.869  12.227 -0.0417  0.4657 -0.0969
 6265TIP3    H142990   9.038   8.848  12.320 -0.1793  0.2381 -0.1396
 6265TIP3    H242991   8.949   8.916  12.219  0.1992  0.9065 -0.0241
 6266TIP3   OH242992   5.404   7.633  12.652  0.5485 -0.3027 -0.3217
 6266TIP3    H142993   5.415   7.553  12.600 -0.2712 -0.4612 -0.2525
 6266TIP3    H242994   5.384   7.602  12.740 -0.4961 -0.0194 -0.4533
 6267TIP3   OH242995   5.332   3.276  12.450  0.1959 -0.6283 -1.0059
 6267TIP3    H142996   5.347   3.364  12.414  0.6194 -1.0599 -1.9235
 6267TIP3    H242997   5.270   3.236  12.389 -0.0306 -0.9508 -0.5652
 6268TIP3   OH242998   8.252   8.534  12.844 -0.2947 -0.0088 -0.4521
 6268TIP3    H142999   8.163   8.552  12.815 -1.0333 -1.0263  1.0513
 6268TIP3    H243000   8.272   8.604  12.907  0.5253  0.9972 -1.7562
 6269TIP3   OH243001   7.627   5.951  11.916  0.2278 -0.0080  0.2009
 6269TIP3    H143002   7.649   5.861  11.938  3.5139  0.5523 -0.3430
 6269TIP3    H243003   7.643   6.000  11.996  0.2816  0.3462 -0.0253
 6270TIP3   OH243004   8.950   8.694  12.807  0.1946 -0.7654  0.2804
 6270TIP3    H143005   8.984   8.654  12.888  0.1275 -0.8724  0.2561
 6270TIP3    H243006   8.864   8.727  12.831  1.0630  1.2140  0.8598
 6271TIP3   OH243007   8.807   6.494  12.410 -0.2884  0.4121 -0.5263
 6271TIP3    H143008   8.766   6.409  12.421  2.3087 -0.7936  0.5386
 6271TIP3    H243009   8.869   6.482  12.338  0.3819  1.2773 -0.1193
 6272TIP3   OH243010   7.930   3.287  11.802 -0.4166 -0.8263 -0.3587
 6272TIP3    H143011   7.970   3.363  11.759 -0.0800 -0.5533  0.4180
 6272TIP3    H243012   7.951   3.213  11.745  1.1173 -0.6716 -0.0154
 6273TIP3   OH243013   0.287   9.004  13.527  0.0759 -0.0293 -0.0856
 6273TIP3    H143014   0.237   8.938  13.480 -0.3748 -1.4420  2.2410
 6273TIP3    H243015   0.237   9.085  13.515  0.2280 -0.2225 -2.3412
 6274TIP3   OH243016   2.767   0.318  13.497 -0.5849 -0.1981 -0.2920
 6274TIP3    H143017   2.682   0.342  13.532  0.3032  0.9452  1.1809
 6274TIP3    H243018   2.828   0.381  13.535  0.9642 -1.0977 -1.1591
 6275TIP3   OH243019   5.912   0.525  12.571 -0.2665  0.5522  0.6548
 6275TIP3    H143020   5.840   0.489  12.520 -0.1396  0.6526  0.4058
 6275TIP3    H243021   5.894   0.496  12.661  0.1959 -0.7041  0.3620
 6276TIP3   OH243022   7.695   6.657  12.883  0.5279  0.0625 -0.0327
 6276TIP3    H143023   7.743   6.711  12.947 -1.1750  0.5611  0.8975
 6276TIP3    H243024   7.663   6.720  12.819  1.0932 -0.2647 -0.6403
 6277TIP3   OH243025   1.534   8.975  12.000 -0.0142 -0.1392 -0.0867
 6277TIP3    H143026   1.520   9.039  12.070 -0.1990 -0.5302  0.2335
 6277TIP3    H243027   1.514   9.023  11.920 -2.6500 -0.4796  0.2733
 6278TIP3   OH243028   5.632   0.950  12.028  0.0158 -0.2410  0.8836
 6278TIP3    H143029   5.695   0.893  11.984 -0.0476 -0.3981  0.9913
 6278TIP3    H243030   5.596   0.895  12.098 -2.5502 -1.2611 -1.0617
 6279TIP3   OH243031   8.310   1.715  11.291 -0.3442  0.6988 -0.0382
 6279TIP3    H143032   8.231   1.734  11.241  0.2156 -0.3530 -1.3848
 6279TIP3    H243033   8.286   1.642  11.348 -0.1083 -0.2579 -1.1342
 6280TIP3   OH243034   7.450   8.497  11.909 -0.0558 -0.3383  0.9786
 6280TIP3    H143035   7.476   8.414  11.870  0.4963 -0.2294  1.1132
 6280TIP3    H243036   7.457   8.560  11.838 -2.3070 -0.7122  0.3454
 6281TIP3   OH243037   0.051   4.995  12.407  0.0967  0.6403  0.2963
 6281TIP3    H143038   0.126   4.969  12.461  0.8436 -0.6392 -1.2681
 6281TIP3    H243039   0.031   4.917  12.355 -1.5401  1.3665 -0.2170
 6282TIP3   OH243040   1.024   6.016  12.148 -0.4643  0.2851 -0.0235
 6282TIP3    H143041   0.946   6.072  12.145 -2.3690 -2.2018 -2.5364
 6282TIP3    H243042   1.086   6.060  12.090 -1.0401  0.9856 -0.1298
 6283TIP3   OH243043   7.085   8.177  12.877 -0.2582  0.0171  0.3520
 6283TIP3    H143044   7.170   8.145  12.906  0.2673  1.1928  0.1733
 6283TIP3    H243045   7.028   8.100  12.880  1.2819 -1.2951 -1.4836
 6284TIP3   OH243046   4.596   5.136  11.822  0.4290 -0.2100 -0.5750
 6284TIP3    H143047   4.506   5.112  11.800  0.6493 -1.1770 -0.4931
 6284TIP3    H243048   4.596   5.231  11.824 -1.0030 -0.2019  1.1080
 6285TIP3   OH243049   8.280   2.278  13.344  0.3200  0.0960  0.0355
 6285TIP3    H143050   8.187   2.256  13.354  0.3620  0.5403  1.6686
 6285TIP3    H243051   8.317   2.202  13.298 -0.9893  0.3371 -1.5386
 6286TIP3   OH243052   0.140   6.190  12.448  0.7202  0.1004  0.6581
 6286TIP3    H143053   0.213   6.153  12.497  0.8070  0.7812  1.0621
 6286TIP3    H243054   0.130   6.133  12.372  1.3114 -0.3193  0.8897
 6287TIP3   OH243055   7.290   4.165  13.264 -0.0521 -0.0786 -0.4720
 6287TIP3    H143056   7.347   4.208  13.199 -2.3448  1.1605 -1.7999
 6287TIP3    H243057   7.204   4.206  13.251 -1.5233 -2.5481  0.7257
 6288TIP3   OH243058   7.838   5.166  12.537 -0.6428 -0.3417  0.3460
 6288TIP3    H143059   7.841   5.157  12.632  0.2838  1.3721  0.5138
 6288TIP3    H243060   7.751   5.134  12.512 -2.5277  2.8360  2.2149
 6289TIP3   OH243061   8.902   2.744  13.245 -0.2316 -0.2088  0.4480
 6289TIP3    H143062   8.834   2.694  13.200  1.8440 -1.0601 -1.9271
 6289TIP3    H243063   8.956   2.677  13.288 -0.3113  0.4020  1.5454
 6290TIP3   OH243064   3.694   8.761  11.948  0.2468 -0.6714 -1.5148
 6290TIP3    H143065   3.603   8.743  11.925  0.6713 -1.2202 -2.9040
 6290TIP3    H243066   3.710   8.850  11.916  0.0668 -0.3782 -0.8088
 6291TIP3   OH243067   8.609   8.478  12.834  0.2298  0.0814 -0.5919
 6291TIP3    H143068   8.675   8.413  12.810 -0.2319 -1.5398  2.0979
 6291TIP3    H243069   8.656   8.561  12.834  1.2642 -0.4454 -2.4416
 6292TIP3   OH243070   5.022   3.888  12.325  0.7224 -0.2611 -0.2969
 6292TIP3    H143071   5.104   3.868  12.370  2.0024  0.5481 -2.0992
 6292TIP3    H243072   5.008   3.813  12.267 -0.8046 -1.2107  1.2215
 6293TIP3   OH243073   3.479   3.267  11.924  0.0093  0.2908 -0.0152
 6293TIP3    H143074   3.553   3.302  11.973  0.2569  0.2151 -0.3324
 6293TIP3    H243075   3.496   3.292  11.834 -0.0499 -0.2334 -0.1756
 6294TIP3   OH243076   5.261   1.366  11.894 -0.4501 -0.6186  0.1801
 6294TIP3    H143077   5.291   1.303  11.959  0.6063 -0.8624 -0.5046
 6294TIP3    H243078   5.257   1.316  11.812 -1.9560 -0.3711  0.0713
 6295TIP3   OH243079   3.791   0.041  12.962 -0.3049  0.1479  0.3396
 6295TIP3    H143080   3.875   0.085  12.946 -0.1230 -0.1779  0.3662
 6295TIP3    H243081   3.816  -0.051  12.977 -0.7413 -0.1114 -0.4809
 6296TIP3   OH243082   8.155   2.133  12.354 -0.4941 -0.5678 -0.2150
 6296TIP3    H143083   8.099   2.206  12.329 -0.2973 -1.1478 -2.6081
 6296TIP3    H243084   8.242   2.158  12.324  0.1549 -0.5914  1.5429
 6297TIP3   OH243085   1.016   6.993  13.487 -0.2642  0.1091 -0.5105
 6297TIP3    H143086   1.097   6.943  13.497  0.1649  0.5113 -1.7284
 6297TIP3    H243087   0.948   6.935  13.521  0.2945 -1.0707 -1.3228
 6298TIP3   OH243088   3.583   3.361  12.263 -0.3523  0.3854  0.6582
 6298TIP3    H143089   3.537   3.393  12.341 -0.5232 -1.6540  1.4727
 6298TIP3    H243090   3.554   3.270  12.255  1.0350  0.0347 -0.7741
 6299TIP3   OH243091   6.008   3.975  11.969 -0.6919  0.3040 -0.9561
 6299TIP3    H143092   5.961   3.977  12.052  0.1412 -0.8280 -0.4194
 6299TIP3    H243093   6.100   3.983  11.994 -0.3585 -0.9716 -1.6719
 6300TIP3   OH243094   3.600   7.257  12.369  0.2190  0.1607 -0.2894
 6300TIP3    H143095   3.630   7.201  12.297 -2.5779  1.8166 -2.9629
 6300TIP3    H243096   3.607   7.346  12.334  1.0510  1.2821  2.4727
 6301TIP3   OH243097   9.197   8.714  12.074  0.2518 -0.4529  0.2934
 6301TIP3    H143098   9.163   8.625  12.072 -0.2668 -0.2543 -0.6442
 6301TIP3    H243099   9.128   8.765  12.116  0.2053 -0.3721  0.1218
 6302TIP3   OH243100   0.124   7.809  13.233  0.4833 -0.1317 -0.4193
 6302TIP3    H143101   0.205   7.791  13.280  0.5362 -1.1155 -0.8791
 6302TIP3    H243102   0.129   7.903  13.212  2.1202 -0.4399 -1.5985
 6303TIP3   OH243103   6.712   5.578  11.917  0.3882 -0.7195 -0.2897
 6303TIP3    H143104   6.753   5.495  11.940 -0.4176 -1.3555 -1.0978
 6303TIP3    H243105   6.716   5.630  11.997  1.1200 -1.4434  0.1523
 6304TIP3   OH243106   8.970   4.170  12.292 -0.4663  0.2348 -0.8220
 6304TIP3    H143107   8.955   4.182  12.386  0.2081  0.5714 -0.7500
 6304TIP3    H243108   8.997   4.079  12.283 -1.5261 -0.0994 -0.8306
 6305TIP3   OH243109   7.559   0.413  12.562  0.1839 -0.2722  0.1126
 6305TIP3    H143110   7.573   0.318  12.552  2.1581 -0.3933  2.8716
 6305TIP3    H243111   7.608   0.436  12.640 -0.6536  3.0048 -0.1915
 6306TIP3   OH243112   6.281   2.588  12.557  0.0546 -0.3433 -0.3848
 6306TIP3    H143113   6.233   2.567  12.478 -0.0537  0.3558 -0.5112
 6306TIP3    H243114   6.296   2.504  12.600 -0.7274 -0.6242 -0.6583
 6307TIP3   OH243115   5.604   7.036  12.000 -0.7742 -0.6131 -0.2093
 6307TIP3    H143116   5.665   6.976  11.957 -0.1761  0.6039 -1.1287
 6307TIP3    H243117   5.659   7.088  12.058 -1.0402  0.0481 -0.5458
 6308TIP3   OH243118   3.681   5.293  13.013  0.1613 -0.2491  0.0905
 6308TIP3    H143119   3.644   5.355  13.075  0.3741 -0.6070  0.5782
 6308TIP3    H243120   3.727   5.229  13.067  1.4269  0.1369 -0.4946
 6309TIP3   OH243121   6.828   8.459  12.739  0.1252  0.2381  0.2906
 6309TIP3    H143122   6.899   8.440  12.678  2.0621  1.7230  1.9019
 6309TIP3    H243123   6.757   8.492  12.685  1.7787  1.5863 -1.1602
 6310TIP3   OH243124   6.533   8.895  13.049 -0.1497  0.4251 -0.3386
 6310TIP3    H143125   6.622   8.862  13.061  0.1549  1.3792  0.1104
 6310TIP3    H243126   6.544   8.978  13.003 -0.8844  0.0493 -1.2031
 6311TIP3   OH243127   5.667   1.582  12.900  0.6988  0.2403  0.1919
 6311TIP3    H143128   5.747   1.558  12.947 -0.6252 -1.9330  1.4507
 6311TIP3    H243129   5.688   1.565  12.808  1.5576 -0.7662  0.5503
 6312TIP3   OH243130   7.236   2.844  11.894 -0.5165  0.1160  0.5915
 6312TIP3    H143131   7.183   2.920  11.917 -0.8438 -0.3154  1.2904
 6312TIP3    H243132   7.221   2.832  11.801 -0.8907  0.5747  0.5873
 6313TIP3   OH243133   6.344   0.638  12.321  0.6353  0.0870 -0.2980
 6313TIP3    H143134   6.293   0.636  12.402 -0.7368 -2.9860 -1.0841
 6313TIP3    H243135   6.427   0.595  12.344  0.4266 -0.3775 -0.4044
 6314TIP3   OH243136   0.307   1.712  11.848  0.5922 -0.2533  0.8624
 6314TIP3    H143137   0.238   1.648  11.865  2.4870 -2.1709  1.7382
 6314TIP3    H243138   0.337   1.739  11.934  1.5777 -0.1679  0.5047
 6315TIP3   OH243139   6.278   7.728  11.780 -0.0237  0.3045  0.2097
 6315TIP3    H143140   6.307   7.638  11.766 -0.9080  0.4814 -4.1324
 6315TIP3    H243141   6.354   7.782  11.759 -0.1910  0.6429  0.4509
 6316TIP3   OH243142   2.028   2.754  12.614  0.0236  0.1132  0.0349
 6316TIP3    H143143   2.020   2.661  12.637  1.5153 -0.2731 -0.8962
 6316TIP3    H243144   2.099   2.786  12.669 -0.8959  0.8944  0.8050
 6317TIP3   OH243145   0.178   6.820  11.827  0.4143 -1.0941 -0.1150
 6317TIP3    H143146   0.204   6.728  11.839  1.3753 -0.8223 -0.0621
 6317TIP3    H243147   0.097   6.828  11.877  0.5361 -1.8103  0.2149
 6318TIP3   OH243148   5.584   2.147  11.603  0.1598 -0.4675 -0.1315
 6318TIP3    H143149   5.597   2.131  11.697 -0.3233  0.7666  0.1567
 6318TIP3    H243150   5.525   2.077  11.575  0.6593 -1.1124  0.3766
 6319TIP3   OH243151   7.203   1.686  13.161  0.2049  0.8894  0.2043
 6319TIP3    H143152   7.263   1.753  13.129  0.2532  0.7387 -0.0175
 6319TIP3    H243153   7.179   1.635  13.083 -1.7849  2.1815 -0.0902
 6320TIP3   OH243154   4.676   0.670  12.777 -0.1820  0.3535 -0.5202
 6320TIP3    H143155   4.682   0.762  12.801 -0.8869 -0.1921  2.1018
 6320TIP3    H243156   4.589   0.643  12.806  0.3500 -1.3247 -0.3818
 6321TIP3   OH243157   4.236   2.986  12.434  0.4082  0.0579  0.1035
 6321TIP3    H143158   4.261   2.895  12.450  0.7846  0.0664 -0.3760
 6321TIP3    H243159   4.144   2.991  12.459  0.3355 -0.5014 -0.0253
 6322TIP3   OH243160   1.533   1.867  11.461 -0.1701  0.3828  0.2702
 6322TIP3    H143161   1.553   1.944  11.513 -0.0655  0.0906  0.6685
 6322TIP3    H243162   1.438   1.862  11.460 -0.2429  1.3864 -1.0571
 6323TIP3   OH243163   5.898   1.494  11.986 -0.1492 -0.4625  0.4657
 6323TIP3    H143164   5.953   1.521  11.913  0.7808  1.6565  1.8479
 6323TIP3    H243165   5.813   1.474  11.946 -0.4258  3.0128 -1.0347
 6324TIP3   OH243166   5.706   0.295  12.473 -0.0370 -0.0101  0.5064
 6324TIP3    H143167   5.657   0.233  12.527 -0.4332  1.0969  1.4508
 6324TIP3    H243168   5.639   0.344  12.425  0.1972  0.5497  0.7399
 6325TIP3   OH243169   8.396   1.597  11.571  0.2059 -0.3682  0.2449
 6325TIP3    H143170   8.319   1.599  11.628  0.4901 -0.0522  0.6326
 6325TIP3    H243171   8.468   1.575  11.629  0.2368 -1.9195 -0.3456
 6326TIP3   OH243172   5.323   8.082  11.848  0.1658 -0.0457  0.0586
 6326TIP3    H143173   5.255   8.061  11.783  0.4646  0.4655 -0.4254
 6326TIP3    H243174   5.301   8.170  11.878  0.0647 -0.2584  0.6065
 6327TIP3   OH243175   9.118   5.009  12.668  0.5392 -0.2117 -0.1581
 6327TIP3    H143176   9.158   5.082  12.620  0.9842 -0.1187  0.3506
 6327TIP3    H243177   9.080   4.954  12.600  0.8071  0.1372 -0.5960
 6328TIP3   OH243178   7.282   1.130  12.441 -0.1551 -0.1649 -0.0474
 6328TIP3    H143179   7.293   1.159  12.350  0.1110 -2.5905 -0.8544
 6328TIP3    H243180   7.221   1.056  12.436 -2.2861  1.2659  2.1180
 6329TIP3   OH243181   2.269   3.718  13.575 -0.9136 -0.1049  0.3276
 6329TIP3    H143182   2.253   3.797  13.523  0.4645  1.1106  1.6615
 6329TIP3    H243183   2.344   3.740  13.630 -0.7994 -2.1919  1.1010
 6330TIP3   OH243184   8.826   0.271  11.745  0.1659  0.2959  0.1747
 6330TIP3    H143185   8.796   0.294  11.833  2.3360 -0.6682  1.2395
 6330TIP3    H243186   8.828   0.175  11.744 -3.1359  0.0926 -2.1912
 6331TIP3   OH243187   3.300   8.675  12.725  0.7200  0.4073 -0.6818
 6331TIP3    H143188   3.216   8.709  12.697 -0.3462 -1.0101  0.6212
 6331TIP3    H243189   3.310   8.593  12.677 -0.7523 -1.6377  2.1806
 6332TIP3   OH243190   1.091   6.293  12.388  0.5013 -0.1136  0.7781
 6332TIP3    H143191   1.000   6.273  12.367  0.8810 -0.7322 -0.3803
 6332TIP3    H243192   1.106   6.250  12.472 -1.0303  2.3289  2.4481
 6333TIP3   OH243193   0.542   2.136  12.433  0.0032 -0.3017  0.2994
 6333TIP3    H143194   0.463   2.097  12.471 -0.5615  0.7491  0.2349
 6333TIP3    H243195   0.509   2.196  12.366  0.9362 -1.2918 -1.0964
 6334TIP3   OH243196   5.611   0.311  11.788  0.2506  0.0233 -0.1730
 6334TIP3    H143197   5.669   0.380  11.757  0.0663 -0.0420 -0.6823
 6334TIP3    H243198   5.526   0.331  11.748 -0.0324  0.0140  0.4112
 6335TIP3   OH243199   4.449   6.785  12.699  0.1688 -0.0608  0.1320
 6335TIP3    H143200   4.540   6.789  12.729  0.2286  2.1857 -0.2352
 6335TIP3    H243201   4.436   6.865  12.648 -1.4550 -1.2785 -1.5166
 6336TIP3   OH243202   6.292   6.952  11.660  0.7175  0.4777  0.5284
 6336TIP3    H143203   6.272   6.904  11.740 -0.0337  0.8752  0.5937
 6336TIP3    H243204   6.208   6.958  11.614  1.0733  0.5366 -0.1334
 6337TIP3   OH243205   5.201   8.614  12.971 -0.5165  0.0502 -0.5789
 6337TIP3    H143206   5.126   8.587  12.917 -1.3899  1.1567  0.0265
 6337TIP3    H243207   5.256   8.665  12.912 -1.0488  0.5495 -0.6676
 6338TIP3   OH243208   7.643   5.718  12.060  0.1807 -0.3031  0.3651
 6338TIP3    H143209   7.684   5.657  12.120  1.2816  0.5382  0.5095
 6338TIP3    H243210   7.554   5.684  12.047  1.0648 -2.4864 -0.3699
 6339TIP3   OH243211   0.640   5.764  11.587  0.2645 -0.1055  0.2090
 6339TIP3    H143212   0.680   5.823  11.523  1.0778 -0.3517  0.4778
 6339TIP3    H243213   0.594   5.823  11.648  0.9628  0.2502  0.4019
 6340TIP3   OH243214   2.088   1.728  12.135 -0.2478 -0.1052  0.0417
 6340TIP3    H143215   2.121   1.668  12.068 -1.3839 -1.0140  0.2570
 6340TIP3    H243216   2.006   1.762  12.098  0.9094  2.2309 -0.5615
 6341TIP3   OH243217   2.555   8.878  13.199  0.3549 -0.3378 -0.2024
 6341TIP3    H143218   2.527   8.812  13.136 -0.6497  0.6284 -0.8143
 6341TIP3    H243219   2.648   8.862  13.211  0.1639 -1.7384 -0.4784
 6342TIP3   OH243220   7.858   5.299  12.174 -0.0875  0.6247 -0.1165
 6342TIP3    H143221   7.942   5.259  12.195 -1.1841 -1.1319  1.1889
 6342TIP3    H243222   7.848   5.289  12.080  0.3395 -0.8923 -0.0148
 6343TIP3   OH243223   0.655   7.604  11.914 -0.0942  0.0299  0.8445
 6343TIP3    H143224   0.666   7.526  11.860  1.8753  0.9675 -0.1982
 6343TIP3    H243225   0.700   7.673  11.866  0.2461  1.2959  2.8789
 6344TIP3   OH243226   4.495   1.834  13.459 -0.0298 -0.3519  0.2296
 6344TIP3    H143227   4.405   1.864  13.470  0.8738  1.9656  2.5341
 6344TIP3    H243228   4.519   1.863  13.371 -1.7235 -1.8097 -0.7818
 6345TIP3   OH243229   1.376   0.857  11.667 -0.6787  0.4342  0.2320
 6345TIP3    H143230   1.467   0.878  11.686 -0.7133 -0.0840  1.0574
 6345TIP3    H243231   1.355   0.785  11.728 -1.7027  0.7207  0.2364
 6346TIP3   OH243232   3.934   6.782  13.526 -0.0694  0.5949 -0.5190
 6346TIP3    H143233   3.952   6.832  13.606  4.1741  0.4312 -1.1552
 6346TIP3    H243234   3.962   6.692  13.547  0.2472  0.3513 -1.8976
 6347TIP3   OH243235   0.278   6.380  13.222 -0.0992  0.2781  0.2636
 6347TIP3    H143236   0.186   6.392  13.198  0.1788  1.1480 -0.3806
 6347TIP3    H243237   0.319   6.465  13.207  0.9191 -0.2277  0.0907
 6348TIP3   OH243238   5.963   5.541  11.819  0.2974  0.6581  0.1119
 6348TIP3    H143239   6.048   5.560  11.859  0.8741 -0.6281 -0.4519
 6348TIP3    H243240   5.950   5.447  11.833 -0.4594  0.5954 -0.8841
 6349TIP3   OH243241   5.575   3.793  12.765 -0.5807 -0.6043  1.0149
 6349TIP3    H143242   5.606   3.713  12.723  1.6707 -0.5322  2.4093
 6349TIP3    H243243   5.502   3.765  12.819 -1.1288 -1.3347 -0.0634
 6350TIP3   OH243244   4.257   3.424  13.480 -0.1270  0.4628  0.0190
 6350TIP3    H143245   4.231   3.342  13.438  1.3434 -0.6737  1.1989
 6350TIP3    H243246   4.219   3.492  13.425 -0.5147 -0.9853 -1.6118
 6351TIP3   OH243247   2.071   6.271  12.878 -0.2085 -0.2376 -0.5524
 6351TIP3    H143248   2.010   6.207  12.841 -0.4890  0.5310 -1.4594
 6351TIP3    H243249   2.021   6.313  12.948  0.4207 -1.8963  0.9605
 6352TIP3   OH243250   3.227   0.787  12.476 -0.2662  0.0996  0.0019
 6352TIP3    H143251   3.149   0.794  12.421 -1.0299 -1.3579  0.8400
 6352TIP3    H243252   3.193   0.778  12.565  0.8472 -0.6107  0.3715
 6353TIP3   OH243253   6.567   4.757  12.077  0.3111 -0.8252  0.5449
 6353TIP3    H143254   6.616   4.749  12.159  0.9047  1.7595  0.5316
 6353TIP3    H243255   6.625   4.720  12.011  1.3931  0.2393  0.8473
 6354TIP3   OH243256   2.033   5.384  12.159 -0.5382  0.0250  0.3342
 6354TIP3    H143257   2.073   5.425  12.082  0.7500  0.2758  1.0981
 6354TIP3    H243258   1.976   5.451  12.196 -0.1317  0.3723  0.3399
 6355TIP3   OH243259   4.979   2.482  11.668  0.2687  0.4326  0.1797
 6355TIP3    H143260   4.983   2.445  11.580 -0.3139  1.0111 -0.0937
 6355TIP3    H243261   5.066   2.464  11.705  0.2932 -0.4111 -0.2585
 6356TIP3   OH243262   0.369   4.799  12.693 -0.7419 -0.5316 -0.0537
 6356TIP3    H143263   0.276   4.781  12.703 -1.1321  1.7544  1.0533
 6356TIP3    H243264   0.404   4.796  12.782  0.0856 -0.6445 -0.3705
 6357TIP3   OH243265   0.482   5.280  12.187  0.0603 -0.5240  0.4936
 6357TIP3    H143266   0.544   5.274  12.114 -0.3864 -0.8176  0.1313
 6357TIP3    H243267   0.398   5.252  12.149 -0.5706  1.0700  0.6414
 6358TIP3   OH243268   2.289   0.484  13.457 -0.5185  0.6713  0.3251
 6358TIP3    H143269   2.332   0.508  13.539  1.6686  2.2311 -1.1472
 6358TIP3    H243270   2.238   0.561  13.433 -0.2016  0.6869 -0.3332
 6359TIP3   OH243271   1.240   3.375  13.461 -0.0054  0.0512  0.0125
 6359TIP3    H143272   1.231   3.380  13.366  1.9660 -0.9290 -0.2701
 6359TIP3    H243273   1.224   3.464  13.492 -0.4476  0.4264 -1.2502
 6360TIP3   OH243274   1.223   3.838  12.275 -0.3259 -0.5463 -0.2590
 6360TIP3    H143275   1.296   3.778  12.288 -0.3477 -0.3329  1.0049
 6360TIP3    H243276   1.198   3.827  12.183  1.9845  0.1627 -1.0258
 6361TIP3   OH243277   8.819   7.405  13.546  0.4995  0.0140  0.7647
 6361TIP3    H143278   8.769   7.354  13.482  1.4670 -0.3076  0.2408
 6361TIP3    H243279   8.760   7.413  13.621 -1.0748  1.2685 -0.5216
 6362TIP3   OH243280   0.220   5.833  11.870 -0.2810 -0.2016  0.7178
 6362TIP3    H143281   0.302   5.806  11.911 -0.2238  1.3812  1.6999
 6362TIP3    H243282   0.198   5.761  11.811 -0.0999 -2.3532  3.1081
 6363TIP3   OH243283   3.455   7.780  13.646 -0.4296 -0.4550 -0.0819
 6363TIP3    H143284   3.440   7.717  13.576 -2.3584 -0.2779  0.1344
 6363TIP3    H243285   3.436   7.732  13.726 -0.0881 -0.1181  0.2038
 6364TIP3   OH243286   0.821   0.214  12.577 -0.3545 -0.0255  0.1468
 6364TIP3    H143287   0.768   0.294  12.573  1.6095  1.3837  0.8694
 6364TIP3    H243288   0.782   0.157  12.512 -1.5912  1.6825 -0.6998
 6365TIP3   OH243289   8.382   5.107  12.116 -0.4126 -0.5366 -0.3658
 6365TIP3    H143290   8.450   5.138  12.057 -1.3556  4.7843  0.8202
 6365TIP3    H243291   8.427   5.048  12.176  1.5233 -2.4987 -3.4566
 6366TIP3   OH243292   5.951   4.053  11.706 -0.4870 -0.5093 -0.1471
 6366TIP3    H143293   5.940   4.052  11.801 -0.2422 -0.7307 -0.1236
 6366TIP3    H243294   6.038   4.091  11.692 -0.5266 -0.4684 -0.2833
 6367TIP3   OH243295   3.402   0.837  13.455  0.4838  0.0306  0.0465
 6367TIP3    H143296   3.319   0.811  13.496  1.1278 -1.4424  0.5209
 6367TIP3    H243297   3.396   0.932  13.445 -1.0884  0.0007  0.4324
 6368TIP3   OH243298   6.346   3.644  13.284 -0.1398  0.0677  0.0001
 6368TIP3    H143299   6.281   3.575  13.281 -0.7187  0.6359 -1.2034
 6368TIP3    H243300   6.296   3.725  13.278  0.4448  0.6861  2.3557
 6369TIP3   OH243301   3.457   3.069  13.115 -0.7486 -0.4820 -0.0928
 6369TIP3    H143302   3.547   3.086  13.143 -0.6399  0.6989 -1.0520
 6369TIP3    H243303   3.407   3.063  13.197 -0.4776  3.0190  0.5068
 6370TIP3   OH243304   6.137   3.424  13.067 -0.2763  0.4176  0.3971
 6370TIP3    H143305   6.127   3.516  13.042 -2.6177 -0.0936 -0.8459
 6370TIP3    H243306   6.051   3.399  13.102 -0.7147 -2.0203 -2.0427
 6371TIP3   OH243307   3.438   0.132  11.715 -0.0414  0.0979 -0.0894
 6371TIP3    H143308   3.410   0.223  11.723 -0.3199 -0.0397  0.5482
 6371TIP3    H243309   3.414   0.092  11.798  0.8781 -0.3494 -0.0270
 6372TIP3   OH243310   0.750   4.656  13.097 -0.2720 -0.1218 -0.4631
 6372TIP3    H143311   0.700   4.670  13.178  1.9979  2.4564  0.6666
 6372TIP3    H243312   0.801   4.577  13.115 -2.3169 -1.6369 -0.8753
 6373TIP3   OH243313   2.891   3.042  12.932  0.0729  0.2326  0.4732
 6373TIP3    H143314   2.805   3.062  12.968 -0.7759  1.2178 -1.8939
 6373TIP3    H243315   2.951   3.099  12.980 -0.5992 -0.3133  1.9996
 6374TIP3   OH243316   6.119   3.182  11.607 -0.5036 -0.0483  0.4828
 6374TIP3    H143317   6.181   3.152  11.540 -0.2596 -0.0325  0.7006
 6374TIP3    H243318   6.101   3.273  11.583 -1.3880 -0.4046 -0.2882
 6375TIP3   OH243319   2.107   3.448  11.856  0.1061 -0.4542  0.2192
 6375TIP3    H143320   2.129   3.456  11.763  0.7159  1.1086  0.4610
 6375TIP3    H243321   2.172   3.387  11.891  0.8697  0.1609 -0.0936
 6376TIP3   OH243322   1.138   0.874  12.371 -0.7649  0.1994  0.4981
 6376TIP3    H143323   1.093   0.875  12.455 -1.5017  2.0796  0.1268
 6376TIP3    H243324   1.072   0.904  12.308  0.8879  2.9634 -0.0860
 6377TIP3   OH243325   3.333   2.735  13.397  0.4182  0.0515 -0.2628
 6377TIP3    H143326   3.335   2.700  13.486  0.5477  0.1570 -0.2253
 6377TIP3    H243327   3.407   2.692  13.353  1.9918  1.9358  0.3956
 6378TIP3   OH243328   1.119   5.690  11.922  0.1567  0.7661  0.9812
 6378TIP3    H143329   1.172   5.747  11.978  1.4036  3.4018 -2.5338
 6378TIP3    H243330   1.159   5.604  11.932  1.2592  1.4343  2.9470
 6379TIP3   OH243331   8.301   3.557  11.920  0.0087  0.0666  0.0105
 6379TIP3    H143332   8.359   3.593  11.853  1.2206 -0.6367  0.6435
 6379TIP3    H243333   8.296   3.463  11.901 -1.0052  0.1193 -0.0737
 6380TIP3   OH243334   5.769   6.709  13.150 -0.0795  0.2412  0.4902
 6380TIP3    H143335   5.824   6.781  13.118 -0.9707  0.9390  0.5106
 6380TIP3    H243336   5.706   6.750  13.208 -0.5042 -0.5819  0.6275
 6381TIP3   OH243337   6.683   7.129  12.367  0.0650  0.9696 -0.1504
 6381TIP3    H143338   6.595   7.108  12.334 -0.1280  1.0855  0.2778
 6381TIP3    H243339   6.738   7.056  12.338 -0.0533  1.1600 -0.8951
 6382TIP3   OH243340   2.893   7.114  12.087 -0.3254  0.2921 -0.4169
 6382TIP3    H143341   2.826   7.053  12.119  1.5274 -1.3965  0.4398
 6382TIP3    H243342   2.893   7.102  11.992 -0.3474 -0.6732 -0.3046
 6383TIP3   OH243343   8.728   3.407  12.667  0.0861 -0.5232  0.4902
 6383TIP3    H143344   8.750   3.346  12.737  0.8183  1.0851  1.7190
 6383TIP3    H243345   8.634   3.421  12.677  0.3788  0.5604  1.9043
 6384TIP3   OH243346   1.659   2.878  13.041  0.4537 -0.1681  0.0772
 6384TIP3    H143347   1.689   2.792  13.012 -0.8563 -0.1658 -1.4205
 6384TIP3    H243348   1.711   2.897  13.119  1.4517 -1.8765 -0.1336
 6385TIP3   OH243349   1.282   5.622  13.238 -0.5550 -0.4742 -0.9354
 6385TIP3    H143350   1.355   5.682  13.256 -0.5416 -0.1966 -1.8431
 6385TIP3    H243351   1.322   5.536  13.231 -0.5820 -0.6274  0.4531
 6386TIP3   OH243352   4.009   1.599  12.238  0.0427  0.3172 -0.0536
 6386TIP3    H143353   4.035   1.690  12.224 -1.1932  0.8510  0.9385
 6386TIP3    H243354   4.082   1.548  12.203  1.8332  1.7029  1.4672
 6387TIP3   OH243355   1.093   3.801  12.773  0.3522  0.0881  0.0649
 6387TIP3    H143356   1.112   3.894  12.776  1.6883 -0.0724 -1.7267
 6387TIP3    H243357   1.043   3.789  12.692  1.2904 -0.8842 -0.4097
 6388TIP3   OH243358   7.603   6.604  12.491 -0.0064 -0.0899  0.5318
 6388TIP3    H143359   7.605   6.695  12.522 -1.8610  0.1586  0.0347
 6388TIP3    H243360   7.511   6.584  12.480  0.2452 -2.5309  1.9368
 6389TIP3   OH243361   6.476   3.235  12.746  0.1900 -0.1619  0.1696
 6389TIP3    H143362   6.454   3.283  12.826 -0.7753 -1.1222  0.5108
 6389TIP3    H243363   6.424   3.154  12.752 -0.6932  0.1856 -1.9135
 6390TIP3   OH243364   3.100   8.650  13.205 -0.5088 -0.0907 -0.7109
 6390TIP3    H143365   3.081   8.587  13.135  0.6640 -0.1997 -0.9455
 6390TIP3    H243366   3.044   8.623  13.277  1.5311 -2.8157  0.0051
 6391TIP3   OH243367   7.132   6.123  13.124  0.0761  0.1911 -0.2114
 6391TIP3    H143368   7.186   6.132  13.203 -0.0254  0.3322 -0.1592
 6391TIP3    H243369   7.046   6.095  13.156  0.3808 -0.9922 -0.3639
 6392TIP3   OH243370   2.787   7.179  13.236 -0.6639  0.3063  0.3337
 6392TIP3    H143371   2.866   7.230  13.220  0.2583 -1.1550  0.0220
 6392TIP3    H243372   2.723   7.213  13.174  0.6196 -0.3740 -1.4375
 6393TIP3   OH243373   4.402   6.528  12.587 -0.1758  0.0504  0.4578
 6393TIP3    H143374   4.474   6.466  12.604  0.5131  0.3700 -1.0972
 6393TIP3    H243375   4.426   6.606  12.636 -0.2083 -0.3342  1.1017
 6394TIP3   OH243376   3.577   2.766  11.476 -0.0352 -0.3391  0.2323
 6394TIP3    H143377   3.521   2.742  11.550 -0.1258 -0.8338  0.0062
 6394TIP3    H243378   3.517   2.774  11.402  0.1215 -0.3439  0.1033
 6395TIP3   OH243379   5.411   7.752  13.525 -0.9248 -0.3101  0.3459
 6395TIP3    H143380   5.483   7.811  13.501 -0.9012 -0.9019 -1.1213
 6395TIP3    H243381   5.337   7.784  13.474 -0.2025 -3.2352 -2.8744
 6396TIP3   OH243382   3.088   5.348  16.787  0.0747  0.0382 -0.0343
 6396TIP3    H143383   3.005   5.387  16.759 -0.2788  0.1789  1.1371
 6396TIP3    H243384   3.091   5.364  16.882  0.3824 -1.9125  0.3351
 6397TIP3   OH243385   9.031   1.879  11.954  0.1212 -0.9381 -0.4036
 6397TIP3    H143386   9.093   1.872  12.026  0.4966  0.2840 -0.5969
 6397TIP3    H243387   9.014   1.973  11.945  0.3634 -1.0284 -2.1349
 6398TIP3   OH243388   3.903   7.139  11.939 -0.5646  0.2157  0.9373
 6398TIP3    H143389   3.993   7.162  11.961 -0.4399 -0.2017  0.8582
 6398TIP3    H243390   3.910   7.062  11.884 -0.8652  1.3175 -0.7071
 6399TIP3   OH243391   0.349   7.338  12.307  0.2639 -0.6030 -0.3538
 6399TIP3    H143392   0.442   7.336  12.330 -0.2142  0.4433  1.8680
 6399TIP3    H243393   0.304   7.350  12.390 -1.7402  1.5845 -1.6394
 6400TIP3   OH243394   4.884   3.998  13.484 -0.3548 -0.2700 -0.0381
 6400TIP3    H143395   4.949   3.929  13.492  0.5716  0.4635 -1.0568
 6400TIP3    H243396   4.924   4.063  13.427 -1.8136  0.4043 -0.3459
 6401TIP3   OH243397   7.221   4.762  12.636  0.1666 -0.1030  0.3090
 6401TIP3    H143398   7.135   4.802  12.645 -0.1207 -0.2926 -1.1775
 6401TIP3    H243399   7.212   4.676  12.677  0.1789  0.5319  1.6851
 6402TIP3   OH243400   2.910   5.574  11.752 -0.6130 -0.1986  0.6152
 6402TIP3    H143401   2.860   5.593  11.831  0.0332 -1.9746  1.5057
 6402TIP3    H243402   2.996   5.545  11.784 -0.1318 -0.3638 -0.7594
 6403TIP3   OH243403   6.781   8.448  11.964 -0.1977  0.3071  0.7848
 6403TIP3    H143404   6.862   8.454  12.014  0.6427  0.0466 -0.5217
 6403TIP3    H243405   6.755   8.356  11.970  1.0444 -0.2043 -0.9600
 6404TIP3   OH243406   3.546   1.591  13.303  0.1842 -0.0292  0.5984
 6404TIP3    H143407   3.631   1.634  13.314 -0.7687  1.7644  1.3013
 6404TIP3    H243408   3.536   1.538  13.382  0.3779  0.2394  0.8068
 6405TIP3   OH243409   0.291   7.748  12.867  0.3115 -0.1315 -0.1165
 6405TIP3    H143410   0.210   7.699  12.882  0.4285 -0.6042 -1.0180
 6405TIP3    H243411   0.328   7.711  12.788  2.2254 -0.9817  1.1009
 6406TIP3   OH243412   6.531   8.286  12.851  0.0933 -0.1758 -0.5336
 6406TIP3    H143413   6.477   8.365  12.850 -0.1908 -0.3720 -0.7678
 6406TIP3    H243414   6.617   8.316  12.881 -0.4242 -0.0461  0.9138
 6407TIP3   OH243415   3.887   0.319  12.190  0.7450  0.8864 -0.0240
 6407TIP3    H143416   3.882   0.308  12.095 -2.6091  0.6375  0.0303
 6407TIP3    H243417   3.821   0.386  12.210  0.9383  0.5108  2.1541
 6408TIP3   OH243418   5.743   4.637  12.541  0.0168 -0.7543 -0.2836
 6408TIP3    H143419   5.676   4.597  12.596 -0.8963  2.9452  1.6317
 6408TIP3    H243420   5.825   4.616  12.585 -0.4254 -0.4997  0.6776
 6409TIP3   OH243421   2.586   6.604  12.263  0.0260 -0.0700 -0.5976
 6409TIP3    H143422   2.627   6.537  12.318  1.9815  1.2079 -0.3915
 6409TIP3    H243423   2.500   6.618  12.303  0.7606 -0.3293  1.1959
 6410TIP3   OH243424   2.407   3.245  13.468  0.5740 -0.7126  0.4468
 6410TIP3    H143425   2.410   3.252  13.373 -0.0317  0.6260  0.5098
 6410TIP3    H243426   2.478   3.301  13.499 -1.1906  1.4498  0.8324
 6411TIP3   OH243427   0.476   5.805  13.119 -0.1120  0.0792  0.0970
 6411TIP3    H143428   0.495   5.894  13.091 -0.3314  0.3117  0.6707
 6411TIP3    H243429   0.559   5.771  13.152 -0.1600  0.2698  0.4101
 6412TIP3   OH243430   0.078   1.647  11.513  0.4940 -0.9569 -0.7246
 6412TIP3    H143431   0.044   1.731  11.544 -0.7197 -1.7211  0.0859
 6412TIP3    H243432   0.082   1.656  11.418 -1.7931 -0.7360 -0.8483
 6413TIP3   OH243433   5.727   1.907  12.613 -0.7188 -0.1543 -0.7193
 6413TIP3    H143434   5.796   1.972  12.597 -1.2471  0.2149 -1.5649
 6413TIP3    H243435   5.706   1.872  12.526 -0.3789 -1.5444 -0.2742
 6414TIP3   OH243436   8.809   6.001  12.291 -0.1282 -0.1656 -0.4479
 6414TIP3    H143437   8.901   6.026  12.300 -0.2663  0.4095 -0.5850
 6414TIP3    H243438   8.811   5.909  12.265  0.4050 -0.1841 -0.3434
 6415TIP3   OH243439   1.852   0.546  12.162  0.1850  0.4792 -0.0935
 6415TIP3    H143440   1.880   0.593  12.084 -0.0264 -0.8544 -1.0001
 6415TIP3    H243441   1.876   0.455  12.146 -2.6513 -0.3814 -0.0035
 6416TIP3   OH243442   5.982   2.372  12.745 -0.0564  0.4480  0.2859
 6416TIP3    H143443   5.889   2.393  12.751  0.0390  2.0286 -2.3902
 6416TIP3    H243444   5.984   2.282  12.714 -0.6497  0.1930  0.9484
 6417TIP3   OH243445   5.087   1.099  12.755 -0.1670 -0.0452 -0.0698
 6417TIP3    H143446   5.078   1.187  12.719 -1.5946 -1.1543 -2.6258
 6417TIP3    H243447   4.998   1.067  12.765  0.3353 -1.3799  0.4065
 6418TIP3   OH243448   4.455   1.571  12.966  0.4086  0.7227 -0.0701
 6418TIP3    H143449   4.419   1.658  12.978  2.0735  1.2012  2.1823
 6418TIP3    H243450   4.418   1.519  13.038  0.9724  0.1252 -0.1955
 6419TIP3   OH243451   8.141   7.996  11.808  1.1496  0.5712  0.1545
 6419TIP3    H143452   8.233   8.003  11.832  1.5251 -1.2269 -0.5851
 6419TIP3    H243453   8.097   7.968  11.889  0.8194  3.5348  1.1140
 6420TIP3   OH243454   0.648   3.314  11.926 -0.0878 -0.2376  0.6565
 6420TIP3    H143455   0.741   3.333  11.939  0.0420 -1.3132  1.4109
 6420TIP3    H243456   0.646   3.225  11.891 -0.7857  0.2467 -0.6231
 6421TIP3   OH243457   3.526   2.801  12.278 -0.5179 -0.3388  0.1528
 6421TIP3    H143458   3.482   2.792  12.363 -1.8336 -0.4417 -0.5094
 6421TIP3    H243459   3.570   2.717  12.265  0.8837  0.1688  1.3433
 6422TIP3   OH243460   3.859   7.317  12.166 -0.2912 -0.0863  0.3507
 6422TIP3    H143461   3.839   7.265  12.088 -0.0418  0.2980  0.0265
 6422TIP3    H243462   3.932   7.272  12.208 -0.2810 -0.1725  0.2401
 6423TIP3   OH243463   5.071   1.636  11.700 -0.4850  0.0134  0.7428
 6423TIP3    H143464   5.048   1.729  11.703  0.2179  0.2497 -0.6128
 6423TIP3    H243465   5.022   1.597  11.773 -1.0036  1.3893  1.1581
 6424TIP3   OH243466   7.728   7.207  12.405 -0.3771  0.0164 -0.2205
 6424TIP3    H143467   7.787   7.148  12.356  0.1603  1.3235 -1.2004
 6424TIP3    H243468   7.787   7.256  12.463 -0.8880 -0.7645  0.9950
 6425TIP3   OH243469   3.226   7.999  13.168  0.7163  0.4931  0.2306
 6425TIP3    H143470   3.186   7.991  13.255  1.4904 -1.5264  0.4689
 6425TIP3    H243471   3.309   8.044  13.184  0.7216  0.3894  0.4953
 6426TIP3   OH243472   4.268   3.284  11.315  0.1964  0.5350 -0.0611
 6426TIP3    H143473   4.294   3.276  11.224 -0.1337 -1.9540 -0.0007
 6426TIP3    H243474   4.350   3.288  11.364  0.3734  1.8876 -0.4234
 6427TIP3   OH243475   7.686   1.482  12.771  0.2331  0.0810 -0.2752
 6427TIP3    H143476   7.685   1.418  12.700 -0.0122 -0.3077  0.0715
 6427TIP3    H243477   7.779   1.495  12.790  0.2898 -0.0553 -0.4514
 6428TIP3   OH243478   3.044   6.950  13.182 -0.8280 -0.4252  0.2588
 6428TIP3    H143479   3.106   6.877  13.187  0.5592  0.6599 -0.4341
 6428TIP3    H243480   2.968   6.913  13.136 -0.0449 -1.3842 -0.3180
 6429TIP3   OH243481   1.674   1.056  12.681 -0.2739  0.0359 -0.4183
 6429TIP3    H143482   1.686   1.145  12.648 -0.5962  0.2613  0.0718
 6429TIP3    H243483   1.762   1.028  12.706  0.3756 -0.8960 -3.3070
 6430TIP3   OH243484   0.692   5.149  12.938 -0.0910  0.6623  0.0525
 6430TIP3    H143485   0.704   5.103  12.855 -0.6341  1.0717 -0.2595
 6430TIP3    H243486   0.681   5.241  12.914  0.6373  0.9194  0.6460
 6431TIP3   OH243487   0.997   0.258  12.227 -0.0179 -0.3772 -0.1684
 6431TIP3    H143488   1.004   0.278  12.134  2.1838 -0.3228 -0.0313
 6431TIP3    H243489   0.973   0.165  12.229 -1.2235 -0.1016 -0.7573
 6432TIP3   OH243490   8.546   0.408  12.803 -0.3007 -0.2139  0.6510
 6432TIP3    H143491   8.518   0.493  12.837 -0.1693 -0.2455  0.8391
 6432TIP3    H243492   8.466   0.369  12.767 -0.4449 -0.1908  0.9467
 6433TIP3   OH243493   5.985   4.143  12.631 -0.1990  0.0808  0.1854
 6433TIP3    H143494   5.903   4.124  12.676  0.2990 -2.1643  0.2861
 6433TIP3    H243495   5.959   4.197  12.556 -1.5635  0.5284  0.9350
 6434TIP3   OH243496   1.866   7.245  12.665 -0.7600 -0.0766  0.4275
 6434TIP3    H143497   1.818   7.258  12.583 -1.7804 -0.2605  0.9905
 6434TIP3    H243498   1.820   7.299  12.729 -0.4243 -0.5249  1.0548
 6435TIP3   OH243499   2.947   1.671  12.891  0.4434  0.2977  0.1199
 6435TIP3    H143500   2.960   1.593  12.945 -0.3195 -0.6742 -1.0608
 6435TIP3    H243501   2.917   1.738  12.953  0.6182 -0.4807  1.0703
 6436TIP3   OH243502   1.354   0.297  12.733 -0.0901 -0.1188 -0.7844
 6436TIP3    H143503   1.286   0.290  12.665  0.8702 -2.5551 -1.6102
 6436TIP3    H243504   1.319   0.249  12.807  0.6004 -1.2223 -1.1469
 6437TIP3   OH243505   3.960   8.779  13.459 -0.1531 -0.3176 -0.0978
 6437TIP3    H143506   4.012   8.733  13.393  1.0497  0.3229  0.3611
 6437TIP3    H243507   3.970   8.871  13.436 -4.1460 -0.2288 -2.2069
 6438TIP3   OH243508   2.285   5.470  12.829  0.4329 -0.3844  0.1619
 6438TIP3    H143509   2.304   5.537  12.762 -1.0077 -0.3365 -0.2505
 6438TIP3    H243510   2.348   5.486  12.898 -0.9093  2.5713  0.8616
 6439TIP3   OH243511   8.435   8.043  11.864  0.3250  0.2773 -0.0502
 6439TIP3    H143512   8.394   8.129  11.869 -3.0792 -1.2685  2.3292
 6439TIP3    H243513   8.518   8.054  11.910 -0.6118  2.0459  1.3605
 6440TIP3   OH243514   8.391   0.420  12.413  0.2045 -0.0626  0.5536
 6440TIP3    H143515   8.309   0.402  12.459  1.1357 -2.5875  1.3586
 6440TIP3    H243516   8.455   0.362  12.454  1.9923  0.4806 -1.3250
 6441TIP3   OH243517   3.873   5.126  11.819  0.0741  0.4078  0.5014
 6441TIP3    H143518   3.900   5.128  11.727  0.1597  0.8352  0.5366
 6441TIP3    H243519   3.906   5.042  11.851  0.4032  0.4385  0.2499
 6442TIP3   OH243520   2.739   3.785  13.567 -0.0300 -0.1965 -0.6769
 6442TIP3    H143521   2.769   3.800  13.478 -0.1166  1.6438 -0.4289
 6442TIP3    H243522   2.794   3.842  13.621  0.1976 -1.4558  0.5072
 6443TIP3   OH243523   3.756   1.873  12.174 -1.2150 -0.1578 -1.2717
 6443TIP3    H143524   3.716   1.930  12.240  1.4117 -1.1833  1.4501
 6443TIP3    H243525   3.682   1.824  12.136 -2.9633  1.3002  0.0775
 6444TIP3   OH243526   1.246   6.371  11.799  0.0592  0.2708 -0.3007
 6444TIP3    H143527   1.291   6.436  11.745  1.2995 -0.0232  0.3305
 6444TIP3    H243528   1.221   6.418  11.878 -0.5833  0.3907 -0.5771
 6445TIP3   OH243529   5.436   0.832  13.287 -0.2719 -0.2201  0.3647
 6445TIP3    H143530   5.433   0.899  13.220 -0.2013  0.2931  0.8674
 6445TIP3    H243531   5.345   0.820  13.314 -0.2153  0.1500  0.7341
 6446TIP3   OH243532   1.730   4.021  12.963 -0.0932 -0.4455 -0.1398
 6446TIP3    H143533   1.798   3.967  13.004 -0.9142 -0.9582  0.5616
 6446TIP3    H243534   1.716   4.093  13.024  1.1161  0.7109 -1.1464
 6447TIP3   OH243535   3.809   7.579  12.079  0.3142  0.3603  0.3272
 6447TIP3    H143536   3.789   7.650  12.140  2.0574  0.3798  0.9408
 6447TIP3    H243537   3.845   7.509  12.134 -1.6233 -1.1617 -0.2285
 6448TIP3   OH243538   3.776   1.720  13.381  0.6471 -0.3575 -0.1633
 6448TIP3    H143539   3.824   1.677  13.452  0.5090  0.0646  0.1906
 6448TIP3    H243540   3.831   1.795  13.358  0.4548 -0.2232 -0.1782
 6449TIP3   OH243541   9.052   2.249  11.409 -0.3973 -0.0238  0.1571
 6449TIP3    H143542   9.052   2.214  11.320 -2.7249 -0.4686  0.2584
 6449TIP3    H243543   9.132   2.215  11.449  2.1048  2.2325 -2.4316
 6450TIP3   OH243544   1.513   8.410  12.432 -0.4312  0.4615 -0.4062
 6450TIP3    H143545   1.477   8.325  12.457 -1.5652  0.8377 -0.6918
 6450TIP3    H243546   1.562   8.438  12.509  0.9824 -0.9712 -0.7406
 6451TIP3   OH243547   4.708   3.921  13.679  0.1356 -0.1077  0.0399
 6451TIP3    H143548   4.706   3.840  13.628  1.8050 -0.5646  0.6505
 6451TIP3    H243549   4.750   3.985  13.622  2.3472 -0.7168  0.9115
 6452TIP3   OH243550   5.573   5.532  11.666 -0.5278 -0.8246  0.2343
 6452TIP3    H143551   5.606   5.461  11.722 -1.8620 -1.6287  0.0422
 6452TIP3    H243552   5.649   5.588  11.652  0.2854 -1.5913  1.3441
 6453TIP3   OH243553   1.859   3.096  12.100  0.9988 -0.2425 -0.2492
 6453TIP3    H143554   1.778   3.053  12.128  0.6388 -0.8508 -2.0694
 6453TIP3    H243555   1.852   3.185  12.134  0.2246 -0.6766  0.7870
 6454TIP3   OH243556   7.449   6.805  11.924 -0.3003  0.6539  0.1163
 6454TIP3    H143557   7.373   6.779  11.872  1.2704  1.1532 -2.6017
 6454TIP3    H243558   7.488   6.723  11.953 -1.4412  0.3857  1.0055
 6455TIP3   OH243559   2.345   2.800  12.951  0.1597 -0.1099 -0.2260
 6455TIP3    H143560   2.320   2.709  12.967  1.1369 -0.8801 -2.7314
 6455TIP3    H243561   2.358   2.836  13.039 -0.8816 -2.1731  0.8542
 6456TIP3   OH243562   1.733   2.375  12.664 -0.1044  0.2746  0.0205
 6456TIP3    H143563   1.676   2.402  12.736 -0.9012 -1.7795  0.2465
 6456TIP3    H243564   1.802   2.323  12.705 -0.5539 -0.9065 -0.6439
 6457TIP3   OH243565   7.290   5.141  11.961  0.1957 -0.0228  0.0368
 6457TIP3    H143566   7.311   5.085  11.887  1.5797 -0.7209  0.9148
 6457TIP3    H243567   7.369   5.139  12.016  0.6058  3.3518 -0.2136
 6458TIP3   OH243568   2.985   1.939  13.375  0.0921 -0.1281  0.8498
 6458TIP3    H143569   2.975   2.034  13.374 -0.2260 -0.1621  0.8569
 6458TIP3    H243570   3.080   1.925  13.372  0.1073  0.1706 -1.1469
 6459TIP3   OH243571   6.775   4.638  12.217  0.1238  0.7401 -0.0837
 6459TIP3    H143572   6.740   4.551  12.233  0.0380  0.5884 -1.0527
 6459TIP3    H243573   6.869   4.624  12.206  0.0377  0.6850 -0.7937
 6460TIP3   OH243574   5.213   7.580  13.006  0.0630  0.5676  0.1967
 6460TIP3    H143575   5.303   7.568  12.975 -0.6714 -0.5894 -1.6725
 6460TIP3    H243576   5.201   7.513  13.073  0.0983 -0.4519 -0.7823
 6461TIP3   OH243577   4.145   4.484  13.237 -0.4702 -0.3113  0.2887
 6461TIP3    H143578   4.123   4.480  13.330 -1.3454  0.6115  0.1385
 6461TIP3    H243579   4.129   4.575  13.213 -0.5381 -0.6072 -0.8302
 6462TIP3   OH243580   2.498   0.026  11.811  0.4801 -0.2854  0.1307
 6462TIP3    H143581   2.554   0.101  11.832 -1.0475  0.6477  1.0999
 6462TIP3    H243582   2.503  -0.030  11.889  0.9664 -0.7802 -0.2536
 6463TIP3   OH243583   8.392   7.576  12.063  0.1423 -0.0881  0.3241
 6463TIP3    H143584   8.478   7.548  12.033 -0.5971 -1.2605 -0.8832
 6463TIP3    H243585   8.348   7.494  12.088 -0.9109  0.3751  0.0692
 6464TIP3   OH243586   0.568   2.841  12.567  0.0415  0.4001 -0.4352
 6464TIP3    H143587   0.635   2.799  12.621 -1.3854  1.4584  2.3299
 6464TIP3    H243588   0.518   2.768  12.531  1.3545 -0.3530 -0.8160
 6465TIP3   OH243589   1.005   4.497  13.088  0.3732 -0.1710 -0.1595
 6465TIP3    H143590   0.970   4.557  13.153  1.3780  0.9656 -0.6283
 6465TIP3    H243591   0.955   4.416  13.100 -3.2788  1.6363 -1.5551
 6466TIP3   OH243592   6.316   4.490  12.366  0.0455  0.7987  0.3119
 6466TIP3    H143593   6.348   4.448  12.446  2.2334  0.8547 -0.4563
 6466TIP3    H243594   6.229   4.523  12.389 -0.3634 -1.2036  1.9334
 6467TIP3   OH243595   4.061   8.140  11.564 -0.3245  0.4484  0.1660
 6467TIP3    H143596   4.088   8.225  11.529  0.1564  0.3713  0.3487
 6467TIP3    H243597   4.089   8.142  11.656 -0.1964  0.0421  0.1371
 6468TIP3   OH243598   8.067   7.454  11.739 -0.0029 -0.3811 -0.1387
 6468TIP3    H143599   8.152   7.443  11.697 -0.4914  0.9453 -1.5744
 6468TIP3    H243600   8.009   7.396  11.691 -0.4725  0.8277 -1.1069
 6469TIP3   OH243601   6.197   0.033  12.348 -0.3961 -0.2056 -0.0407
 6469TIP3    H143602   6.180   0.110  12.402  1.9747  0.8963 -0.7221
 6469TIP3    H243603   6.211  -0.038  12.410 -1.1691  0.2343  0.6551
 6470TIP3   OH243604   3.411   8.785  12.029  0.0016  0.4672 -0.2181
 6470TIP3    H143605   3.363   8.734  12.094  0.8223  0.7912  0.6579
 6470TIP3    H243606   3.456   8.853  12.080 -1.0914  2.1141 -1.3450
 6471TIP3   OH243607   4.033   2.983  11.843 -0.0059  0.2517 -0.6275
 6471TIP3    H143608   4.074   3.057  11.887 -0.0009  1.2829 -2.3222
 6471TIP3    H243609   3.939   3.000  11.849 -0.0272  0.1144 -0.5580
 6472TIP3   OH243610   4.072   6.634  11.839 -0.0699  0.3770 -0.4197
 6472TIP3    H143611   4.154   6.624  11.790  1.1137  0.7374  1.3933
 6472TIP3    H243612   4.099   6.659  11.927 -2.1682  1.0258  0.1118
 6473TIP3   OH243613   6.274   5.744  12.417  0.0554  1.0491  0.0086
 6473TIP3    H143614   6.320   5.674  12.463 -0.1867  0.1966 -1.0240
 6473TIP3    H243615   6.244   5.803  12.487 -2.0944 -1.2472  1.1617
 6474TIP3   OH243616   2.736   4.895  13.602 -0.3889 -0.3644  0.2406
 6474TIP3    H143617   2.710   4.859  13.517  0.1180 -0.8333  0.2742
 6474TIP3    H243618   2.740   4.990  13.588 -1.9922 -0.2757  0.2164
 6475TIP3   OH243619   0.834   1.730  11.379 -0.0993  0.2793  0.0857
 6475TIP3    H143620   0.763   1.714  11.318 -0.6005 -1.0734  0.9933
 6475TIP3    H243621   0.808   1.809  11.427  0.2184  1.2432 -1.2907
 6476TIP3   OH243622   2.758   2.372  12.663 -0.2664 -0.5676  0.0990
 6476TIP3    H143623   2.743   2.453  12.615  0.8507 -1.6340 -2.2470
 6476TIP3    H243624   2.736   2.393  12.753 -0.0830  2.3102 -0.4229
 6477TIP3   OH243625   7.659   8.315  12.028 -0.0120 -0.4322 -0.8039
 6477TIP3    H143626   7.694   8.298  11.941 -0.1360  0.3765 -1.0194
 6477TIP3    H243627   7.576   8.267  12.030 -0.8049  0.8401 -1.7270
 6478TIP3   OH243628   2.319   5.164  12.907 -0.0081 -0.3147  0.2080
 6478TIP3    H143629   2.269   5.242  12.929  0.6810  0.0163  0.6689
 6478TIP3    H243630   2.315   5.158  12.812  0.0052  0.3431  0.1613
 6479TIP3   OH243631   2.843   1.343  13.679  0.2637  0.2517  0.2852
 6479TIP3    H143632   2.798   1.306  13.754  0.2740  0.9008  0.6210
 6479TIP3    H243633   2.920   1.288  13.667 -1.4879 -2.0481 -1.4557
 6480TIP3   OH243634   0.095   5.032  11.710  0.6116  0.0061 -0.2516
 6480TIP3    H143635   0.139   5.106  11.667  1.3676  1.0898  2.2250
 6480TIP3    H243636   0.002   5.053  11.703  0.7881  0.8716 -0.1793
 6481TIP3   OH243637   1.070   0.627  13.401  0.1718  0.7147  0.3472
 6481TIP3    H143638   1.067   0.555  13.338 -1.1953 -0.1665  1.3670
 6481TIP3    H243639   1.163   0.635  13.423  0.3021 -1.1410  0.6533
 6482TIP3   OH243640   7.414   3.967  12.500 -0.7609 -0.0652 -0.5522
 6482TIP3    H143641   7.501   4.003  12.519 -0.7634 -1.2527  2.2862
 6482TIP3    H243642   7.415   3.880  12.540 -2.6344 -0.9116 -2.1964
 6483TIP3   OH243643   7.820   2.878  12.290 -0.2990  0.5094 -0.6996
 6483TIP3    H143644   7.799   2.950  12.230  1.3746  0.3754 -1.5301
 6483TIP3    H243645   7.916   2.873  12.287 -0.3714 -2.8562 -2.0240
 6484TIP3   OH243646   7.323   2.106  12.343  0.4782  0.2180 -0.2277
 6484TIP3    H143647   7.342   2.014  12.356  0.2726  0.0798 -0.8677
 6484TIP3    H243648   7.407   2.145  12.318  0.2979 -0.0687 -1.3454
 6485TIP3   OH243649   0.677   6.379  12.441 -0.0329  0.0503 -0.0864
 6485TIP3    H143650   0.678   6.475  12.434 -1.0707  0.1668  0.9939
 6485TIP3    H243651   0.712   6.348  12.358  0.9871  1.3773 -0.1733
 6486TIP3   OH243652   8.360   2.600  11.790 -0.0415 -0.1257  0.2335
 6486TIP3    H143653   8.296   2.661  11.826 -0.5018 -1.1299  1.2040
 6486TIP3    H243654   8.307   2.531  11.749  0.4133 -0.7956  0.7545
 6487TIP3   OH243655   3.375   2.697  11.671  0.1183  0.4341  0.1939
 6487TIP3    H143656   3.391   2.608  11.640  0.0879  0.7231 -0.6727
 6487TIP3    H243657   3.383   2.691  11.766 -0.9049 -0.7018  0.2332
 6488TIP3   OH243658   0.809   5.880  11.359 -0.1765  0.6379 -0.7984
 6488TIP3    H143659   0.801   5.951  11.294 -0.3620 -0.1711 -1.6864
 6488TIP3    H243660   0.876   5.911  11.419 -0.8484  1.9378 -0.6671
 6489TIP3   OH243661   5.510   2.505  12.464  0.5513 -0.4222  0.1118
 6489TIP3    H143662   5.515   2.596  12.435  0.8950 -0.7278 -0.8323
 6489TIP3    H243663   5.596   2.488  12.502 -0.0202  0.0880  1.7118
 6490TIP3   OH243664   0.475   7.183  12.063  0.0796  0.0705  0.0918
 6490TIP3    H143665   0.455   7.096  12.030  0.2988  0.2346 -0.4789
 6490TIP3    H243666   0.391   7.218  12.093  0.0462 -0.4588  0.6275
 6491TIP3   OH243667   5.533   5.981  12.195  0.2919  0.2718 -0.0264
 6491TIP3    H143668   5.473   5.907  12.186 -0.3348  0.6495  0.8606
 6491TIP3    H243669   5.489   6.052  12.147  2.2895 -0.6219 -3.5374
 6492TIP3   OH243670   0.485   6.182  13.327 -0.3688  0.5224 -0.2653
 6492TIP3    H143671   0.555   6.247  13.331 -0.1653  0.2305  1.2945
 6492TIP3    H243672   0.408   6.231  13.300  0.0349  1.1781 -0.2419
 6493TIP3   OH243673   9.175   1.580  12.258  0.5630 -0.4733  0.1348
 6493TIP3    H143674   9.144   1.616  12.175  0.2492  3.5843  1.7824
 6493TIP3    H243675   9.098   1.539  12.298 -0.9095  2.6215  0.7788
 6494TIP3   OH243676   7.431   1.359  12.517 -0.2563 -0.7843 -0.4091
 6494TIP3    H143677   7.374   1.284  12.502 -2.4779  0.3244  1.7633
 6494TIP3    H243678   7.512   1.321  12.550 -1.0729 -2.2535 -0.0040
 6495TIP3   OH243679   0.489   4.228  12.731  0.0107 -0.3227  0.2122
 6495TIP3    H143680   0.438   4.149  12.743 -0.9982  0.3054  0.1461
 6495TIP3    H243681   0.516   4.226  12.639  0.0997 -0.6411  0.2438
 6496TIP3   OH243682   1.559   0.411  12.178  0.3114 -0.1928  0.6462
 6496TIP3    H143683   1.590   0.323  12.200 -3.9394 -1.9871  0.3689
 6496TIP3    H243684   1.586   0.423  12.086 -0.5701 -2.0498  0.0967
 6497TIP3   OH243685   4.823   1.345  12.670 -0.3870 -0.2818  0.2487
 6497TIP3    H143686   4.891   1.342  12.603  0.1430  0.3532  0.7385
 6497TIP3    H243687   4.825   1.258  12.710  0.1953 -0.2426  0.3103
 6498TIP3   OH243688   1.683   2.002  12.034 -0.3376  0.1957 -0.0003
 6498TIP3    H143689   1.744   2.075  12.027  0.6698 -0.5331  0.8641
 6498TIP3    H243690   1.599   2.038  12.006  0.2048  1.5914  0.0911
 6499TIP3   OH243691   4.031   4.735  13.173  0.7584 -0.0435  0.2216
 6499TIP3    H143692   4.076   4.803  13.123  0.8240 -0.9295 -0.9668
 6499TIP3    H243693   3.938   4.750  13.157  0.7505  0.0631  0.3648
 6500TIP3   OH243694   8.086   7.118  12.466  0.2246 -0.0565 -0.1272
 6500TIP3    H143695   8.107   7.025  12.471 -0.1027 -0.0794  1.3005
 6500TIP3    H243696   8.166   7.162  12.493 -1.0668 -0.1369  4.9683
 6501TIP3   OH243697   2.146   1.684  13.031  0.1600 -0.5777  0.2310
 6501TIP3    H143698   2.096   1.764  13.043 -0.0002 -0.6974  0.3682
 6501TIP3    H243699   2.106   1.641  12.956  1.7164  0.6003 -1.3544
 6502TIP3   OH243700   1.584   8.855  13.199  0.2494  0.1108  0.0421
 6502TIP3    H143701   1.521   8.804  13.148  0.2791  0.0692  0.0465
 6502TIP3    H243702   1.548   8.943  13.200  0.1309  0.0632  0.1432
 6503TIP3   OH243703   6.554   7.385  12.882  0.0590 -0.1423  0.0535
 6503TIP3    H143704   6.484   7.325  12.858 -1.6148  2.2605 -1.4746
 6503TIP3    H243705   6.544   7.398  12.976 -0.5136 -1.0368  0.1219
 6504TIP3   OH243706   7.267   7.586  12.257  0.3661 -0.1202 -0.1236
 6504TIP3    H143707   7.235   7.508  12.212 -0.6326  0.7069 -0.9202
 6504TIP3    H243708   7.300   7.554  12.341  1.2866 -1.5744 -0.9868
 6505TIP3   OH243709   5.693   7.708  12.602 -0.5168 -0.2742  0.3992
 6505TIP3    H143710   5.710   7.615  12.617  1.7957  0.0702  0.2586
 6505TIP3    H243711   5.756   7.753  12.659  0.4139  1.1613 -1.6728
 6506TIP3   OH243712   7.103   7.091  12.647  0.1457  0.5383  0.3092
 6506TIP3    H143713   7.050   7.067  12.723 -0.2750 -0.1127 -0.1790
 6506TIP3    H243714   7.082   7.182  12.631  0.5395  0.8074  1.2096
 6507TIP3   OH243715   2.271   6.556  13.166 -0.1916 -0.1332 -0.1408
 6507TIP3    H143716   2.367   6.548  13.162 -0.1579  0.5073 -1.2436
 6507TIP3    H243717   2.256   6.647  13.192 -0.5101 -0.4353  0.7544
 6508TIP3   OH243718   8.597   6.876  11.751  0.5526  1.1000 -0.2328
 6508TIP3    H143719   8.647   6.896  11.672 -0.7487 -2.0225 -1.9937
 6508TIP3    H243720   8.632   6.793  11.782 -1.4865  0.3387  0.2079
 6509TIP3   OH243721   8.494   8.869  13.130  0.0089 -0.2572 -0.3929
 6509TIP3    H143722   8.548   8.940  13.095  0.8339  0.4410  2.0984
 6509TIP3    H243723   8.547   8.830  13.199 -2.1670 -0.2902  1.3863
 6510TIP3   OH243724   5.245   2.747  11.946 -0.1423 -0.3452 -0.0936
 6510TIP3    H143725   5.272   2.690  12.017  0.8695  0.7307  0.4016
 6510TIP3    H243726   5.318   2.746  11.884  0.5952  1.6383  0.6803
 6511TIP3   OH243727   2.185   7.076  12.382 -0.3166 -0.1348  0.0849
 6511TIP3    H143728   2.164   6.983  12.372 -2.6920  0.1097  1.8499
 6511TIP3    H243729   2.250   7.078  12.452 -1.2383 -0.4644  0.9941
 6512TIP3   OH243730   4.711   8.736  12.128 -0.0944  0.0609 -0.2407
 6512TIP3    H143731   4.637   8.777  12.085 -0.8769 -1.3080 -0.2571
 6512TIP3    H243732   4.787   8.764  12.076 -0.6873  0.7601 -0.7544
 6513TIP3   OH243733   2.300   0.439  12.562  0.0758  0.2643 -0.1010
 6513TIP3    H143734   2.388   0.407  12.539 -0.1160 -1.2206  1.0172
 6513TIP3    H243735   2.243   0.363  12.551 -0.6931  0.6172  1.1918
 6514TIP3   OH243736   3.505   0.757  11.861  0.1854 -0.1153  0.1168
 6514TIP3    H143737   3.414   0.782  11.878  0.9321  1.8479  1.6389
 6514TIP3    H243738   3.531   0.811  11.786  0.5911  0.6389  0.7904
 6515TIP3   OH243739   3.106   6.293  12.725 -0.4530 -0.3221  0.0959
 6515TIP3    H143740   3.131   6.220  12.781 -1.1587 -0.5953  0.0590
 6515TIP3    H243741   3.035   6.259  12.671 -0.1297  0.0946 -0.6034
 6516TIP3   OH243742   0.311   6.568  11.853  0.4863  0.1470  0.3583
 6516TIP3    H143743   0.380   6.587  11.790  0.2377 -4.7377 -1.9052
 6516TIP3    H243744   0.356   6.551  11.935  1.5585  0.5624 -0.1287
 6517TIP3   OH243745   6.358   8.745  11.764  0.1742  0.1981  0.2391
 6517TIP3    H143746   6.338   8.651  11.764 -0.5600  0.3231 -1.9309
 6517TIP3    H243747   6.452   8.748  11.784  0.4120 -1.0553 -0.5782
 6518TIP3   OH243748   6.078   8.989  12.033  0.1671  0.0410 -1.2270
 6518TIP3    H143749   6.163   8.943  12.027  0.5895  0.7426 -0.7352
 6518TIP3    H243750   6.102   9.082  12.033 -0.4522  0.2453  1.0035
 6519TIP3   OH243751   5.631   2.993  12.774  0.2256 -0.2036  0.6182
 6519TIP3    H143752   5.719   2.956  12.782  0.0672 -0.6432  0.3821
 6519TIP3    H243753   5.627   3.026  12.684  0.6453  1.1462  1.0707
 6520TIP3   OH243754   4.483   6.808  12.287 -0.2974  0.3720 -0.0965
 6520TIP3    H143755   4.452   6.775  12.202 -0.4846 -0.0414  0.1288
 6520TIP3    H243756   4.551   6.871  12.265 -0.8563  0.8176 -0.5818
 6521TIP3   OH243757   2.274   5.219  12.600  0.1841 -0.7246  0.7502
 6521TIP3    H143758   2.336   5.291  12.587  1.2941 -1.1957  2.9383
 6521TIP3    H243759   2.194   5.248  12.554  0.8941  1.4426  0.7419
 6522TIP3   OH243760   4.264   7.969  13.464  0.5552 -0.1707 -0.5775
 6522TIP3    H143761   4.208   7.949  13.539  1.0178 -1.9634 -0.6480
 6522TIP3    H243762   4.203   7.990  13.393 -0.0194 -1.1534 -0.3953
 6523TIP3   OH243763   5.077   8.968  12.683 -0.1824  0.1995 -0.2353
 6523TIP3    H143764   5.162   8.945  12.646 -1.2065 -1.6929 -1.5545
 6523TIP3    H243765   5.050   9.046  12.635 -0.4104 -0.8309 -1.8454
 6524TIP3   OH243766   4.483   3.549  12.000 -0.9258 -0.6004  0.1846
 6524TIP3    H143767   4.467   3.506  12.084 -0.3948 -0.9138  0.1304
 6524TIP3    H243768   4.398   3.585  11.974 -0.8450  0.6170  1.4683
 6525TIP3   OH243769   1.356   3.129  11.997  0.7973 -0.1119  0.1560
 6525TIP3    H143770   1.276   3.181  11.991  0.4133 -0.6308  0.6544
 6525TIP3    H243771   1.338   3.065  12.066  1.8350  0.0963  0.6420
 6526TIP3   OH243772   4.744   1.532  13.606 -0.1903  0.3394  0.1797
 6526TIP3    H143773   4.811   1.594  13.634 -0.2460 -0.4674  2.3003
 6526TIP3    H243774   4.662   1.572  13.633 -0.4491  0.4971 -0.7931
 6527TIP3   OH243775   3.281   6.521  12.955  0.5472  0.2847 -0.3245
 6527TIP3    H143776   3.241   6.547  12.872  0.8350  0.3357 -0.4513
 6527TIP3    H243777   3.375   6.530  12.939  0.6322 -0.3834 -0.2122
 6528TIP3   OH243778   4.177   5.411  12.452  0.1297 -0.0871  0.0044
 6528TIP3    H143779   4.191   5.505  12.440  0.8427  0.0909  1.8768
 6528TIP3    H243780   4.086   5.397  12.428  0.8683  0.4143 -3.6166
 6529TIP3   OH243781   2.127   3.175  12.032  0.2729 -0.3565 -0.5620
 6529TIP3    H143782   2.071   3.118  12.085 -0.0387 -0.4574 -0.9928
 6529TIP3    H243783   2.095   3.163  11.942  0.2355  0.4598 -0.6620
 6530TIP3   OH243784   3.654   4.604  13.205 -0.1731  0.0581 -0.2918
 6530TIP3    H143785   3.717   4.611  13.276 -0.3841  0.2473 -0.1224
 6530TIP3    H243786   3.700   4.555  13.136  0.0018 -0.1997  0.0050
 6531TIP3   OH243787   0.543   4.080  11.612  0.1069 -0.7020 -0.3787
 6531TIP3    H143788   0.571   4.166  11.581 -0.8460 -0.0200  0.5628
 6531TIP3    H243789   0.624   4.028  11.616  0.8728  0.4978  0.1312
 6532TIP3   OH243790   0.902   1.981  12.535  0.4025 -0.1067  0.2635
 6532TIP3    H143791   0.944   2.020  12.612  0.8040  1.3187 -0.6242
 6532TIP3    H243792   0.840   1.918  12.571  1.2812 -0.2042  1.7147
 6533TIP3   OH243793   6.290   3.363  12.620  0.5830 -0.2912  0.4376
 6533TIP3    H143794   6.350   3.299  12.658  1.4985  0.9730  1.2061
 6533TIP3    H243795   6.229   3.383  12.691  1.2606  0.8231  0.7326
 6534TIP3   OH243796   4.468   7.064  11.982 -0.4853  0.2127 -0.6104
 6534TIP3    H143797   4.511   7.008  11.917  1.0730  1.0525 -0.3463
 6534TIP3    H243798   4.455   7.147  11.937  0.7056  0.8383  0.1498
 6535TIP3   OH243799   4.367   3.469  12.622  0.5831 -0.1175 -0.0084
 6535TIP3    H143800   4.358   3.550  12.572  1.4742 -0.8956 -1.5089
 6535TIP3    H243801   4.397   3.497  12.709  0.1529  1.1969 -0.2721
 6536TIP3   OH243802   1.127   5.172  12.094  0.7867  0.0089  0.0114
 6536TIP3    H143803   1.106   5.193  12.185 -0.5745 -3.0027  0.5025
 6536TIP3    H243804   1.116   5.255  12.047 -0.7457  1.1446  2.2184
 6537TIP3   OH243805   4.942   3.995  13.808  0.3109  0.0028 -0.5347
 6537TIP3    H143806   4.979   3.927  13.864  1.3445  1.0612  0.1169
 6537TIP3    H243807   4.862   3.956  13.772  0.8106 -1.4915 -0.0865
 6538TIP3   OH243808   6.758   3.700  12.132 -0.1476  0.2130 -0.7851
 6538TIP3    H143809   6.752   3.679  12.039 -2.4319 -0.0810 -0.6351
 6538TIP3    H243810   6.775   3.794  12.135 -1.6280  0.5347 -1.5505
 6539TIP3   OH243811   1.914   4.858  11.521 -0.3272 -0.1480  0.4774
 6539TIP3    H143812   1.899   4.952  11.513  0.6125 -0.0349 -0.3082
 6539TIP3    H243813   1.976   4.849  11.593 -1.1999 -0.2695  1.2270
 6540TIP3   OH243814   8.807   1.498  11.443  0.3466 -0.0945  0.8247
 6540TIP3    H143815   8.720   1.516  11.406  0.1672 -2.2305  0.0146
 6540TIP3    H243816   8.855   1.580  11.433 -1.5109  1.1007  1.1620
 6541TIP3   OH243817   8.288   8.322  12.406 -0.1738  0.1889 -0.2949
 6541TIP3    H143818   8.299   8.229  12.426 -0.3126 -0.4488 -2.8860
 6541TIP3    H243819   8.345   8.366  12.470 -0.9477 -1.5334  1.7167
 6542TIP3   OH243820   7.469   2.041  12.748  0.0850 -0.0352 -0.2592
 6542TIP3    H143821   7.382   2.065  12.780  0.0636  0.1338 -0.4424
 6542TIP3    H243822   7.457   1.957  12.704  0.6415 -1.8378  2.7502
 6543TIP3   OH243823   8.979   5.477  12.657  0.1020 -0.2486  0.0634
 6543TIP3    H143824   9.073   5.473  12.641 -0.1103  0.1758 -1.4111
 6543TIP3    H243825   8.943   5.401  12.610 -0.5383  0.9858 -1.5241
 6544TIP3   OH243826   4.626   8.861  12.706 -0.1554  0.1665 -0.4820
 6544TIP3    H143827   4.548   8.817  12.673  0.9233 -0.1371 -2.8544
 6544TIP3    H243828   4.686   8.790  12.729  0.1894  0.4026 -0.6470
 6545TIP3   OH243829   3.627   6.429  13.283 -0.5077 -0.6259  0.6598
 6545TIP3    H143830   3.663   6.431  13.195  0.8781 -0.1914  1.2191
 6545TIP3    H243831   3.651   6.342  13.317  2.4009  0.5455  1.9419
 6546TIP3   OH243832   3.894   3.687  12.397 -0.2632 -0.2096  0.4488
 6546TIP3    H143833   3.947   3.672  12.475 -1.1841 -1.3798  0.8884
 6546TIP3    H243834   3.876   3.781  12.398  0.1521 -0.1275  1.3688
 6547TIP3   OH243835   8.262   8.268  12.941  0.5217  0.3008 -0.4913
 6547TIP3    H143836   8.174   8.238  12.963  0.4654 -0.0512 -1.1632
 6547TIP3    H243837   8.251   8.360  12.918  0.4249  0.4082 -0.0241
 6548TIP3   OH243838   5.205   8.406  13.371  0.1703  0.0766  0.7944
 6548TIP3    H143839   5.293   8.383  13.343  0.0818 -0.6881  1.1005
 6548TIP3    H243840   5.156   8.323  13.364 -0.9666  0.8270 -0.9991
 6549TIP3   OH243841   3.249   4.712  12.437  0.1869 -0.2671  0.5824
 6549TIP3    H143842   3.267   4.782  12.500 -0.1496  0.6323 -0.2939
 6549TIP3    H243843   3.290   4.742  12.356 -1.7615 -0.0451 -0.3903
 6550TIP3   OH243844   7.171   4.427  12.982 -0.5825 -0.1270 -0.1753
 6550TIP3    H143845   7.095   4.383  12.944 -1.9097 -0.0949  2.2261
 6550TIP3    H243846   7.224   4.357  13.019 -1.0659  0.0208  0.8477
 6551TIP3   OH243847   8.865   2.984  11.756  0.4029 -0.1302  0.3346
 6551TIP3    H143848   8.872   2.889  11.758  0.0644 -0.1497  1.4899
 6551TIP3    H243849   8.946   3.015  11.796  0.0284  0.0270  0.9878
 6552TIP3   OH243850   1.094   7.861  13.459  0.1725 -0.0463  0.1407
 6552TIP3    H143851   1.141   7.852  13.541 -2.2282 -0.5702  1.5548
 6552TIP3    H243852   1.084   7.956  13.448 -2.0595  0.0586  2.1446
 6553TIP3   OH243853   2.414   0.589  13.700  0.2522 -0.4876 -0.3031
 6553TIP3    H143854   2.339   0.584  13.759  1.0231  2.5059  1.1404
 6553TIP3    H243855   2.460   0.506  13.713 -0.7800 -0.8108  1.7321
 6554TIP3   OH243856   0.234   5.742  12.209 -0.3162  0.2981  0.2347
 6554TIP3    H143857   0.305   5.714  12.150 -1.7436 -1.6646 -0.6579
 6554TIP3    H243858   0.279   5.768  12.289  1.4189 -1.0025 -0.2497
 6555TIP3   OH243859   1.353   8.770  13.088 -0.1772 -0.1853  0.0741
 6555TIP3    H143860   1.295   8.700  13.057  0.8108 -1.1319  0.3133
 6555TIP3    H243861   1.309   8.805  13.165 -1.1745  0.1516 -0.6270
 6556TIP3   OH243862   4.712   2.703  11.970 -0.2893  0.0826  0.3419
 6556TIP3    H143863   4.806   2.704  11.951 -0.2950  2.5219  0.1216
 6556TIP3    H243864   4.682   2.618  11.939  2.0729 -1.3366  1.6660
 6557TIP3   OH243865   7.521   5.084  12.819  0.1653  0.1087 -0.2447
 6557TIP3    H143866   7.452   5.140  12.784  0.7822  0.3177 -1.1700
 6557TIP3    H243867   7.477   5.002  12.841 -0.8804  1.1055  1.6936
 6558TIP3   OH243868   6.699   2.517  12.074 -0.0964  0.3780 -0.1306
 6558TIP3    H143869   6.688   2.608  12.100  0.1939  0.4064 -0.1043
 6558TIP3    H243870   6.794   2.505  12.067 -0.0394 -0.4050  1.5695
 6559TIP3   OH243871   8.896   2.727  11.885 -0.5479  0.3010 -0.3201
 6559TIP3    H143872   8.950   2.705  11.961  0.3580  1.0566 -0.7345
 6559TIP3    H243873   8.823   2.778  11.921 -1.0488 -0.7621  0.2446
 6560TIP3   OH243874   9.157   3.469  13.317  0.4052  0.3488 -0.3333
 6560TIP3    H143875   9.146   3.526  13.393 -3.8235  0.5010 -0.8419
 6560TIP3    H243876   9.142   3.381  13.351  1.4428  0.0899 -0.5198
 6561TIP3   OH243877   1.188   8.361  13.292 -0.0591  0.6444 -0.5429
 6561TIP3    H143878   1.239   8.437  13.320 -0.5267  0.3625  1.2029
 6561TIP3    H243879   1.097   8.390  13.296 -0.2340  0.0452  0.0334
 6562TIP3   OH243880   8.633   6.301  12.641 -0.2834 -0.3114 -0.3992
 6562TIP3    H143881   8.643   6.394  12.658 -0.5858 -0.8877  4.1415
 6562TIP3    H243882   8.549   6.278  12.680  0.0247 -2.6042 -0.9288
 6563TIP3   OH243883   0.708   6.960  12.631 -0.4705 -0.1980  0.0692
 6563TIP3    H143884   0.703   6.907  12.552  0.5497 -0.5513  0.2357
 6563TIP3    H243885   0.635   7.022  12.622  0.0635  0.2493 -1.5001
 6564TIP3   OH243886   4.426   4.600  11.708 -0.2173 -0.0014  0.0957
 6564TIP3    H143887   4.422   4.506  11.691  0.0554 -0.1473  0.8054
 6564TIP3    H243888   4.479   4.608  11.787 -1.7673  0.6146  1.1276
 6565TIP3   OH243889   4.571   6.460  13.257 -0.2962  0.3061 -0.0517
 6565TIP3    H143890   4.543   6.547  13.286 -2.2445 -1.0210  2.3963
 6565TIP3    H243891   4.581   6.469  13.162 -0.3933  3.1690  0.1100
 6566TIP3   OH243892   9.216   8.235  11.824 -0.2295 -0.1497  0.0809
 6566TIP3    H143893   9.288   8.295  11.805 -1.1682  1.2707  0.7659
 6566TIP3    H243894   9.258   8.153  11.850  1.1825  0.9337  1.3825
 6567TIP3   OH243895   4.463   6.264  13.587 -0.4113  0.5085 -0.1971
 6567TIP3    H143896   4.485   6.205  13.515 -0.6192  0.5202 -0.2708
 6567TIP3    H243897   4.373   6.242  13.610 -0.1986  0.2051  0.3516
 6568TIP3   OH243898   5.430   4.882  12.012  0.2225  0.4822  0.3292
 6568TIP3    H143899   5.505   4.935  12.038  0.1929  0.5718  0.2354
 6568TIP3    H243900   5.381   4.939  11.953  0.9626 -0.1592 -0.9476
 6569TIP3   OH243901   7.606   3.172  11.753  0.0833 -0.0285  0.1003
 6569TIP3    H143902   7.576   3.258  11.723 -0.0797 -0.1882 -0.1969
 6569TIP3    H243903   7.562   3.159  11.837  0.3199  0.2954  0.2777
 6570TIP3   OH243904   7.295   5.036  12.432 -0.1355 -0.3223  0.2852
 6570TIP3    H143905   7.303   4.941  12.426 -0.3660 -0.4315  1.4786
 6570TIP3    H243906   7.296   5.055  12.526 -0.0012  0.8651  0.0685
 6571TIP3   OH243907   6.897   2.130  11.373  0.0173  0.4201  0.1985
 6571TIP3    H143908   6.929   2.207  11.325 -0.2828  1.1431  1.1277
 6571TIP3    H243909   6.841   2.167  11.442 -0.1732 -0.6418  0.6241
 6572TIP3   OH243910   7.658   8.070  12.440 -0.0229 -0.2692 -0.0809
 6572TIP3    H143911   7.716   7.997  12.418  0.7713  0.4889 -0.5699
 6572TIP3    H243912   7.604   8.037  12.511  1.5524 -0.7454  0.9583
 6573TIP3   OH243913   4.303   7.152  11.646 -0.0555  0.6988  0.5947
 6573TIP3    H143914   4.298   7.230  11.591  3.4629 -0.1282 -1.2428
 6573TIP3    H243915   4.309   7.186  11.735 -1.0519  2.3617  0.0695
 6574TIP3   OH243916   2.306   4.455  13.596 -0.1753 -0.1842 -0.4352
 6574TIP3    H143917   2.273   4.543  13.575  1.4333  0.3721 -0.7438
 6574TIP3    H243918   2.387   4.471  13.644 -0.8299 -1.5053  1.1825
 6575TIP3   OH243919   5.724   6.384  11.937  0.3992  0.5455 -0.3216
 6575TIP3    H143920   5.633   6.411  11.949  0.1276 -0.0237 -1.0483
 6575TIP3    H243921   5.722   6.322  11.865  1.0990 -0.9465  0.8823
 6576TIP3   OH243922   5.456   5.195  12.440 -0.1124  0.1334  0.5889
 6576TIP3    H143923   5.435   5.123  12.380  0.4206  0.2899  0.1977
 6576TIP3    H243924   5.508   5.154  12.509  0.2734  0.1550  0.3145
 6577TIP3   OH243925   0.747   4.166  13.792  0.6736  0.4703  0.2695
 6577TIP3    H143926   0.791   4.101  13.847 -1.0307  0.0817  1.2499
 6577TIP3    H243927   0.752   4.247  13.842  0.0267  0.3507  0.5401
 6578TIP3   OH243928   2.330   4.603  12.803  0.1551  0.0492  0.2246
 6578TIP3    H143929   2.253   4.556  12.836  0.4718 -0.9119 -0.3533
 6578TIP3    H243930   2.297   4.651  12.726  0.2225 -0.7515 -0.3152
 6579TIP3   OH243931   3.436   7.876  12.852 -0.2858  0.1972 -0.3043
 6579TIP3    H143932   3.450   7.864  12.758 -0.2738 -0.0580 -0.2723
 6579TIP3    H243933   3.372   7.947  12.859  0.3163  0.7652 -0.4796
 6580TIP3   OH243934   0.209   1.623  12.330 -0.7183  0.2045  0.4778
 6580TIP3    H143935   0.233   1.664  12.247 -2.8952 -0.7802 -0.7176
 6580TIP3    H243936   0.123   1.585  12.314  0.0953 -2.7030  2.2354
 6581TIP3   OH243937   2.451   2.675  12.115  0.4695 -0.5076 -0.1016
 6581TIP3    H143938   2.392   2.750  12.118 -0.3763 -1.1689  0.4198
 6581TIP3    H243939   2.534   2.711  12.085  0.3962  0.8554  1.1860
 6582TIP3   OH243940   8.830   0.243  12.859 -0.3858 -0.2806  0.4270
 6582TIP3    H143941   8.854   0.254  12.951 -2.3363  1.1275  0.8123
 6582TIP3    H243942   8.801   0.329  12.831 -2.1476 -1.2219 -0.8034
 6583TIP3   OH243943   6.115   6.108  12.206  0.5540 -0.5663 -0.6215
 6583TIP3    H143944   6.062   6.187  12.195  0.6363 -0.2895  0.8168
 6583TIP3    H243945   6.054   6.036  12.186  0.1737 -0.1845 -0.8616
 6584TIP3   OH243946   6.889   0.899  11.941 -0.1015 -0.7928 -0.4933
 6584TIP3    H143947   6.888   0.993  11.924 -1.8485 -0.4861  0.9609
 6584TIP3    H243948   6.979   0.871  11.922  1.0374  1.5587  1.0562
 6585TIP3   OH243949   0.229   7.186  13.501  0.5474 -0.0754  0.2743
 6585TIP3    H143950   0.272   7.101  13.494  1.8070  0.4651  1.1333
 6585TIP3    H243951   0.140   7.166  13.531  0.7597 -1.0886  0.2607
 6586TIP3   OH243952   4.277   7.051  12.722  0.0652 -0.1583  0.3767
 6586TIP3    H143953   4.183   7.067  12.717  0.3157  1.0048 -1.5600
 6586TIP3    H243954   4.286   6.957  12.706 -0.7641 -0.2458  0.4146
 6587TIP3   OH243955   0.912   5.544  12.904  0.0504  0.2209 -0.1210
 6587TIP3    H143956   0.839   5.556  12.844  0.6962 -0.5867 -1.1122
 6587TIP3    H243957   0.966   5.477  12.862  2.3340  2.0955 -0.3985
 6588TIP3   OH243958   6.236   9.159  13.250  0.0268 -0.3131  0.0708
 6588TIP3    H143959   6.249   9.065  13.234  0.0260 -0.1915 -0.7128
 6588TIP3    H243960   6.210   9.165  13.342  1.5056 -0.9389  0.5561
 6589TIP3   OH243961   4.101   2.764  12.519 -0.1008  0.1713 -0.0151
 6589TIP3    H143962   4.019   2.716  12.510  0.1744 -0.2263 -0.4200
 6589TIP3    H243963   4.168   2.703  12.487  0.9284 -1.2483  4.1281
 6590TIP3   OH243964   1.725   7.068  13.309 -0.0944 -0.2649 -0.1870
 6590TIP3    H143965   1.696   7.100  13.224  0.0355 -0.3203 -0.2532
 6590TIP3    H243966   1.768   6.984  13.289  1.3926  0.4823 -0.2865
 6591TIP3   OH243967   7.283   5.470  12.010 -0.3657 -0.0679 -0.2440
 6591TIP3    H143968   7.311   5.547  11.962 -0.8391  0.0926 -0.2667
 6591TIP3    H243969   7.196   5.449  11.976  0.3130 -1.4547 -1.2393
 6592TIP3   OH243970   4.197   2.708  11.619 -0.2620 -0.1147 -0.2167
 6592TIP3    H143971   4.142   2.780  11.590  0.6047  0.4863 -0.4204
 6592TIP3    H243972   4.152   2.671  11.695 -0.3094  1.1693  0.3978
 6593TIP3   OH243973   0.384   3.512  11.544  0.5134  0.1994 -0.2077
 6593TIP3    H143974   0.364   3.454  11.617 -1.7750  2.3175  1.0253
 6593TIP3    H243975   0.352   3.465  11.467  0.1607 -0.8228  0.5360
 6594TIP3   OH243976   8.747   4.707  13.369  0.4599  0.2080 -0.0148
 6594TIP3    H143977   8.785   4.766  13.303  2.3925 -2.0568 -1.0837
 6594TIP3    H243978   8.821   4.683  13.425 -1.0527  1.7553  2.8907
 6595TIP3   OH243979   6.156   7.840  13.114  0.0596  0.1899  0.2646
 6595TIP3    H143980   6.090   7.771  13.122  0.7885 -0.8713 -1.9393
 6595TIP3    H243981   6.108   7.917  13.084 -0.4141 -0.1514  0.1324
 6596TIP3   OH243982   7.334   8.696  12.541 -0.2168 -0.6943 -0.1168
 6596TIP3    H143983   7.265   8.756  12.568 -1.9187 -2.4985 -0.2003
 6596TIP3    H243984   7.414   8.733  12.578 -1.4207  0.7719  1.1608
 6597TIP3   OH243985   5.112   1.406  11.547  0.0566  0.4547 -0.2682
 6597TIP3    H143986   5.171   1.347  11.595  0.5420  0.8649 -0.3508
 6597TIP3    H243987   5.092   1.476  11.608 -0.7811  0.0444 -0.0632
 6598TIP3   OH243988   7.558   7.252  11.799  0.2991  0.2824  0.2615
 6598TIP3    H143989   7.554   7.274  11.892 -1.8548  0.1674  0.2412
 6598TIP3    H243990   7.557   7.156  11.796  0.8977  0.2728  0.1109
 6599TIP3   OH243991   2.244   6.291  13.288  0.1978  0.0671 -0.2949
 6599TIP3    H143992   2.286   6.227  13.231  2.0553  0.5265  0.4837
 6599TIP3    H243993   2.268   6.376  13.251  1.3128  0.3723  1.0134
 6600TIP3   OH243994   5.896   3.983  12.239  0.0683  0.0156 -0.3191
 6600TIP3    H143995   5.982   3.958  12.271  1.2436  1.9743 -1.7298
 6600TIP3    H243996   5.858   4.037  12.309  0.4288  0.0091 -0.1187
 6601TIP3   OH243997   0.038   2.149  11.572 -0.1002  0.1042 -0.0587
 6601TIP3    H143998  -0.049   2.126  11.603  0.0243 -1.0336 -0.5070
 6601TIP3    H243999   0.086   2.173  11.651 -0.1578 -1.5316  0.5122
 6602TIP3   OH244000   4.015   3.012  12.218  0.1525  0.0028  0.3899
 6602TIP3    H144001   3.974   2.950  12.278 -0.5756  0.9772  0.9419
 6602TIP3    H244002   4.060   2.958  12.153 -1.5142 -1.1195  0.1093
 6603TIP3   OH244003   5.166   4.648  12.973  0.3120  0.3856 -0.0839
 6603TIP3    H144004   5.143   4.578  12.912 -1.0834 -0.2185  1.0836
 6603TIP3    H244005   5.169   4.605  13.058  2.1483  1.2219  0.3252
 6604TIP3   OH244006   4.166   6.245  12.862 -0.3203  0.0172 -0.0143
 6604TIP3    H144007   4.114   6.274  12.787 -0.3914  1.5662  0.6029
 6604TIP3    H244008   4.251   6.222  12.824 -0.8964 -0.9086 -0.7920
 6605TIP3   OH244009   8.864   3.381  12.234 -0.0996 -0.1241 -0.3355
 6605TIP3    H144010   8.804   3.307  12.238 -1.1165  0.7324  2.0531
 6605TIP3    H244011   8.947   3.344  12.203 -0.7394 -2.1525  0.2599
 6606TIP3   OH244012   1.262   1.885  11.497  0.3154  0.3977 -0.5765
 6606TIP3    H144013   1.260   1.941  11.575  0.3469 -0.8783  0.3740
 6606TIP3    H244014   1.179   1.903  11.453 -0.8288 -0.5912  1.0553
 6607TIP3   OH244015   2.197   3.398  12.847 -0.2436  0.5792 -0.7245
 6607TIP3    H144016   2.138   3.370  12.917  3.2344 -1.1837  1.8570
 6607TIP3    H244017   2.157   3.364  12.767 -1.2262 -3.4348  1.1993
 6608TIP3   OH244018   8.334   7.756  12.770 -0.6222 -0.2512  0.0734
 6608TIP3    H144019   8.399   7.724  12.832  0.2660  1.9752  0.3615
 6608TIP3    H244020   8.339   7.851  12.776 -2.9609  0.0036 -0.9152
 6609TIP3   OH244021   8.358   6.808  12.655  0.2443 -0.0540 -0.2418
 6609TIP3    H144022   8.345   6.742  12.723  2.8630 -2.9781 -2.3115
 6609TIP3    H244023   8.372   6.890  12.704  1.0802 -1.7878  2.6989
 6610TIP3   OH244024   1.533   4.354  17.072 -0.1453 -0.3801  0.2762
 6610TIP3    H144025   1.611   4.406  17.055 -1.1511  0.6800 -1.4454
 6610TIP3    H244026   1.562   4.263  17.065  0.5250 -0.0336 -3.0264
 6611TIP3   OH244027   5.318   3.872  11.828  0.7421 -0.1248 -0.7644
 6611TIP3    H144028   5.404   3.828  11.832  0.7658  0.0176  2.0609
 6611TIP3    H244029   5.312   3.919  11.911 -3.0984 -2.1271  0.3279
 6612TIP3   OH244030   2.187   0.520  13.820 -0.3472 -0.4224 -0.7189
 6612TIP3    H144031   2.178   0.425  13.827 -1.5599 -0.2500  0.6112
 6612TIP3    H244032   2.100   0.550  13.794  0.1708  0.3043 -1.6884
 6613TIP3   OH244033   0.468   6.185  12.440 -0.2674 -0.1305  0.7106
 6613TIP3    H144034   0.527   6.256  12.463 -0.5555 -0.0019  1.0504
 6613TIP3    H244035   0.487   6.116  12.503 -0.2309 -0.2219  0.5992
 6614TIP3   OH244036   3.909   2.975  12.544  0.8025  0.1210  0.3465
 6614TIP3    H144037   3.982   2.915  12.558  0.9716 -0.2310 -1.7440
 6614TIP3    H244038   3.831   2.919  12.545  0.9520 -0.1902 -1.5027
 6615TIP3   OH244039   8.694   7.171  13.096 -0.0236 -0.2538  0.6685
 6615TIP3    H144040   8.690   7.081  13.065  2.2827 -0.4115  0.6655
 6615TIP3    H244041   8.775   7.206  13.059  0.4676  0.9926  2.7402
 6616TIP3   OH244042   0.379   4.642  11.987 -0.0816 -0.4894  0.7118
 6616TIP3    H144043   0.472   4.656  11.969 -0.4856  2.5816  0.3583
 6616TIP3    H244044   0.336   4.662  11.904 -1.1270 -1.0424  1.1062
 6617TIP3   OH244045   1.752   5.271  12.373 -0.1839 -0.1149 -0.1144
 6617TIP3    H144046   1.756   5.366  12.374 -0.0312 -0.1216 -0.0511
 6617TIP3    H244047   1.697   5.250  12.297 -2.0632  0.0787  1.1253
 6618TIP3   OH244048   7.755   9.185  12.986 -0.2545 -0.3250 -0.2557
 6618TIP3    H144049   7.825   9.251  12.984 -1.0451  0.5449  0.2506
 6618TIP3    H244050   7.792   9.113  13.037 -0.0071  0.4662  0.7186
 6619TIP3   OH244051   5.595   9.094  12.676  0.2876  0.0999 -0.1050
 6619TIP3    H144052   5.628   9.103  12.765  1.3486  0.0985 -0.4767
 6619TIP3    H244053   5.611   9.002  12.654  0.0007  0.0925 -0.2773
 6620TIP3   OH244054   8.467   5.965  13.465 -0.0240 -0.2572  0.2483
 6620TIP3    H144055   8.382   5.925  13.487 -0.0622 -0.8905 -0.9617
 6620TIP3    H244056   8.489   5.927  13.380  1.2203  0.3221  0.3042
 6621TIP3   OH244057   8.048   1.785  12.517 -0.0769  0.5924  0.6481
 6621TIP3    H144058   8.028   1.869  12.559  2.1758  1.9709 -0.8392
 6621TIP3    H244059   7.990   1.782  12.441 -1.6430 -0.2462  1.8199
 6622TIP3   OH244060   6.809   5.558  12.626 -0.1168 -0.0917 -0.3047
 6622TIP3    H144061   6.790   5.506  12.547 -0.6707 -1.3576  0.6252
 6622TIP3    H244062   6.881   5.512  12.668  0.9641  1.2422 -0.6508
 6623TIP3   OH244063   8.733   8.950  12.723  0.6315 -0.2878  0.3910
 6623TIP3    H144064   8.725   9.032  12.771 -0.0417 -0.1952  0.1340
 6623TIP3    H244065   8.765   8.977  12.636  1.7661 -0.4448  0.7461
 6624TIP3   OH244066   3.434   6.888  12.361  0.3945 -0.1020  0.4975
 6624TIP3    H144067   3.465   6.870  12.272  0.1109  1.7073 -0.0033
 6624TIP3    H244068   3.356   6.941  12.349  1.0209  1.1903  1.8298
 6625TIP3   OH244069   8.586   1.000  12.813  0.2388  0.2133  0.7808
 6625TIP3    H144070   8.496   1.002  12.844 -0.3658 -0.1101 -0.8208
 6625TIP3    H244071   8.638   0.974  12.889 -0.6279  3.1629  2.5215
 6626TIP3   OH244072   0.709   1.310  11.906  0.0942 -0.4173  0.2157
 6626TIP3    H144073   0.706   1.348  11.818  0.3655  0.5769  0.6248
 6626TIP3    H244074   0.802   1.290  11.920 -0.0272 -1.1270  0.0569
 6627TIP3   OH244075   9.126   3.555  12.495  0.0064  0.4360  0.1164
 6627TIP3    H144076   9.113   3.627  12.557  0.0694  0.5647 -0.0197
 6627TIP3    H244077   9.070   3.577  12.421  0.6179  0.7466 -0.2652
 6628TIP3   OH244078   8.415   0.022  12.258  0.0720  0.2519 -0.4172
 6628TIP3    H144079   8.489   0.082  12.246  0.8672 -0.8155 -0.9750
 6628TIP3    H244080   8.411  -0.028  12.177 -0.2354 -0.8309  0.2501
 6629TIP3   OH244081   4.184   0.935  12.781 -0.2724  0.1305  0.3451
 6629TIP3    H144082   4.255   0.952  12.843 -1.0607 -0.7063  1.5168
 6629TIP3    H244083   4.226   0.895  12.706  0.5975  0.3817  0.6889
 6630TIP3   OH244084   3.435   4.172  13.398  0.0425 -0.2818 -0.1580
 6630TIP3    H144085   3.490   4.123  13.460  1.5524 -0.2563 -1.4055
 6630TIP3    H244086   3.466   4.262  13.404 -0.9469  0.0341  0.2525
 6631TIP3   OH244087   8.582   5.246  12.538 -0.4246 -0.3739 -0.0232
 6631TIP3    H144088   8.505   5.192  12.519 -0.0318 -1.1505  0.5293
 6631TIP3    H244089   8.547   5.320  12.587 -1.0784  0.3044 -1.4678
 6632TIP3   OH244090   1.964   4.958  11.885 -0.2237  0.5521 -0.1121
 6632TIP3    H144091   1.972   5.008  11.966  0.4908  1.5331 -0.7643
 6632TIP3    H244092   1.971   4.867  11.913 -0.8132  0.8269  1.0157
 6633TIP3   OH244093   2.484   4.215  12.137  0.2964 -0.3056 -0.2087
 6633TIP3    H144094   2.518   4.206  12.048  0.8721 -1.4319  0.1043
 6633TIP3    H244095   2.415   4.282  12.130  1.6561  1.0696 -1.1057
 6634TIP3   OH244096   1.259   1.142  12.161  0.0298 -0.6659  0.2936
 6634TIP3    H144097   1.260   1.180  12.249  0.5337 -0.5999  0.2616
 6634TIP3    H244098   1.251   1.217  12.103  2.3243 -0.4470  0.1668
 6635TIP3   OH244099   2.687   4.514  13.487 -0.1471 -0.3450 -0.1657
 6635TIP3    H144100   2.674   4.596  13.440  1.2853 -0.6708 -1.2414
 6635TIP3    H244101   2.783   4.504  13.490 -0.2378 -0.9331  1.8199
 6636TIP3   OH244102   5.261   7.061  12.534  0.8572  0.1677 -0.5054
 6636TIP3    H144103   5.180   7.033  12.493 -0.5633 -0.7083  2.5696
 6636TIP3    H244104   5.233   7.103  12.616  3.4708  0.9834  0.0875
 6637TIP3   OH244105   3.112   5.926  12.599 -0.0179 -0.2098 -0.0311
 6637TIP3    H144106   3.175   5.977  12.649 -1.1048  0.6848  0.4787
 6637TIP3    H244107   3.156   5.905  12.517  0.0160  2.7170 -0.8396
 6638TIP3   OH244108   6.799   4.367  12.609  0.4677 -0.1167  0.8484
 6638TIP3    H144109   6.706   4.387  12.599  0.6881  0.6520  0.1622
 6638TIP3    H244110   6.806   4.275  12.583 -0.0405 -0.0666  0.5029
 6639TIP3   OH244111   1.894   2.510  12.414 -0.1310 -0.0551 -0.9721
 6639TIP3    H144112   1.901   2.516  12.509  0.6738 -0.6890 -0.9830
 6639TIP3    H244113   1.836   2.436  12.398  0.9915 -0.9651 -0.9725
 6640TIP3   OH244114   4.130   4.837  11.443  0.5643 -0.3307 -0.0426
 6640TIP3    H144115   4.113   4.743  11.434  0.7645 -0.2766 -1.0891
 6640TIP3    H244116   4.222   4.847  11.420  0.5323  0.1359  0.0289
 6641TIP3   OH244117   4.503   2.115  11.739  0.5771 -0.3104 -0.2513
 6641TIP3    H144118   4.498   2.199  11.693 -0.2623  0.5476  1.3252
 6641TIP3    H244119   4.535   2.137  11.826 -0.5230 -1.4828  0.4859
 6642TIP3   OH244120   2.680   3.692  12.045 -0.4683  0.2829 -0.2417
 6642TIP3    H144121   2.691   3.597  12.045  1.1277  0.3889 -2.4364
 6642TIP3    H244122   2.732   3.722  12.119  0.9905 -0.4102 -0.9535
 6643TIP3   OH244123   8.571   7.996  12.302  0.6307  0.1165  0.0182
 6643TIP3    H144124   8.606   8.016  12.215 -1.8966 -1.3880 -1.4722
 6643TIP3    H244125   8.481   7.967  12.286  0.0140 -0.1100  3.1762
 6644TIP3   OH244126   1.946   2.520  11.418 -0.1298  0.3998 -0.6511
 6644TIP3    H144127   1.916   2.435  11.451  1.7692  1.0577  3.4487
 6644TIP3    H244128   2.014   2.500  11.354 -1.5295 -1.0743 -1.7384
 6645TIP3   OH244129   1.585   2.563  11.593  0.2996  0.2373  0.6326
 6645TIP3    H144130   1.619   2.612  11.518 -0.9490 -1.0061 -0.7981
 6645TIP3    H244131   1.636   2.482  11.594  1.2417  0.8094  1.9959
 6646TIP3   OH244132   1.473   5.347  11.852 -0.0301  0.4068 -0.5254
 6646TIP3    H144133   1.496   5.254  11.845  1.1030  0.6361 -0.0872
 6646TIP3    H244134   1.544   5.385  11.904 -1.8346  1.0193  1.6315
 6647TIP3   OH244135   4.777   9.193  12.903  0.0012  0.1797 -0.3238
 6647TIP3    H144136   4.838   9.140  12.954  0.6081  0.1783 -1.0248
 6647TIP3    H244137   4.698   9.140  12.896  0.2320 -0.1925 -0.1435
 6648TIP3   OH244138   4.106   2.131  12.198  0.1475 -0.8567 -0.3622
 6648TIP3    H144139   4.104   2.036  12.191  0.3538 -0.8134 -1.0195
 6648TIP3    H244140   4.016   2.158  12.180  0.0710 -0.9316 -0.0967
 6649TIP3   OH244141   7.675   2.245  13.028  0.0300  0.6289  0.1702
 6649TIP3    H144142   7.753   2.211  13.071 -0.9818 -1.2854  0.6010
 6649TIP3    H244143   7.609   2.250  13.097 -1.3850 -1.7366 -0.8925
 6650TIP3   OH244144   1.706   6.648  11.639 -1.0193  0.0179 -0.1184
 6650TIP3    H144145   1.746   6.711  11.579  2.7325  0.5883  2.6060
 6650TIP3    H244146   1.735   6.563  11.607  3.1424  0.4129  1.8682
 6651TIP3   OH244147   3.362   6.033  12.651 -0.0429  0.2458 -0.1601
 6651TIP3    H144148   3.423   5.995  12.714 -0.1589 -0.5204 -0.5096
 6651TIP3    H244149   3.402   6.016  12.566 -1.0324 -0.8168 -0.4310
 6652TIP3   OH244150   4.687   4.150  12.624 -0.1894 -0.3328  0.4835
 6652TIP3    H144151   4.598   4.130  12.593 -0.0529  1.4299 -1.2893
 6652TIP3    H244152   4.738   4.072  12.603 -0.8494 -0.4654 -0.7452
 6653TIP3   OH244153   3.527   4.800  12.859 -0.3619 -0.1980 -0.3427
 6653TIP3    H144154   3.510   4.838  12.945 -0.2279 -0.9357  0.0248
 6653TIP3    H244155   3.617   4.767  12.865 -0.8740 -1.6747 -0.1977
 6654TIP3   OH244156   8.936   3.653  11.703 -0.1099  0.2783  0.8550
 6654TIP3    H144157   8.931   3.604  11.785 -0.4368  1.2719  1.4486
 6654TIP3    H244158   8.864   3.715  11.708  0.0529  0.5525 -0.0554
 6655TIP3   OH244159   5.196   9.166  13.277 -0.4685  0.0973  0.6328
 6655TIP3    H144160   5.175   9.078  13.307  1.5101 -0.4809  0.4565
 6655TIP3    H244161   5.243   9.207  13.349 -0.9135  0.8366  0.5206
 6656TIP3   OH244162   8.092   5.698  12.831  0.0918  0.2894  0.2919
 6656TIP3    H144163   8.067   5.606  12.828 -1.3888  0.6126  1.4573
 6656TIP3    H244164   8.053   5.736  12.752  0.2184  0.0242  0.1032
 6657TIP3   OH244165   5.467   3.267  11.692 -0.8347  0.5582  0.0139
 6657TIP3    H144166   5.491   3.359  11.702 -0.9671  0.6446 -0.4249
 6657TIP3    H244167   5.506   3.224  11.767 -0.3833  0.8978 -0.0179
 6658TIP3   OH244168   6.906   4.310  12.872 -0.2171  0.7601 -0.0767
 6658TIP3    H144169   6.854   4.365  12.813  0.2667  0.4239 -0.8431
 6658TIP3    H244170   6.943   4.242  12.814 -0.9452 -0.4751  0.8570
 6659TIP3   OH244171   8.541   1.038  12.323 -0.0572 -0.0437  0.0573
 6659TIP3    H144172   8.481   1.078  12.386  0.5733  0.6145  0.2505
 6659TIP3    H244173   8.602   0.987  12.376  1.4002  1.6965  0.1610
 6660TIP3   OH244174   2.693   5.045  13.283  0.3561  0.1242  0.2319
 6660TIP3    H144175   2.650   5.035  13.198  2.0210  2.1471 -0.9632
 6660TIP3    H244176   2.767   5.104  13.266  1.5429 -0.4272  2.8441
 6661TIP3   OH244177   1.304   3.625  12.827  0.7672  0.6090 -0.4071
 6661TIP3    H144178   1.232   3.678  12.792 -1.8747 -2.8010 -0.6169
 6661TIP3    H244179   1.371   3.629  12.758 -0.4480  1.4937 -1.6077
 6662TIP3   OH244180   8.403   8.796  11.725  0.0376  0.5951  0.0205
 6662TIP3    H144181   8.340   8.747  11.672  0.8445  0.9535 -1.3053
 6662TIP3    H244182   8.349   8.854  11.779 -0.9162 -1.3030  1.2276
 6663TIP3   OH244183   5.599   4.295  11.694 -0.2170  0.1799  0.5992
 6663TIP3    H144184   5.503   4.291  11.697 -0.2171 -0.2068  0.1724
 6663TIP3    H244185   5.618   4.386  11.671 -0.4947  0.1468  0.2242
 6664TIP3   OH244186   0.113   6.208  12.974 -0.4398 -0.7104 -0.0029
 6664TIP3    H144187   0.056   6.198  12.897 -1.3575  1.9038  0.2521
 6664TIP3    H244188   0.176   6.274  12.949 -0.2698 -0.3789  1.2266
 6665TIP3   OH244189   2.252   1.270  13.287  0.3519  0.5935  0.6704
 6665TIP3    H144190   2.298   1.189  13.309  0.5322  0.8793  1.3712
 6665TIP3    H244191   2.169   1.265  13.334  0.1850  0.6263  0.3808
 6666TIP3   OH244192   5.193   9.107  12.292  0.5923 -0.4387  0.4107
 6666TIP3    H144193   5.155   9.183  12.248  3.2484  0.4476 -0.5881
 6666TIP3    H244194   5.167   9.032  12.237  0.3279  0.1190 -0.2390
 6667TIP3   OH244195   6.105   7.264  12.033  0.0186 -0.0434  0.3200
 6667TIP3    H144196   6.022   7.302  12.062 -0.4188  0.2372 -1.2140
 6667TIP3    H244197   6.149   7.335  11.986 -0.5545 -1.1830 -2.1011
 6668TIP3   OH244198   7.145   1.854  12.618 -1.2696  0.0094 -0.3484
 6668TIP3    H144199   7.177   1.943  12.632  0.6098 -0.7624  0.6290
 6668TIP3    H244200   7.061   1.851  12.664 -0.3256  0.6695  1.5001
 6669TIP3   OH244201   6.433   0.553  12.905 -0.1991 -0.4396  0.0285
 6669TIP3    H144202   6.394   0.532  12.990 -0.0017  1.7684  0.7336
 6669TIP3    H244203   6.368   0.524  12.841 -1.5277  0.1801  1.0519
 6670TIP3   OH244204   1.668   1.998  13.010 -0.0649 -0.2512  0.0625
 6670TIP3    H144205   1.699   2.060  13.076 -2.4223 -0.8426  1.8221
 6670TIP3    H244206   1.606   2.048  12.957  0.4369 -0.2788 -0.5671
 6671TIP3   OH244207   8.723   3.048  11.532 -0.3595  0.6619  0.5646
 6671TIP3    H144208   8.782   3.018  11.602 -0.6150  0.0702  0.5296
 6671TIP3    H244209   8.678   2.969  11.503  1.0224  0.5766 -1.5074
 6672TIP3   OH244210   9.057   3.014  12.665  0.2597 -0.1049  0.4972
 6672TIP3    H144211   8.967   2.985  12.678  0.7088 -1.6243  0.3811
 6672TIP3    H244212   9.051   3.110  12.658 -1.2710 -0.1475  0.9656
 6673TIP3   OH244213   6.496   0.319  11.791  0.3497  0.0989  0.1923
 6673TIP3    H144214   6.587   0.300  11.768  0.8278  1.2109  1.0784
 6673TIP3    H244215   6.501   0.364  11.875 -1.0880 -0.5443  0.6607
 6674TIP3   OH244216   1.116   3.542  13.026 -0.2430  0.0605  0.1820
 6674TIP3    H144217   1.192   3.569  12.976 -1.8278  0.9145 -1.9267
 6674TIP3    H244218   1.114   3.446  13.019  1.4880 -0.1295  1.6793
 6675TIP3   OH244219   3.721   0.319  12.826 -0.1479  0.4290 -0.4811
 6675TIP3    H144220   3.802   0.274  12.803  0.1937  0.5020  0.5358
 6675TIP3    H244221   3.691   0.274  12.905 -1.1129  0.3961 -0.8553
 6676TIP3   OH244222   0.218   7.503  12.154  0.1828 -0.5345  0.0106
 6676TIP3    H144223   0.276   7.448  12.206  0.1396 -0.7189 -0.1344
 6676TIP3    H244224   0.202   7.580  12.209 -0.5394 -1.1077  0.6359
 6677TIP3   OH244225   6.079   8.896  13.016  0.6801 -0.6037  0.3401
 6677TIP3    H144226   6.126   8.975  12.988  1.0334 -1.2286 -0.9243
 6677TIP3    H244227   5.990   8.907  12.980  0.8381 -0.9368 -0.1722
 6678TIP3   OH244228   3.116   8.884  13.455  0.4670  0.3498  0.3084
 6678TIP3    H144229   3.045   8.930  13.499  0.0752 -0.6858  0.8022
 6678TIP3    H244230   3.117   8.919  13.366 -0.9379  0.1110  0.1822
 6679TIP3   OH244231   5.013   2.087  11.938  0.5129  0.2673 -0.0424
 6679TIP3    H144232   4.930   2.071  11.984  2.0275  1.1873  3.2863
 6679TIP3    H244233   4.986   2.121  11.852 -2.5058 -1.9518 -0.1422
 6680TIP3   OH244234   0.838   7.191  13.341  0.5315  0.2536 -0.1214
 6680TIP3    H144235   0.817   7.208  13.433 -1.0056 -2.0945  0.0559
 6680TIP3    H244236   0.900   7.117  13.344 -0.4569 -0.6382 -0.9635
 6681TIP3   OH244237   0.935   4.771  13.870 -0.2007  0.2447 -0.3828
 6681TIP3    H144238   0.941   4.794  13.777 -0.4397  2.3739  0.0889
 6681TIP3    H244239   1.007   4.819  13.911 -0.0895 -0.6942  0.5572
 6682TIP3   OH244240   1.939   8.939  12.402  0.0390  0.4888  0.4049
 6682TIP3    H144241   1.942   8.846  12.380  1.2713  0.9527 -1.6932
 6682TIP3    H244242   1.991   8.947  12.482  0.1274 -0.5810  0.4724
 6683TIP3   OH244243   2.433   1.762  12.636  0.2015 -0.3789 -0.6547
 6683TIP3    H144244   2.342   1.750  12.609  0.1414 -0.5533 -0.3758
 6683TIP3    H244245   2.467   1.673  12.646  0.3273 -0.3152 -0.5104
 6684TIP3   OH244246   3.543   3.094  12.544 -0.3156  0.4735  0.6234
 6684TIP3    H144247   3.450   3.116  12.542 -0.2473  0.8211  1.0507
 6684TIP3    H244248   3.550   3.027  12.612  0.0450  1.9712  2.1155
 6685TIP3   OH244249   2.266   1.247  12.677 -0.7364  0.1566  0.2109
 6685TIP3    H144250   2.297   1.291  12.598  1.3362  1.3753  1.6120
 6685TIP3    H244251   2.211   1.313  12.720 -2.1755 -0.6347 -0.3323
 6686TIP3   OH244252   5.052   4.090  12.955 -0.0993  0.5748 -0.1585
 6686TIP3    H144253   5.066   4.169  13.006 -0.1137  0.5112 -0.0568
 6686TIP3    H244254   5.078   4.019  13.013  0.2771  0.5243 -0.3823
 6687TIP3   OH244255   1.359   3.701  13.270 -0.0328 -0.4322 -0.5484
 6687TIP3    H144256   1.319   3.624  13.311 -0.2256  0.1819  0.4439
 6687TIP3    H244257   1.415   3.738  13.338  0.8716 -0.2768 -1.3571
 6688TIP3   OH244258   7.214   5.984  12.230  0.6326 -0.3454  0.3254
 6688TIP3    H144259   7.267   5.911  12.197  0.1404  0.0801 -1.5361
 6688TIP3    H244260   7.130   5.944  12.253  0.6065 -0.4975 -0.0134
 6689TIP3   OH244261   4.925   2.537  12.170  0.5983  0.6490 -0.2033
 6689TIP3    H144262   4.925   2.631  12.189 -0.2006  1.1524 -2.3977
 6689TIP3    H244263   4.835   2.509  12.186 -0.4264  1.3316 -3.7852
 6690TIP3   OH244264   0.318   2.616  13.591 -0.3278 -0.0476  0.0130
 6690TIP3    H144265   0.288   2.544  13.647  0.7383 -0.5381 -0.0233
 6690TIP3    H244266   0.245   2.631  13.531 -0.9991 -0.3449  0.7390
 6691TIP3   OH244267   0.161   7.264  12.031  0.1832  0.1331 -0.5174
 6691TIP3    H144268   0.204   7.288  11.949 -2.0684  1.5922 -1.3995
 6691TIP3    H244269   0.161   7.344  12.083  0.1257 -0.3298  0.2188
 6692TIP3   OH244270   5.513   7.569  12.930 -0.3227 -0.0833  0.4368
 6692TIP3    H144271   5.595   7.615  12.949 -0.5116  1.4471 -2.0418
 6692TIP3    H244272   5.540   7.496  12.874 -0.5586  0.1427  0.0187
 6693TIP3   OH244273   7.788   0.598  12.417  0.5795 -0.6087  0.2030
 6693TIP3    H144274   7.818   0.510  12.394  2.9459  0.4080 -0.9449
 6693TIP3    H244275   7.781   0.595  12.513  0.9545 -1.9536  0.2221
 6694TIP3   OH244276   0.041   0.327  12.443 -0.0456  0.0315 -0.3385
 6694TIP3    H144277   0.018   0.270  12.370 -0.0805 -2.0139  1.1653
 6694TIP3    H244278  -0.033   0.319  12.504  0.7214  0.3358  0.6681
 6695TIP3   OH244279   0.531   8.885  12.430  0.5117 -0.2877 -0.3077
 6695TIP3    H144280   0.616   8.929  12.424 -0.4845  1.6621 -0.6620
 6695TIP3    H244281   0.526   8.855  12.521  0.7844  1.2953  0.2453
 6696TIP3   OH244282   1.846   6.001  11.773 -0.3726  0.1271  0.2495
 6696TIP3    H144283   1.887   6.042  11.697  0.4527 -0.8570  0.1355
 6696TIP3    H244284   1.757   6.037  11.776 -0.4488  0.0954 -1.2471
 6697TIP3   OH244285   7.154   7.744  12.075 -0.0464 -0.3199  0.0733
 6697TIP3    H144286   7.204   7.708  12.148  0.6101  1.6168  0.6499
 6697TIP3    H244287   7.101   7.671  12.044  1.0446 -1.6911  1.2722
 6698TIP3   OH244288   8.233   4.489  12.081  0.3993 -0.2718 -0.6524
 6698TIP3    H144289   8.259   4.508  12.172  2.0456  1.2964 -1.3938
 6698TIP3    H244290   8.140   4.513  12.078  1.0655  2.7451 -0.1286
 6699TIP3   OH244291   1.071   8.560  13.669  0.0827  0.1284  0.6065
 6699TIP3    H144292   1.024   8.492  13.621  1.1937  0.7660 -1.5247
 6699TIP3    H244293   1.011   8.635  13.670  0.7988  0.8190 -1.7816
 6700TIP3   OH244294   7.356   0.097  11.835 -0.0251 -0.2489  0.1989
 6700TIP3    H144295   7.352   0.055  11.750  1.1096  0.9408 -0.4910
 6700TIP3    H244296   7.351   0.191  11.816  0.9336  0.0725  1.3627
 6701TIP3   OH244297   9.094   0.621  11.617 -0.1280  0.4829  0.4114
 6701TIP3    H144298   9.001   0.640  11.619 -0.5893 -1.5393  0.5162
 6701TIP3    H244299   9.134   0.687  11.674 -1.2202  2.4550 -0.9675
 6702TIP3   OH244300   3.332   0.069  12.044 -0.1313 -0.1752  0.3084
 6702TIP3    H144301   3.304   0.159  12.060 -2.1161 -0.9474  1.4845
 6702TIP3    H244302   3.251   0.021  12.026  0.6552 -2.0925  1.5869
 6703TIP3   OH244303   0.603   8.057  12.718 -0.6833 -0.1092 -0.3506
 6703TIP3    H144304   0.661   7.995  12.763 -0.7413  1.8160  2.6355
 6703TIP3    H244305   0.660   8.100  12.654  0.6341  0.0617  0.8700
 6704TIP3   OH244306   4.148   1.074  11.850  0.2097 -0.8089 -0.0785
 6704TIP3    H144307   4.094   1.042  11.923 -1.0612 -0.4157 -0.8098
 6704TIP3    H244308   4.109   1.158  11.827 -0.0559 -1.3809 -1.8736
 6705TIP3   OH244309   1.743   3.733  12.002  0.5738 -0.2598 -0.7339
 6705TIP3    H144310   1.819   3.675  12.002  0.0584 -0.9451 -0.1654
 6705TIP3    H244311   1.716   3.737  12.094  2.1665  2.9916 -0.2342
 6706TIP3   OH244312   1.806   3.103  11.825 -0.3754 -0.2222  0.4837
 6706TIP3    H144313   1.782   3.196  11.823 -1.1624 -0.4242 -0.0583
 6706TIP3    H244314   1.799   3.079  11.917 -0.4504  0.1879  0.5879
 6707TIP3   OH244315   3.296   5.424  12.141  0.2905  0.1037  0.2977
 6707TIP3    H144316   3.299   5.355  12.207  1.4633  1.1355  1.3685
 6707TIP3    H244317   3.367   5.402  12.081 -0.1652 -0.3086 -0.1023
 6708TIP3   OH244318   9.047   9.020  13.096  0.1498 -0.0940  0.2890
 6708TIP3    H144319   9.021   9.027  13.004 -0.9120 -0.6973  0.5225
 6708TIP3    H244320   9.111   8.949  13.097 -0.8769 -1.0537  0.1902
 6709TIP3   OH244321   0.115   4.109  13.023  0.7474 -0.1657  1.0376
 6709TIP3    H144322   0.072   4.150  13.098 -1.9752  0.5085 -0.7310
 6709TIP3    H244323   0.105   4.173  12.952  1.6548 -1.4794 -0.3393
 6710TIP3   OH244324   0.316   2.043  11.423 -0.8277  0.0009 -0.2514
 6710TIP3    H144325   0.324   2.126  11.470  0.3978  0.0328 -0.4696
 6710TIP3    H244326   0.222   2.025  11.421 -1.2523  2.0367 -1.3338
 6711TIP3   OH244327   3.081   9.034  12.491 -0.7956  0.1193  0.3200
 6711TIP3    H144328   3.146   9.072  12.431 -0.5636 -2.2033 -1.0306
 6711TIP3    H244329   3.012   9.100  12.496  0.2022  1.3042 -0.7905
 6712TIP3   OH244330   4.805   6.218  12.941 -0.1583 -0.1309  0.4693
 6712TIP3    H144331   4.838   6.307  12.944  1.4445 -0.7124  1.3466
 6712TIP3    H244332   4.755   6.208  13.022  0.0195 -0.1395  0.5805
 6713TIP3   OH244333   2.808   2.983  13.277 -0.3646  0.0283  0.1079
 6713TIP3    H144334   2.792   2.891  13.298 -0.8947 -0.5227 -2.3664
 6713TIP3    H244335   2.902   2.994  13.287 -0.1441 -1.0831 -0.5535
 6714TIP3   OH244336   5.014   9.048  12.973  0.2828 -0.6330 -0.3323
 6714TIP3    H144337   5.045   9.023  12.885  1.3995 -0.0574 -0.1285
 6714TIP3    H244338   5.046   8.979  13.030  0.1332 -0.6627 -0.2840
 6715TIP3   OH244339   1.119   0.513  13.031 -0.2918 -0.4370 -0.1968
 6715TIP3    H144340   1.084   0.463  12.957 -0.6780 -0.4678 -0.0001
 6715TIP3    H244341   1.083   0.469  13.108 -1.4740  0.7161 -0.0389
 6716TIP3   OH244342   7.614   7.237  13.048  0.4213 -0.3396 -0.2473
 6716TIP3    H144343   7.609   7.257  12.955  1.5736 -0.4747 -0.3608
 6716TIP3    H244344   7.696   7.188  13.057  0.5920  0.1178  0.9085
 6717TIP3   OH244345   7.310   9.213  11.585  0.1702  0.3469 -0.0971
 6717TIP3    H144346   7.297   9.291  11.531 -0.1175  0.4268  0.0895
 6717TIP3    H244347   7.223   9.174  11.592  0.5906 -1.0141 -1.7331
 6718TIP3   OH244348   4.721   4.477  12.198 -0.7859 -0.0502  0.0805
 6718TIP3    H144349   4.727   4.387  12.228  0.8891 -0.3588 -1.0696
 6718TIP3    H244350   4.770   4.479  12.116 -1.1355  1.8165 -0.1313
 6719TIP3   OH244351   5.498   6.442  12.081  0.3531  0.3250 -0.5324
 6719TIP3    H144352   5.467   6.352  12.069  1.2083 -0.4995  2.4213
 6719TIP3    H244353   5.428   6.485  12.131 -0.1936  1.4743 -2.1850
 6720TIP3   OH244354   6.672   6.127  12.238  0.2045 -0.0446 -0.0690
 6720TIP3    H144355   6.609   6.165  12.178  1.5966  0.7368 -1.1061
 6720TIP3    H244356   6.748   6.106  12.183  1.2197 -0.0291  1.2700
 6721TIP3   OH244357   4.825   2.390  12.514 -0.0203 -0.4688  0.1371
 6721TIP3    H144358   4.785   2.363  12.596 -1.0800  0.3051 -0.0962
 6721TIP3    H244359   4.818   2.486  12.514 -1.6146 -0.5290 -1.5916
 6722TIP3   OH244360   3.604   5.009  11.951  0.2207  0.0342  0.5122
 6722TIP3    H144361   3.645   4.957  12.020  0.5099  1.5306  1.5350
 6722TIP3    H244362   3.616   4.958  11.871  0.2669 -1.5538  1.4927
 6723TIP3   OH244363   1.179   2.069  12.013 -0.5109  0.4927  0.5998
 6723TIP3    H144364   1.125   2.009  11.962  0.2524 -0.2565  0.6384
 6723TIP3    H244365   1.155   2.054  12.104  0.4145 -0.5483  0.6970
 6724TIP3   OH244366   4.381   2.109  12.097 -0.0513  0.1011 -0.0760
 6724TIP3    H144367   4.296   2.133  12.135 -1.0783 -0.1681 -2.0519
 6724TIP3    H244368   4.432   2.190  12.099 -0.4848  0.3656  0.7844
 6725TIP3   OH244369   8.609   7.108  11.542  0.4630  0.3050 -0.0621
 6725TIP3    H144370   8.693   7.061  11.535 -0.0477 -0.3969 -2.0910
 6725TIP3    H244371   8.629   7.198  11.517  0.5374  0.0229 -1.0492
 6726TIP3   OH244372   8.453   1.255  12.930  0.0673  0.1108 -0.7454
 6726TIP3    H144373   8.525   1.272  12.869  0.2877 -0.7675 -0.7380
 6726TIP3    H244374   8.374   1.257  12.875  0.0851  1.0062 -0.7616
 6727TIP3   OH244375   0.093   2.950  12.537  0.1305 -0.0435 -0.7737
 6727TIP3    H144376   0.013   2.961  12.589  1.3352 -0.0440  1.1723
 6727TIP3    H244377   0.066   2.971  12.448 -1.5276  2.1798  0.1557
 6728TIP3   OH244378   0.506   8.324  12.490  0.6046 -0.2583  0.0830
 6728TIP3    H144379   0.464   8.242  12.464  0.9113 -0.3361 -0.1756
 6728TIP3    H244380   0.598   8.313  12.465  0.9386 -0.3706  1.2590
 6729TIP3   OH244381   4.885   8.739  11.907 -0.3984  0.0678 -0.6070
 6729TIP3    H144382   4.822   8.786  11.852 -0.2096  2.3439  0.9709
 6729TIP3    H244383   4.967   8.740  11.858 -0.7724  0.0527 -1.2327
 6730TIP3   OH244384   1.672   1.530  12.822  0.2608 -0.0285  0.1785
 6730TIP3    H144385   1.643   1.510  12.911  0.0128 -0.5981 -0.0266
 6730TIP3    H244386   1.602   1.583  12.785  0.5799  0.6125  0.4756
 6731TIP3   OH244387   2.580   2.583  12.584  0.5166  0.9638  0.6207
 6731TIP3    H144388   2.644   2.652  12.564  3.9366 -1.9127  0.7292
 6731TIP3    H244389   2.523   2.623  12.650  2.7390  3.4944  1.2168
 6732TIP3   OH244390   4.384   0.966  12.966 -0.3816 -0.1322  0.0503
 6732TIP3    H144391   4.459   1.017  12.936 -2.4992  2.9778 -0.4730
 6732TIP3    H244392   4.408   0.937  13.054  1.5486  0.4769 -0.2335
 6733TIP3   OH244393   0.642   5.278  13.260 -0.3001  0.2090 -0.4567
 6733TIP3    H144394   0.707   5.252  13.195 -1.9595 -1.3631 -1.5921
 6733TIP3    H244395   0.687   5.344  13.314  2.1815 -0.7622 -1.1820
 6734TIP3   OH244396   1.135   5.050  12.920 -0.3359  0.2502 -0.0323
 6734TIP3    H144397   1.168   5.114  12.983  0.6946  0.4084 -0.7123
 6734TIP3    H244398   1.078   4.993  12.972  1.4291 -0.3735  1.3159
 6735TIP3   OH244399   2.466   4.294  11.816 -0.1078  0.2110  0.0282
 6735TIP3    H144400   2.399   4.328  11.756 -0.0131 -0.5179 -0.5014
 6735TIP3    H244401   2.438   4.204  11.835  1.9161 -0.9620 -2.0645
 6736TIP3   OH244402   7.252   4.503  12.729 -0.2686  0.2732 -0.4533
 6736TIP3    H144403   7.223   4.484  12.819 -0.2188  2.1623 -0.0011
 6736TIP3    H244404   7.172   4.498  12.677 -0.3258 -0.6970 -0.2842
 6737TIP3   OH244405   1.097   7.774  12.411  0.4686 -0.3066 -0.3534
 6737TIP3    H144406   1.189   7.746  12.417  0.7186  0.0594 -1.9645
 6737TIP3    H244407   1.046   7.697  12.435  1.1911 -0.6687  0.0414
 6738TIP3   OH244408   5.950   0.346  12.145  0.2127  0.0015  0.4144
 6738TIP3    H144409   5.937   0.295  12.225  2.6801 -0.9624  0.2839
 6738TIP3    H244410   5.911   0.293  12.076 -1.5120  0.6216  0.8450
 6739TIP3   OH244411   2.920   7.809  12.214  0.5414  0.3506 -0.2839
 6739TIP3    H144412   2.852   7.786  12.150 -0.5941  0.0243  0.9805
 6739TIP3    H244413   2.971   7.728  12.225  0.2689  0.1867 -0.2184
 6740TIP3   OH244414   1.960   1.030  12.719 -0.0187  0.2365 -0.3854
 6740TIP3    H144415   2.038   0.979  12.697  0.8225  1.5166 -0.4033
 6740TIP3    H244416   1.969   1.111  12.670 -1.5297  0.2868 -0.6361
 6741TIP3   OH244417   2.919   1.210  13.339 -0.2522 -0.5157  0.0745
 6741TIP3    H144418   2.954   1.128  13.372 -1.3789 -0.9650  0.1912
 6741TIP3    H244419   2.824   1.202  13.350 -0.3313  1.2560  1.1715
 6742TIP3   OH244420   4.085   4.753  12.682  0.1852  0.3872 -0.6339
 6742TIP3    H144421   4.180   4.741  12.675  0.1093 -0.9186  0.2626
 6742TIP3    H244422   4.071   4.845  12.659  1.4847  0.2149 -2.3273
 6743TIP3   OH244423   2.451   3.828  13.324 -0.1057  0.3900 -0.3902
 6743TIP3    H144424   2.451   3.784  13.409 -0.4509 -0.0981 -0.6378
 6743TIP3    H244425   2.485   3.916  13.342  0.1301  0.1824  0.1950
 6744TIP3   OH244426   8.075   5.400  12.789  1.1653 -0.4705 -0.0425
 6744TIP3    H144427   8.022   5.373  12.863  1.8956 -1.4500  0.1488
 6744TIP3    H244428   8.015   5.399  12.714  0.4389  0.4757  0.5106
 6745TIP3   OH244429   4.886   0.324  13.184  0.1363  0.7262  0.2183
 6745TIP3    H144430   4.903   0.269  13.261 -0.7807  1.4428  0.9487
 6745TIP3    H244431   4.865   0.410  13.220 -1.5097  0.7736 -0.7586
 6746TIP3   OH244432   3.826   5.098  13.473  0.3178  0.1275 -0.5518
 6746TIP3    H144433   3.763   5.027  13.458  0.1803  0.1154  0.0435
 6746TIP3    H244434   3.772   5.174  13.495  0.5140 -0.0609  0.6793
 6747TIP3   OH244435   8.251   8.066  12.500 -0.9639  0.0294 -0.1356
 6747TIP3    H144436   8.294   7.998  12.447 -1.7395 -0.8624  0.3618
 6747TIP3    H244437   8.288   8.056  12.587 -3.2779 -1.8574  0.7374
 6748TIP3   OH244438   8.243   1.435  12.149  0.7318  0.1636  0.2341
 6748TIP3    H144439   8.292   1.353  12.153  1.2126  0.4783  1.1822
 6748TIP3    H244440   8.309   1.501  12.129  0.0631  0.1288 -2.5730
 6749TIP3   OH244441   0.221   1.816  13.502 -0.3195 -0.5164 -0.1893
 6749TIP3    H144442   0.253   1.902  13.476 -1.4707 -0.1379 -0.4029
 6749TIP3    H244443   0.298   1.758  13.493  0.1946  0.2713 -1.0627
 6750TIP3   OH244444   1.224   3.497  11.651 -0.1410 -0.0475 -0.1188
 6750TIP3    H144445   1.150   3.479  11.593 -0.4375  0.3606  0.1285
 6750TIP3    H244446   1.235   3.417  11.701  1.0132 -0.9209 -1.7013
 6751TIP3   OH244447   5.009   3.674  13.207 -0.1208  0.0023  1.0576
 6751TIP3    H144448   5.072   3.604  13.189 -0.6348 -0.6673  1.7974
 6751TIP3    H244449   4.962   3.645  13.286 -1.8461  0.1306  0.1292
 6752TIP3   OH244450   8.765   1.263  13.026 -0.1505 -0.0827 -0.4706
 6752TIP3    H144451   8.684   1.243  13.073 -0.1497  0.1470 -0.3704
 6752TIP3    H244452   8.736   1.298  12.942 -0.1786  1.2297  0.0609
 6753TIP3   OH244453   0.816   7.906  12.650  0.0817 -0.0858  0.1082
 6753TIP3    H144454   0.833   7.818  12.684  0.8000  0.5472  1.4732
 6753TIP3    H244455   0.773   7.891  12.566 -0.1316 -1.7391  0.4685
 6754TIP3   OH244456   6.065   3.344  12.810 -0.1942  0.3855  0.3985
 6754TIP3    H144457   6.016   3.422  12.781  2.2460  2.0431  0.4089
 6754TIP3    H244458   6.073   3.354  12.905 -0.9287 -0.5746  0.5754
 6755TIP3   OH244459   1.665   7.300  12.824  0.2733  0.1606  0.6999
 6755TIP3    H144460   1.589   7.242  12.814  1.1256 -0.9342  0.3571
 6755TIP3    H244461   1.642   7.378  12.774 -0.2540 -0.5266 -0.1624
 6756TIP3   OH244462   5.811   7.333  11.712  0.0442 -0.3196  0.5044
 6756TIP3    H144463   5.844   7.296  11.631 -1.7824 -0.0373 -0.4147
 6756TIP3    H244464   5.832   7.268  11.779 -0.4885 -1.6442 -0.5781
 6757TIP3   OH244465   3.946   4.770  12.398 -0.4665 -0.2010  0.2707
 6757TIP3    H144466   3.973   4.844  12.452  0.6172 -0.0324 -0.4629
 6757TIP3    H244467   4.029   4.728  12.373 -1.0275 -1.1914  0.0325
 6758TIP3   OH244468   4.724   1.981  11.936 -0.1855 -0.0485  0.3577
 6758TIP3    H144469   4.700   1.925  11.862 -1.3898 -0.4709  1.0382
 6758TIP3    H244470   4.744   1.919  12.007  0.6540  0.3604  0.4937
 6759TIP3   OH244471   2.513   8.025  13.394  0.2773 -0.1518 -0.2978
 6759TIP3    H144472   2.596   7.984  13.418  0.1780  0.8149  1.9654
 6759TIP3    H244473   2.447   7.975  13.442 -0.0332  1.3475  0.9144
 6760TIP3   OH244474   8.826   6.668  12.123 -0.0036 -0.7372  0.1342
 6760TIP3    H144475   8.869   6.666  12.037  1.5274 -1.1210  0.8698
 6760TIP3    H244476   8.896   6.692  12.184 -1.3112  0.6629  1.1504
 6761TIP3   OH244477   7.814   0.249  12.413 -0.1948  0.1298 -0.4595
 6761TIP3    H144478   7.885   0.236  12.476 -0.5492 -0.4791 -0.1832
 6761TIP3    H244479   7.738   0.207  12.452 -1.5835  3.4379  0.7024
 6762TIP3   OH244480   1.899   0.780  12.526 -0.4830 -0.4839 -0.4394
 6762TIP3    H144481   1.841   0.840  12.480  1.0042  0.6349 -0.9645
 6762TIP3    H244482   1.941   0.834  12.593 -0.2917 -1.3398  0.1513
 6763TIP3   OH244483   2.074   1.058  12.351  0.4820 -0.2727  0.5292
 6763TIP3    H144484   2.154   1.110  12.354 -0.5512  1.3356  1.9176
 6763TIP3    H244485   2.097   0.975  12.393  1.6454 -0.2125  0.0474
 6764TIP3   OH244486   8.952   4.167  12.576 -0.2318 -0.0873  0.3198
 6764TIP3    H144487   8.909   4.235  12.630 -0.4375  0.5968 -0.6786
 6764TIP3    H244488   9.016   4.127  12.635 -2.3580 -1.3232  1.9780
 6765TIP3   OH244489   4.854   2.322  11.473 -0.0912  0.2640 -0.3683
 6765TIP3    H144490   4.780   2.372  11.506  0.0579 -0.5734  1.3496
 6765TIP3    H244491   4.819   2.274  11.397 -0.4752  2.1425 -1.4495
 6766TIP3   OH244492   7.478   7.956  12.612 -0.1846  0.2188  0.1307
 6766TIP3    H144493   7.449   7.907  12.689 -0.5434 -0.3968 -0.3877
 6766TIP3    H244494   7.492   7.890  12.544 -0.8758  0.8256 -0.6446
 6767TIP3   OH244495   3.443   1.048  13.099 -0.0497 -0.1087 -0.3151
 6767TIP3    H144496   3.481   1.056  13.011 -0.2791  0.9740 -0.3336
 6767TIP3    H244497   3.410   0.959  13.103 -0.1125 -0.1445 -1.3698
 6768TIP3   OH244498   0.505   0.400  12.680 -0.2468 -0.0650 -0.5855
 6768TIP3    H144499   0.538   0.399  12.590  0.3344  1.2774 -0.4168
 6768TIP3    H244500   0.525   0.313  12.713  0.3406 -0.2923 -1.4795
 6769TIP3   OH244501   2.703   2.029  12.467 -0.6283 -0.4089 -0.6976
 6769TIP3    H144502   2.642   2.101  12.449 -0.8221 -0.0484  1.2024
 6769TIP3    H244503   2.789   2.069  12.461 -0.6692 -0.3602 -1.0121
 6770TIP3   OH244504   6.131   2.512  12.349  0.0739 -0.4749  0.4111
 6770TIP3    H144505   6.054   2.546  12.304  0.1990 -0.6151  0.0889
 6770TIP3    H244506   6.121   2.417  12.348  0.6665 -0.5408 -0.3952
 6771TIP3   OH244507   4.068   7.690  13.138  0.7584 -0.3150 -0.6948
 6771TIP3    H144508   4.115   7.770  13.116  0.7491 -0.4110 -1.0659
 6771TIP3    H244509   4.041   7.702  13.229 -0.7451  0.8331 -1.2500
 6772TIP3   OH244510   0.547   7.632  12.890  0.0373  0.5685  0.4320
 6772TIP3    H144511   0.492   7.705  12.918 -0.5787  0.1349  0.3794
 6772TIP3    H244512   0.513   7.556  12.939  0.3324  0.2225  0.1080
 6773TIP3   OH244513   8.648   3.667  12.874  0.2444  0.0906  0.1748
 6773TIP3    H144514   8.600   3.657  12.791 -0.1530  2.0850  0.1091
 6773TIP3    H244515   8.579   3.674  12.940  0.4330  1.8808  0.2186
 6774TIP3   OH244516   3.742   4.286  13.328  0.0117 -0.1239  0.2209
 6774TIP3    H144517   3.803   4.359  13.319 -1.0343  1.1714  2.7459
 6774TIP3    H244518   3.793   4.216  13.368  0.5319 -0.1038 -0.3928
 6775TIP3   OH244519   3.550   5.888  12.494 -0.1871 -0.2501 -0.2612
 6775TIP3    H144520   3.638   5.886  12.530 -0.6793  2.2174  1.2835
 6775TIP3    H244521   3.500   5.825  12.547  0.4738 -1.2640 -0.8076
 6776TIP3   OH244522   0.601   1.835  12.340  0.4114 -0.1340  0.2509
 6776TIP3    H144523   0.621   1.908  12.398  1.1184  0.3062 -0.5225
 6776TIP3    H244524   0.685   1.809  12.304  0.3472 -2.1482  1.4262
 6777TIP3   OH244525   1.624   4.109  12.036  0.2101  0.4590 -0.0108
 6777TIP3    H144526   1.576   4.190  12.055  0.3447  0.8164 -1.1021
 6777TIP3    H244527   1.579   4.072  11.960 -0.1932 -0.8026  0.8080
 6778TIP3   OH244528   3.750   0.846  13.003  0.1854 -0.3738 -0.2633
 6778TIP3    H144529   3.672   0.833  13.056  0.4816 -0.3806  0.1802
 6778TIP3    H244530   3.765   0.761  12.960 -1.1891  0.1878 -1.9412
 6779TIP3   OH244531   2.428   7.159  12.923  0.0380 -0.0085  0.3028
 6779TIP3    H144532   2.410   7.253  12.932  0.0518  0.1221 -0.8624
 6779TIP3    H244533   2.516   7.155  12.886 -0.6262 -0.4166 -1.2878
 6780TIP3   OH244534   7.651   1.860  12.045 -0.9548  0.4878 -0.1293
 6780TIP3    H144535   7.677   1.913  11.970 -0.8891  1.4344  0.5460
 6780TIP3    H244536   7.585   1.800  12.010 -0.1362  0.1578 -1.1752
 6781TIP3   OH244537   6.854   8.767  12.615 -0.4566  0.1724 -0.6318
 6781TIP3    H144538   6.773   8.748  12.663 -0.0903 -0.4056 -0.2282
 6781TIP3    H244539   6.868   8.689  12.561  0.0249  0.1107 -0.4215
 6782TIP3   OH244540   0.688   1.007  13.306  0.1527  0.0791 -0.0848
 6782TIP3    H144541   0.689   0.926  13.254  0.6762  0.6368 -0.9681
 6782TIP3    H244542   0.773   1.007  13.351  0.3597  0.3707 -0.4690
 6783TIP3   OH244543   4.998   0.530  12.087  0.6592 -0.5837 -0.8629
 6783TIP3    H144544   4.942   0.472  12.140  0.0219 -0.4029 -1.3240
 6783TIP3    H244545   5.015   0.605  12.145 -3.0916  1.4328 -1.9982
 6784TIP3   OH244546   5.756   0.902  12.807 -0.3350 -0.3042  0.4344
 6784TIP3    H144547   5.723   0.876  12.894 -0.6345 -2.2640 -0.2161
 6784TIP3    H244548   5.843   0.861  12.802 -0.6078 -0.7841 -0.4450
 6785TIP3   OH244549   4.650   1.715  12.529 -0.3430 -0.0990  0.3711
 6785TIP3    H144550   4.729   1.662  12.515 -1.3867 -2.1029  1.6059
 6785TIP3    H244551   4.643   1.725  12.624 -2.4498 -1.4900  0.4372
 6786TIP3   OH244552   8.247   7.356  12.143  0.3604 -0.3104  0.1138
 6786TIP3    H144553   8.158   7.357  12.178 -0.3277 -1.6518 -1.4738
 6786TIP3    H244554   8.291   7.285  12.190  0.8915  0.8579  1.4659
 6787TIP3   OH244555   6.921   4.983  12.326 -0.1233 -0.0885  0.1023
 6787TIP3    H144556   6.965   5.059  12.288  2.0786 -0.6983  1.2453
 6787TIP3    H244557   6.871   5.019  12.399 -2.0525  0.6893 -1.5179
 6788TIP3   OH244558   6.721   5.291  12.065 -0.6815 -0.1960  0.2589
 6788TIP3    H144559   6.816   5.285  12.055 -0.6148  2.2420 -1.8173
 6788TIP3    H244560   6.686   5.259  11.982 -1.5395  0.5775  0.2966
 6789TIP3   OH244561   3.781   3.440  12.080 -0.0940  0.2888  0.4323
 6789TIP3    H144562   3.723   3.408  12.148 -0.4022 -0.8138 -0.3329
 6789TIP3    H244563   3.833   3.364  12.055 -2.1010 -0.2132 -2.7202
 6790TIP3   OH244564   8.445   2.090  13.174  0.1627 -0.2219  0.2001
 6790TIP3    H144565   8.533   2.126  13.185  0.0267  0.4031 -0.6227
 6790TIP3    H244566   8.454   1.997  13.194  1.3088 -0.4505 -1.1828
 6791TIP3   OH244567   1.964   2.236  12.775  0.0227  0.8426 -0.0470
 6791TIP3    H144568   2.003   2.151  12.755 -0.1039  0.5035  1.0892
 6791TIP3    H244569   2.000   2.259  12.861 -1.5730  0.9395  0.6169
 6792TIP3   OH244570   6.200   6.235  12.751 -0.6559  0.4340  0.5513
 6792TIP3    H144571   6.127   6.208  12.807  0.4215 -0.6594  1.4891
 6792TIP3    H244572   6.278   6.212  12.801  0.5112 -3.6238 -2.6185
 6793TIP3   OH244573   0.905   4.273  12.216 -0.1525 -0.2441 -0.3055
 6793TIP3    H144574   0.884   4.366  12.226 -3.1468 -0.9198  0.6661
 6793TIP3    H244575   0.957   4.253  12.294  0.4425  0.5558 -0.4752
 6794TIP3   OH244576   8.144   5.745  12.412 -0.6003  0.2722 -0.2482
 6794TIP3    H144577   8.100   5.708  12.488  0.5862 -1.1815 -0.2114
 6794TIP3    H244578   8.183   5.826  12.443 -0.6359 -0.0111  0.5474
 6795TIP3   OH244579   0.178   2.486  12.313  0.0675  0.2626 -0.4426
 6795TIP3    H144580   0.266   2.475  12.347  0.8426  0.0985 -2.4014
 6795TIP3    H244581   0.127   2.418  12.358  0.2262  2.0545  2.7472
 6796TIP3   OH244582   8.428   3.975  12.608 -0.3660  0.3595  0.0111
 6796TIP3    H144583   8.393   3.940  12.526  0.8644  0.4186 -0.5588
 6796TIP3    H244584   8.521   3.988  12.591  0.1896 -0.8600  1.8190
 6797TIP3   OH244585   4.983   8.724  12.625 -0.5553 -0.0663  0.3496
 6797TIP3    H144586   5.029   8.797  12.667  1.6322 -1.6708  0.9515
 6797TIP3    H244587   4.949   8.760  12.543 -2.0685  2.3139  1.9121
 6798TIP3   OH244588   2.226   4.302  12.662 -0.1706 -0.1093 -0.2712
 6798TIP3    H144589   2.166   4.260  12.601 -0.5614 -0.2525  0.2050
 6798TIP3    H244590   2.169   4.333  12.733  0.2365  0.3446 -0.1425
 6799TIP3   OH244591   1.112   4.244  12.675  0.5579 -0.2908 -0.3577
 6799TIP3    H144592   1.103   4.316  12.738 -0.0511 -0.1422 -0.6049
 6799TIP3    H244593   1.169   4.181  12.718  2.0070  0.8246 -0.5781
 6800TIP3   OH244594   0.588   1.551  12.045  0.0793 -0.1396  0.0404
 6800TIP3    H144595   0.609   1.486  11.977  2.2638  2.7914 -2.3885
 6800TIP3    H244596   0.661   1.544  12.107  0.2647 -0.0986 -0.1688
 6801TIP3   OH244597   4.816   4.237  13.700  0.2411  0.1145  0.2655
 6801TIP3    H144598   4.871   4.271  13.629 -2.7002 -3.1691 -4.1679
 6801TIP3    H244599   4.872   4.173  13.745  2.0734  2.0026  0.8469
 6802TIP3   OH244600   6.717   4.691  12.989 -0.3652 -0.2335 -0.0725
 6802TIP3    H144601   6.724   4.743  13.070  1.6662  1.3573 -1.1655
 6802TIP3    H244602   6.682   4.753  12.924 -0.9992 -1.1973 -0.6706
 6803TIP3   OH244603   0.345   6.043  12.203  0.2198  0.0895  0.6856
 6803TIP3    H144604   0.367   6.012  12.291  1.7579  3.4771  1.6416
 6803TIP3    H244605   0.412   6.004  12.147  0.3469 -0.6084  1.3050
 6804TIP3   OH244606   6.420   7.833  13.089  0.0865  0.0692 -0.3627
 6804TIP3    H144607   6.332   7.802  13.109  0.6769 -0.7131  1.2861
 6804TIP3    H244608   6.407   7.914  13.041 -1.5921  1.2231  1.8262
 6805TIP3   OH244609   0.864   4.755  12.474 -0.5647 -0.1351 -0.1809
 6805TIP3    H144610   0.768   4.754  12.482 -0.5298 -0.1253  0.2764
 6805TIP3    H244611   0.893   4.812  12.545 -0.2823  0.8944 -1.0951
 6806TIP3   OH244612   2.076   5.113  12.126  0.4993 -0.3704  0.0748
 6806TIP3    H144613   2.169   5.090  12.130  0.9595  1.4641  0.7604
 6806TIP3    H244614   2.074   5.207  12.145 -1.4901 -0.3639 -0.0401
 6807TIP3   OH244615   8.445   7.225  12.328 -0.9064 -0.2511  0.1441
 6807TIP3    H144616   8.409   7.213  12.416  1.1746 -0.3254  1.0364
 6807TIP3    H244617   8.512   7.293  12.339  0.3440 -1.2324 -1.0866
 6808TIP3   OH244618   3.176   4.824  11.653  0.2740  0.0972  0.2538
 6808TIP3    H144619   3.231   4.900  11.636  0.7397 -0.2784  0.0519
 6808TIP3    H244620   3.100   4.859  11.700 -0.7924  1.0820 -2.0414
 6809TIP3   OH244621   7.791   7.357  11.669  0.8317 -0.1964 -0.0679
 6809TIP3    H144622   7.763   7.433  11.618  1.3714 -0.4504 -0.7480
 6809TIP3    H244623   7.710   7.323  11.707  0.7376  1.6280  1.5666
 6810TIP3   OH244624   2.332   2.936  11.511 -0.0419 -0.7167 -0.3019
 6810TIP3    H144625   2.422   2.949  11.480  0.0143  0.1938  0.2116
 6810TIP3    H244626   2.314   3.013  11.564 -0.8856 -1.2362  0.1787
 6811TIP3   OH244627   1.488   6.972  12.187 -0.4528 -0.0553 -0.0757
 6811TIP3    H144628   1.491   6.878  12.205  0.5817  0.0891  0.6186
 6811TIP3    H244629   1.536   7.012  12.260  1.3878  0.8024 -1.6472
 6812TIP3   OH244630   0.279   4.082  11.608  0.0131  0.3001  0.8170
 6812TIP3    H144631   0.373   4.098  11.601  0.0338  0.1511  0.7432
 6812TIP3    H244632   0.271   3.987  11.612 -0.3154 -0.0009 -2.8500
 6813TIP3   OH244633   6.223   8.122  11.919  0.5552  0.0831  0.0939
 6813TIP3    H144634   6.158   8.052  11.913 -0.0052  0.5960  0.0242
 6813TIP3    H244635   6.178   8.192  11.968  1.7568 -0.3397  1.9095
 6814TIP3   OH244636   0.616   6.917  13.564  0.0538  0.1284 -0.8619
 6814TIP3    H144637   0.695   6.927  13.617  0.6069 -0.9077 -1.4495
 6814TIP3    H244638   0.626   6.831  13.523 -1.9084 -0.5146 -0.0891
 6815TIP3   OH244639   6.559   4.046  12.088  0.1267 -0.1865  0.4788
 6815TIP3    H144640   6.555   4.108  12.161  0.0125 -1.1891  1.3464
 6815TIP3    H244641   6.490   3.984  12.106 -0.2492 -0.1593 -0.7829
 6816TIP3   OH244642   1.611   2.730  11.968  0.2790 -0.3623 -0.1644
 6816TIP3    H144643   1.548   2.793  11.933 -1.9617 -0.7669  2.7708
 6816TIP3    H244644   1.557   2.664  12.013  2.6621 -2.7862 -0.5744
 6817TIP3   OH244645   1.639   0.407  11.872  0.2940 -0.3146  0.0068
 6817TIP3    H144646   1.546   0.384  11.877  0.5200 -1.1552  3.4307
 6817TIP3    H244647   1.683   0.324  11.854  0.4694 -0.3478  0.5607
 6818TIP3   OH244648   3.708   0.136  11.698 -0.4762  0.0152  0.2106
 6818TIP3    H144649   3.721   0.145  11.792 -0.3545  1.9191  0.0438
 6818TIP3    H244650   3.613   0.135  11.687 -0.5314  1.7584  0.2420
 6819TIP3   OH244651   7.462   7.664  11.990  0.0402  0.3283  0.1214
 6819TIP3    H144652   7.391   7.718  12.024  0.2277  0.2596  0.6300
 6819TIP3    H244653   7.540   7.719  11.997  0.1830  0.0940  0.3683
 6820TIP3   OH244654   9.043   0.412  12.627  0.0670 -0.6615  0.0723
 6820TIP3    H144655   9.094   0.404  12.708 -0.9281 -2.1271  0.5840
 6820TIP3    H244656   8.953   0.394  12.653 -0.8773  2.2487 -0.7369
 6821TIP3   OH244657   3.586   3.483  13.287  0.2130  0.6564  0.0130
 6821TIP3    H144658   3.544   3.563  13.254  0.2394  1.3278  1.5500
 6821TIP3    H244659   3.513   3.423  13.302  0.0830  0.7927 -0.0655
 6822TIP3   OH244660   0.623   8.637  12.029 -0.3254 -0.2264 -0.0034
 6822TIP3    H144661   0.590   8.555  11.991  1.1096 -1.1920  0.7505
 6822TIP3    H244662   0.555   8.665  12.090 -0.6815 -1.0395 -0.0185
 6823TIP3   OH244663   1.802   2.066  11.592 -0.0352  0.4042 -0.2219
 6823TIP3    H144664   1.823   2.019  11.673  1.4524  1.5465  0.1019
 6823TIP3    H244665   1.880   2.055  11.537 -0.8759 -0.0286 -1.3653
 6824TIP3   OH244666   5.670   3.708  16.024 -0.3950  0.3981 -0.5007
 6824TIP3    H144667   5.623   3.791  16.025  0.1351  0.7843 -2.8213
 6824TIP3    H244668   5.761   3.731  16.005  0.2375 -0.5786  1.0600
 6825TIP3   OH244669   6.928   1.725  12.494 -0.2251  0.2346 -0.1276
 6825TIP3    H144670   6.873   1.801  12.512 -0.2342  0.3796 -0.7768
 6825TIP3    H244671   7.017   1.756  12.507 -0.2828 -0.1196  1.3916
 6826TIP3   OH244672   4.503   6.074  12.924 -0.1665 -0.1715 -0.6305
 6826TIP3    H144673   4.514   6.168  12.913  1.1992 -0.1393  0.7008
 6826TIP3    H244674   4.540   6.036  12.844 -0.0857  0.3911 -0.8664
 6827TIP3   OH244675   1.646   2.298  11.530  0.1072 -0.1584  0.2882
 6827TIP3    H144676   1.647   2.318  11.436  0.6110 -0.5532  0.2095
 6827TIP3    H244677   1.704   2.223  11.539 -0.1589 -0.2933  0.8816
 6828TIP3   OH244678   3.355   1.901  13.049 -0.2162 -0.0386  0.3072
 6828TIP3    H144679   3.369   1.822  12.997  0.9672  0.4010 -0.0698
 6828TIP3    H244680   3.409   1.968  13.006 -1.4248  1.0653  0.4362
 6829TIP3   OH244681   9.113   1.300  12.531 -0.2394 -0.1122 -0.2335
 6829TIP3    H144682   9.080   1.210  12.519  0.6661 -0.7332  1.5793
 6829TIP3    H244683   9.071   1.350  12.460 -1.0066 -1.8850 -1.1087
 6830TIP3   OH244684   2.429   6.678  12.536  0.3028 -0.3335  0.1341
 6830TIP3    H144685   2.455   6.596  12.578  1.6795  0.6214  1.2299
 6830TIP3    H244686   2.459   6.747  12.596 -1.8579  0.9750 -0.1622
 6831TIP3   OH244687   8.172   0.936  13.532  0.0017  0.0418 -0.0439
 6831TIP3    H144688   8.240   0.991  13.494  0.7715 -1.5326 -1.0102
 6831TIP3    H244689   8.090   0.977  13.503  0.3264  3.1893  2.8342
 6832TIP3   OH244690   5.671   3.807  11.740  0.6601  0.3005  0.0356
 6832TIP3    H144691   5.709   3.819  11.826 -0.0489  0.7992  0.2924
 6832TIP3    H244692   5.670   3.895  11.701  0.4956  0.1686 -0.2696
 6833TIP3   OH244693   1.825   1.766  12.099  0.2804 -0.0770  0.1234
 6833TIP3    H144694   1.753   1.704  12.111  0.7543 -0.6906 -0.1442
 6833TIP3    H244695   1.782   1.851  12.089 -0.5024 -0.6474 -1.6566
 6834TIP3   OH244696   0.354   4.235  12.198 -0.4787  0.0239  0.2022
 6834TIP3    H144697   0.313   4.276  12.274 -0.4831 -1.4533  1.0342
 6834TIP3    H244698   0.442   4.272  12.195 -0.7772  0.7674  0.3621
 6835TIP3   OH244699   1.355   6.716  12.799 -0.3991 -0.5860  0.1651
 6835TIP3    H144700   1.328   6.627  12.776 -1.7132 -0.2594  0.3615
 6835TIP3    H244701   1.448   6.720  12.775 -0.7391 -1.4662 -1.4299
 6836TIP3   OH244702   1.931   3.580  11.580 -0.2735 -0.2598  0.0773
 6836TIP3    H144703   1.945   3.672  11.559  0.5753 -0.4273 -0.1099
 6836TIP3    H244704   1.849   3.579  11.629  0.5100  0.7868  1.4590
 6837TIP3   OH244705   7.552   9.095  11.532  0.1742  0.1702  0.1830
 6837TIP3    H144706   7.607   9.172  11.514  1.1305 -0.3628  0.7377
 6837TIP3    H244707   7.477   9.130  11.581  1.9681  0.4476  2.9608
 6838TIP3   OH244708   5.901   7.129  11.904 -0.2976 -0.8124  0.4485
 6838TIP3    H144709   5.978   7.162  11.952 -0.4306 -1.4550  1.1293
 6838TIP3    H244710   5.886   7.041  11.940 -1.4017 -0.6661  0.3865
 6839TIP3   OH244711   2.620   5.099  12.181  0.7727  0.1496  0.2561
 6839TIP3    H144712   2.628   5.065  12.092  0.1326 -1.1363  0.6705
 6839TIP3    H244713   2.688   5.054  12.230  0.2117 -0.2194  0.7120
 6840TIP3   OH244714   0.706   5.662  12.569 -0.4075 -0.4648  0.1772
 6840TIP3    H144715   0.688   5.750  12.603  0.8454 -0.3875  0.6718
 6840TIP3    H244716   0.621   5.618  12.571 -1.3939  1.1847 -1.4700
 6841TIP3   OH244717   0.443   6.747  13.125 -0.0208 -0.2830 -0.5168
 6841TIP3    H144718   0.389   6.671  13.107 -0.7228 -0.4060  1.7875
 6841TIP3    H244719   0.474   6.734  13.215  0.7144  1.6261 -0.4457
 6842TIP3   OH244720   3.782   4.403  12.037 -0.0629 -0.5071 -0.1420
 6842TIP3    H144721   3.725   4.469  12.076  1.1710  0.0751  0.7417
 6842TIP3    H244722   3.793   4.430  11.946 -1.3349 -0.7409 -0.3785
 6843TIP3   OH244723   8.208   3.064  13.379 -0.3274  0.6029  0.2603
 6843TIP3    H144724   8.278   2.999  13.382  0.6664  1.6113 -0.3910
 6843TIP3    H244725   8.141   3.026  13.322  0.6737  0.5405 -0.9050
 6844TIP3   OH244726   4.187   6.911  11.732  0.0779  0.4690  0.0408
 6844TIP3    H144727   4.249   6.961  11.678 -0.3724 -0.6239 -1.6025
 6844TIP3    H244728   4.105   6.959  11.725  0.0303  0.3530 -0.2522
 6845TIP3   OH244729   6.489   2.607  11.579  0.1373  0.1070  0.3088
 6845TIP3    H144730   6.406   2.565  11.600  0.9052 -2.2875 -1.0320
 6845TIP3    H244731   6.551   2.572  11.644 -0.0081  2.7201  2.0134
 6846TIP3   OH244732   2.971   2.776  12.974  0.1715 -0.2165 -0.1157
 6846TIP3    H144733   2.950   2.861  12.935  0.1012 -0.3968 -0.4790
 6846TIP3    H244734   3.031   2.796  13.046  0.7748  0.0766 -0.6865
 6847TIP3   OH244735   2.726   2.348  12.934 -0.3642 -0.5412  0.9189
 6847TIP3    H144736   2.798   2.397  12.972 -1.3767  2.1842 -0.3792
 6847TIP3    H244737   2.653   2.362  12.995 -0.7748  0.0000  0.3215
 6848TIP3   OH244738   5.261   0.140  12.574 -0.3548  0.4217  0.0615
 6848TIP3    H144739   5.357   0.138  12.585 -0.2483 -0.8643 -0.9013
 6848TIP3    H244740   5.229   0.171  12.659  0.9087  0.9664  0.3761
 6849TIP3   OH244741   0.146   5.100  13.293  0.2721 -0.0014 -1.1179
 6849TIP3    H144742   0.200   5.097  13.372 -0.7394  1.2952 -0.3176
 6849TIP3    H244743   0.194   5.156  13.232 -0.5063  1.9297 -0.0626
 6850TIP3   OH244744   7.683   7.335  12.756  0.6069  0.2796  0.8249
 6850TIP3    H144745   7.753   7.276  12.725 -0.5850 -0.1789 -1.1635
 6850TIP3    H244746   7.722   7.422  12.751  0.9160  0.0920 -0.8403
 6851TIP3   OH244747   4.630   2.813  12.337  0.3693  0.1640 -0.2648
 6851TIP3    H144748   4.655   2.869  12.264 -0.8154  0.0331 -0.7955
 6851TIP3    H244749   4.608   2.873  12.408  0.0784  0.3463 -0.5065
 6852TIP3   OH244750   2.624   4.661  13.110 -0.2848 -0.1903 -0.4394
 6852TIP3    H144751   2.710   4.621  13.127 -0.0368  0.4363 -0.1865
 6852TIP3    H244752   2.591   4.614  13.034 -0.4537 -1.5758  0.4604
 6853TIP3   OH244753   1.104   0.936  11.771 -0.3919 -0.0133 -0.4605
 6853TIP3    H144754   1.153   0.883  11.833 -1.0754 -1.3676 -1.0408
 6853TIP3    H244755   1.167   0.957  11.702 -0.3609 -0.9163 -0.7135
 6854TIP3   OH244756   5.212   5.706  13.593 -0.4988 -0.1392  0.1331
 6854TIP3    H144757   5.184   5.784  13.545 -1.9016 -0.8544 -0.2782
 6854TIP3    H244758   5.293   5.732  13.637 -0.7453  1.4268 -0.2818
 6855TIP3   OH244759   3.211   1.665  12.088 -0.1669  0.0188 -0.5007
 6855TIP3    H144760   3.176   1.618  12.163  1.2333 -0.1292  0.1039
 6855TIP3    H244761   3.284   1.611  12.058 -0.0768  0.5882 -1.3364
 6856TIP3   OH244762   6.158   4.394  12.760 -0.6662  0.4640  0.1489
 6856TIP3    H144763   6.245   4.398  12.720 -0.3019  1.5678  1.0163
 6856TIP3    H244764   6.162   4.317  12.817 -0.8977 -0.5966 -1.2132
 6857TIP3   OH244765   3.518   1.051  11.638  0.1036 -0.0525  0.3465
 6857TIP3    H144766   3.533   1.124  11.579 -2.7106  0.1530 -0.2188
 6857TIP3    H244767   3.507   1.091  11.724 -0.3975  0.0898  0.2157
 6858TIP3   OH244768   3.904   8.917  12.469 -0.2727 -0.5518 -0.7555
 6858TIP3    H144769   3.897   8.985  12.536 -1.0633 -1.1797 -0.1908
 6858TIP3    H244770   3.860   8.841  12.506 -0.5979 -0.9623 -1.9305
 6859TIP3   OH244771   1.993   6.801  12.090  0.2601  0.5736 -0.1817
 6859TIP3    H144772   1.929   6.872  12.100  0.3862  0.5342  0.9911
 6859TIP3    H244773   1.978   6.768  12.001 -1.5334  0.4046  0.1449
 6860TIP3   OH244774   7.915   0.501  12.083  0.7802  0.5004 -0.0544
 6860TIP3    H144775   7.858   0.426  12.101  2.6466 -1.1574 -0.6928
 6860TIP3    H244776   7.855   0.576  12.080 -0.9596 -0.6408  2.3106
 6861TIP3   OH244777   0.876   3.009  12.741 -0.4781  0.3859 -0.0963
 6861TIP3    H144778   0.842   2.945  12.677  0.0727  0.6460 -0.6626
 6861TIP3    H244779   0.846   2.976  12.825  1.2692 -1.6496 -0.1618
 6862TIP3   OH244780   9.115   0.853  11.830  0.0357 -0.5053 -0.2727
 6862TIP3    H144781   9.088   0.934  11.787 -1.3588 -0.7525  0.0903
 6862TIP3    H244782   9.206   0.869  11.855  0.3534  0.2701 -1.7861
 6863TIP3   OH244783   7.927   4.146  13.119 -0.1167  0.1930  0.3190
 6863TIP3    H144784   7.884   4.228  13.095  0.2532  0.0827 -0.7809
 6863TIP3    H244785   7.985   4.169  13.191 -0.0320  0.8857  0.0326
 6864TIP3   OH244786   8.433   1.805  13.266  0.5235  0.2421 -0.1204
 6864TIP3    H144787   8.458   1.746  13.337 -0.7691  0.1650  0.3013
 6864TIP3    H244788   8.353   1.766  13.230  1.2034  0.2336 -1.6913
 6865TIP3   OH244789   6.788   0.008  11.572 -0.4240  0.0341 -0.1091
 6865TIP3    H144790   6.782   0.038  11.481 -1.3454 -1.2328 -0.4968
 6865TIP3    H244791   6.763   0.085  11.624  2.0593  1.3758 -0.7761
 6866TIP3   OH244792   3.615   6.881  12.800 -0.5878 -0.2643  0.1742
 6866TIP3    H144793   3.691   6.927  12.836  0.0211 -1.5442  0.5560
 6866TIP3    H244794   3.648   6.837  12.722 -0.9033 -0.8974  0.3910
 6867TIP3   OH244795   1.725   4.389  12.612 -0.1486 -0.0524 -0.1998
 6867TIP3    H144796   1.730   4.372  12.518 -1.9202 -1.4844 -0.0820
 6867TIP3    H244797   1.792   4.456  12.628  1.5669 -1.1713 -2.1419
 6868TIP3   OH244798   8.268   2.545  13.355 -0.3896 -0.5314 -1.1211
 6868TIP3    H144799   8.361   2.565  13.352 -0.2947 -0.3160  1.1557
 6868TIP3    H244800   8.263   2.450  13.365 -0.2332 -0.3239  1.5356
 6869TIP3   OH244801   5.221   6.773  12.177 -0.1424  0.4660  0.1657
 6869TIP3    H144802   5.296   6.752  12.233 -1.2929 -0.7310  1.3371
 6869TIP3    H244803   5.259   6.820  12.102  1.9698 -1.3789 -0.0288
 6870TIP3   OH244804   7.352   1.763  11.622 -0.1081 -0.4171  0.3571
 6870TIP3    H144805   7.327   1.853  11.602 -0.1719 -0.5204 -0.0376
 6870TIP3    H244806   7.276   1.726  11.668 -0.8503 -0.8367 -1.1448
 6871TIP3   OH244807   5.210   1.680  12.298 -0.5006  0.3246  0.0672
 6871TIP3    H144808   5.176   1.664  12.210 -0.3623  0.0768  0.0585
 6871TIP3    H244809   5.192   1.773  12.314  0.7408  0.7384 -0.7767
 6872TIP3   OH244810   4.589   5.009  12.664  0.1864 -0.4944  0.5794
 6872TIP3    H144811   4.548   5.060  12.734  2.8041  0.5172  1.4853
 6872TIP3    H244812   4.632   4.936  12.709  0.2196 -0.9881 -0.2274
 6873TIP3   OH244813   2.687   1.192  12.187  0.0250  0.1563  0.0139
 6873TIP3    H144814   2.768   1.188  12.239 -0.2046 -0.4627  0.3425
 6873TIP3    H244815   2.650   1.278  12.206 -0.7777 -0.5712  2.0022
 6874TIP3   OH244816   8.983   1.812  11.660 -0.3465  0.8707  0.7673
 6874TIP3    H144817   8.981   1.881  11.726 -0.4208  1.5435  0.0824
 6874TIP3    H244818   9.076   1.800  11.640 -0.4139  2.3384 -0.6715
 6875TIP3   OH244819   3.936   9.017  11.975  0.5154 -0.4085  0.1244
 6875TIP3    H144820   3.914   8.988  12.064  1.0042  0.7696  0.6540
 6875TIP3    H244821   3.853   9.011  11.927  0.4926 -2.1605  0.3297
 6876TIP3   OH244822   3.356   4.575  12.881 -0.6245 -0.4467  0.3195
 6876TIP3    H144823   3.407   4.654  12.860 -2.1870  0.3313 -0.7281
 6876TIP3    H244824   3.265   4.603  12.878 -1.1635 -1.5968  3.0492
 6877TIP3   OH244825   1.197   7.516  12.694  0.4724  0.1168 -0.1062
 6877TIP3    H144826   1.187   7.423  12.714  0.3540  0.1711  0.0955
 6877TIP3    H244827   1.270   7.544  12.748 -0.4097  0.4648  0.9492
 6878TIP3   OH244828   0.235   7.439  13.103  0.0109  0.0705 -0.7756
 6878TIP3    H144829   0.227   7.352  13.142 -0.7446  0.3395 -0.3095
 6878TIP3    H244830   0.291   7.487  13.164 -1.4429  0.5927  0.1973
 6879TIP3   OH244831   5.327   7.202  13.510 -0.6653  0.1560  0.0770
 6879TIP3    H144832   5.253   7.225  13.454  1.3306  0.5603 -2.5756
 6879TIP3    H244833   5.372   7.285  13.528  0.1054 -0.2727  0.1968
 6880TIP3   OH244834   3.904   7.887  12.097 -0.5256 -0.1962  0.0106
 6880TIP3    H144835   3.898   7.925  12.009 -2.3935 -1.8385 -0.6459
 6880TIP3    H244836   3.983   7.834  12.095 -0.3902  0.0155 -0.5818
 6881TIP3   OH244837   9.117   1.255  11.841 -0.7208  0.4584 -0.4033
 6881TIP3    H144838   9.185   1.212  11.892 -1.1119  1.0062  0.6110
 6881TIP3    H244839   9.165   1.311  11.780 -0.2468  1.0566  0.4931
 6882TIP3   OH244840   2.788   6.927  12.968  0.1661 -0.3653 -0.8771
 6882TIP3    H144841   2.773   6.877  13.048 -1.2564  0.0567 -0.8394
 6882TIP3    H244842   2.701   6.932  12.927  0.5429  0.8840 -1.5663
 6883TIP3   OH244843   6.309   3.564  12.818 -0.5828 -0.4079 -0.3257
 6883TIP3    H144844   6.397   3.560  12.856 -0.9429  0.3849  0.6322
 6883TIP3    H244845   6.251   3.541  12.890 -1.2069 -0.1962 -0.7547
 6884TIP3   OH244846   1.832   6.890  13.146 -0.0349  0.3537  0.2676
 6884TIP3    H144847   1.925   6.906  13.126  0.2583 -2.2661 -0.7996
 6884TIP3    H244848   1.784   6.930  13.074  0.0989  2.6584  1.3470
 6885TIP3   OH244849   3.090   3.150  11.552 -0.5900 -0.0786 -0.0100
 6885TIP3    H144850   3.028   3.098  11.501 -1.6388 -0.3940  1.5215
 6885TIP3    H244851   3.045   3.167  11.635  0.4015  1.8274  0.1955
 6886TIP3   OH244852   6.457   7.958  12.103 -0.3466  0.0969  0.1827
 6886TIP3    H144853   6.509   7.905  12.043 -0.6930 -1.0879  0.9116
 6886TIP3    H244854   6.366   7.943  12.075 -0.7313 -2.3728  2.4020
 6887TIP3   OH244855   8.134   6.021  11.968 -0.1273 -0.2899 -0.2440
 6887TIP3    H144856   8.224   5.990  11.982 -0.5149 -1.8283 -1.0108
 6887TIP3    H244857   8.081   5.942  11.966 -1.4236  0.5590 -0.4743
 6888TIP3   OH244858   6.619   3.530  12.601 -0.0368 -0.0847  0.7998
 6888TIP3    H144859   6.698   3.576  12.572  0.7476 -2.6390 -1.6055
 6888TIP3    H244860   6.646   3.482  12.679 -0.4138  2.0355  2.3354
 6889TIP3   OH244861   8.624   2.658  11.897 -0.2451  0.3049  0.4222
 6889TIP3    H144862   8.616   2.668  11.992 -0.2673 -1.2412  0.5993
 6889TIP3    H244863   8.548   2.606  11.872 -0.0367  0.3830 -0.3987
 6890TIP3   OH244864   0.778   5.266  11.630 -0.2835 -0.1353  0.5134
 6890TIP3    H144865   0.771   5.356  11.599 -2.8176 -0.8505 -1.3090
 6890TIP3    H244866   0.832   5.223  11.564  2.3070  0.2736  2.2128
 6891TIP3   OH244867   3.574   0.753  13.217  0.1759 -0.2756 -0.1150
 6891TIP3    H144868   3.604   0.763  13.307  2.1593  0.5921 -0.8111
 6891TIP3    H244869   3.479   0.758  13.222  0.2764  0.3265  1.8497
 6892TIP3   OH244870   7.245   4.824  12.035 -0.0950 -0.4324 -0.0329
 6892TIP3    H144871   7.193   4.890  11.989  1.2259 -0.5668 -1.8522
 6892TIP3    H244872   7.328   4.821  11.987  0.5699 -2.1365  1.1070
 6893TIP3   OH244873   6.533   3.655  11.876  0.6898  0.3265  0.2498
 6893TIP3    H144874   6.499   3.643  11.965 -1.6632  1.3624 -0.4139
 6893TIP3    H244875   6.523   3.569  11.835 -0.6010  0.4437  0.2765
 6894TIP3   OH244876   8.213   8.447  12.144 -0.2065 -0.5101  0.2654
 6894TIP3    H144877   8.255   8.421  12.226  1.8682 -0.3539 -0.6881
 6894TIP3    H244878   8.227   8.541  12.139 -0.6469 -0.4609 -0.0990
 6895TIP3   OH244879   8.665   7.225  13.376 -0.2118 -0.0069 -0.1651
 6895TIP3    H144880   8.671   7.204  13.283 -0.2085 -0.1131 -0.1410
 6895TIP3    H244881   8.636   7.143  13.417  0.9917 -0.3276  0.0839
 6896TIP3   OH244882   3.316   0.957  11.968  0.3131 -0.5104 -0.0712
 6896TIP3    H144883   3.225   0.971  11.942 -0.0726 -2.3557  0.1750
 6896TIP3    H244884   3.357   1.044  11.961 -1.7057  0.5659  0.8500
 6897TIP3   OH244885   5.867   0.791  12.183 -0.1574 -0.0149 -0.2828
 6897TIP3    H144886   5.891   0.799  12.275 -3.2932  0.6451  0.5933
 6897TIP3    H244887   5.921   0.719  12.150  1.2926 -0.0293  1.9208
 6898TIP3   OH244888   7.794   0.165  12.745 -0.2699  0.3609 -0.2238
 6898TIP3    H144889   7.804   0.260  12.734  0.8586  0.4933  1.5683
 6898TIP3    H244890   7.846   0.144  12.822  0.2022 -1.8793 -1.0765
 6899TIP3   OH244891   4.936   3.506  12.895  0.1907  0.3530  0.0845
 6899TIP3    H144892   4.916   3.598  12.880 -1.6685 -0.1474 -0.7813
 6899TIP3    H244893   5.027   3.497  12.870  0.1484  1.7748 -0.6897
 6900TIP3   OH244894   7.018   4.070  12.725  0.3704 -0.0800  0.1579
 6900TIP3    H144895   7.114   4.077  12.718  0.3324  1.2961  0.6540
 6900TIP3    H244896   6.996   3.993  12.673  1.5092  0.9625 -2.0154
 6901TIP3   OH244897   8.158   3.053  12.527 -0.1071 -0.6035 -0.1709
 6901TIP3    H144898   8.113   3.080  12.446 -0.0540  0.7467  0.2177
 6901TIP3    H244899   8.090   3.010  12.579 -0.8235  0.8193  0.1276
 6902TIP3   OH244900   1.264   8.922  13.315 -0.2700 -0.4337  0.3478
 6902TIP3    H144901   1.338   8.923  13.377 -0.9368  1.0656  1.1702
 6902TIP3    H244902   1.207   8.852  13.347 -0.8091  0.5929  1.7103
 6903TIP3   OH244903   4.627   0.742  13.086 -0.2908 -0.4921  0.0841
 6903TIP3    H144904   4.549   0.706  13.044 -1.4851  1.6341  0.2967
 6903TIP3    H244905   4.682   0.771  13.014 -0.6152 -0.2598 -0.0770
 6904TIP3   OH244906   5.548   0.933  11.596  0.1336 -0.8060 -0.6188
 6904TIP3    H144907   5.549   1.027  11.616  2.8700 -1.0590  0.9397
 6904TIP3    H244908   5.456   0.910  11.595 -0.5956  1.7329 -0.2190
 6905TIP3   OH244909   4.317   2.464  11.576 -0.0110 -0.1278 -0.0402
 6905TIP3    H144910   4.282   2.553  11.566 -0.8809 -0.5490 -0.9976
 6905TIP3    H244911   4.249   2.408  11.538  0.3967 -1.2319  0.8107
 6906TIP3   OH244912   4.556   4.998  12.294  0.2296 -0.6891 -0.4588
 6906TIP3    H144913   4.617   5.068  12.269  0.2183 -0.6015 -0.2473
 6906TIP3    H244914   4.609   4.938  12.347  0.1312 -0.6116 -0.2730
 6907TIP3   OH244915   8.005   3.005  11.616 -0.3911  0.0865  0.4656
 6907TIP3    H144916   8.035   2.930  11.565  0.1879 -0.3939  1.4825
 6907TIP3    H244917   7.920   3.027  11.578 -0.2243 -0.5851 -0.3454
 6908TIP3   OH244918   5.666   4.843  13.018 -0.0980 -0.4909 -0.7389
 6908TIP3    H144919   5.706   4.898  12.951  0.3088 -0.7574 -0.7170
 6908TIP3    H244920   5.579   4.881  13.031 -0.3457 -0.6808 -1.7158
 6909TIP3   OH244921   0.963   2.771  12.581 -0.3331  0.1261  0.0447
 6909TIP3    H144922   1.057   2.784  12.569 -0.4422  0.2612 -0.7727
 6909TIP3    H244923   0.926   2.783  12.493 -1.1609  0.4803  0.4281
 6910TIP3   OH244924   7.947   1.197  11.570 -0.2199  0.2257 -0.5746
 6910TIP3    H144925   7.884   1.228  11.635  1.6770  0.2267  1.3603
 6910TIP3    H244926   7.898   1.136  11.515 -1.5473 -0.9821  1.8279
 6911TIP3   OH244927   9.026   7.213  11.531 -0.5799  0.1717  0.0620
 6911TIP3    H144928   8.988   7.294  11.566  0.3915  1.4017 -1.5641
 6911TIP3    H244929   8.992   7.207  11.441  0.0804 -0.7334 -0.1430
 6912TIP3   OH244930   7.489   0.850  12.512 -0.4314 -0.3471 -0.5150
 6912TIP3    H144931   7.525   0.835  12.424 -0.3318  0.2323 -0.5788
 6912TIP3    H244932   7.561   0.890  12.560 -0.8548  0.4482 -0.5243
 6913TIP3   OH244933   1.203   8.072  13.717 -0.3084 -0.1757 -0.1167
 6913TIP3    H144934   1.217   7.978  13.705 -0.4926 -0.4019  1.2178
 6913TIP3    H244935   1.290   8.110  13.712 -0.0793 -0.5883  0.5079
 6914TIP3   OH244936   8.657   2.390  12.540 -0.0329 -0.6592  0.6688
 6914TIP3    H144937   8.612   2.416  12.459 -1.4222  1.3741  2.0125
 6914TIP3    H244938   8.750   2.395  12.518 -0.3680  0.5155 -0.6365
 6915TIP3   OH244939   2.911   6.971  12.667 -0.2279  0.7548  0.3735
 6915TIP3    H144940   2.963   7.035  12.618  0.2878  0.6607  0.7896
 6915TIP3    H244941   2.942   6.979  12.757  0.0900 -0.3342  0.3650
 6916TIP3   OH244942   6.823   5.394  12.414 -0.1538 -0.1349  0.2966
 6916TIP3    H144943   6.898   5.352  12.456  0.4151  0.8210  0.2620
 6916TIP3    H244944   6.834   5.375  12.321 -0.3891 -0.6545  0.3700
 6917TIP3   OH244945   7.573   8.840  12.607  0.8523  0.0175 -0.2495
 6917TIP3    H144946   7.627   8.770  12.643  1.4567  0.9424  0.6901
 6917TIP3    H244947   7.623   8.920  12.622 -0.2575  0.7750 -0.4054
 6918TIP3   OH244948   0.884   8.069  11.621  0.5275  0.0437 -0.2787
 6918TIP3    H144949   0.962   8.034  11.663  0.7397  0.0373 -0.6731
 6918TIP3    H244950   0.846   7.994  11.576  1.0421  0.3305 -1.2164
 6919TIP3   OH244951   1.936   1.228  12.538 -0.1049  0.2237  0.0654
 6919TIP3    H144952   1.994   1.186  12.476  0.1045  1.1905 -0.4183
 6919TIP3    H244953   1.956   1.322  12.530 -2.1051  0.6397 -0.5097
 6920TIP3   OH244954   7.411   2.377  11.671 -0.2410 -0.3781 -0.7716
 6920TIP3    H144955   7.475   2.444  11.649 -0.4135 -0.4620 -1.5703
 6920TIP3    H244956   7.326   2.418  11.657 -0.3515 -0.6068 -0.7907
 6921TIP3   OH244957   3.173   4.087  13.458 -0.1404 -0.0359 -0.4016
 6921TIP3    H144958   3.248   4.120  13.407  0.6065 -1.4488 -0.2651
 6921TIP3    H244959   3.103   4.149  13.438  0.7806  0.7747 -1.3179
 6922TIP3   OH244960   8.451   1.600  12.033  0.1469 -0.3198  0.5152
 6922TIP3    H144961   8.533   1.559  12.060  0.2967 -0.2333  0.1986
 6922TIP3    H244962   8.462   1.616  11.939 -0.2882 -0.4446  0.4399
 6923TIP3   OH244963   2.090   6.233  11.837 -0.1127 -0.3463 -0.7333
 6923TIP3    H144964   2.103   6.140  11.856 -0.6390 -0.7268 -2.1386
 6923TIP3    H244965   2.148   6.252  11.764  0.2727  0.5427 -0.2156
 6924TIP3   OH244966   3.384   1.046  13.815  0.6314 -0.2234 -0.2265
 6924TIP3    H144967   3.335   0.983  13.762 -1.0748 -0.2715  1.3488
 6924TIP3    H244968   3.321   1.081  13.877  2.7902 -1.1608  2.7433
 6925TIP3   OH244969   9.211   7.966  12.014 -0.0234  0.1376  0.3630
 6925TIP3    H144970   9.232   7.930  11.928  1.8783  1.2762  0.3000
 6925TIP3    H244971   9.145   7.906  12.050 -0.5629 -0.5774 -1.6946
 6926TIP3   OH244972   5.106   3.042  12.372  0.2636 -0.1210  0.1664
 6926TIP3    H144973   5.020   3.059  12.413  0.8792 -0.8801  1.8651
 6926TIP3    H244974   5.115   3.112  12.307 -0.2919  1.9355  2.1441
 6927TIP3   OH244975   7.895   1.426  11.399  0.4157 -0.6445  0.3047
 6927TIP3    H144976   7.931   1.345  11.435  2.1490 -0.1843 -0.2664
 6927TIP3    H244977   7.893   1.486  11.473  1.3995 -0.5107  0.2373
 6928TIP3   OH244978   2.433   8.541  12.824 -0.3222 -0.2447  0.2018
 6928TIP3    H144979   2.522   8.505  12.825  0.0300  0.5944  0.2202
 6928TIP3    H244980   2.417   8.563  12.732 -0.6928 -0.8188  0.1269
 6929TIP3   OH244981   5.772   5.067  12.370  0.1395 -0.2533 -0.0479
 6929TIP3    H144982   5.861   5.072  12.334  0.7740 -0.8536  1.3377
 6929TIP3    H244983   5.776   5.119  12.450 -0.4472 -1.1895  0.6078
 6930TIP3   OH244984   0.475   9.177  11.767 -0.3619  0.1446 -0.0294
 6930TIP3    H144985   0.424   9.103  11.737  1.0011 -1.2853  1.0296
 6930TIP3    H244986   0.461   9.180  11.862  0.9371  0.1491  0.1824
 6931TIP3   OH244987   3.517   5.940  11.859 -0.1065 -0.0134  0.8696
 6931TIP3    H144988   3.531   5.894  11.941  0.7062  0.2334  0.8779
 6931TIP3    H244989   3.451   6.007  11.879  0.6691  0.5707  1.5312
 6932TIP3   OH244990   0.789   3.763  12.742  0.0457 -0.0317  0.0929
 6932TIP3    H144991   0.727   3.836  12.741  0.9065  0.7505  1.1927
 6932TIP3    H244992   0.837   3.771  12.659  0.8437  1.3272  0.6393
 6933TIP3   OH244993   1.618   6.772  12.805 -0.4519  0.2432  0.5724
 6933TIP3    H144994   1.635   6.781  12.711 -1.1641 -0.6716  0.3404
 6933TIP3    H244995   1.659   6.849  12.844 -1.2894  1.3382 -0.6293
 6934TIP3   OH244996   6.283   3.908  11.501  0.1702 -0.3556 -0.1484
 6934TIP3    H144997   6.341   3.848  11.549  0.6582 -1.3075 -1.8285
 6934TIP3    H244998   6.343   3.967  11.455 -0.2949  0.8550  0.7640
 6935TIP3   OH244999   1.301   2.629  12.794  0.3580 -0.1408 -0.3558
 6935TIP3    H145000   1.294   2.650  12.887 -3.5181  0.1422 -0.5489
 6935TIP3    H245001   1.229   2.569  12.777  0.1012  0.8424 -3.4128
 6936TIP3   OH245002   1.343   5.434  11.612  0.6616  0.0216  0.6950
 6936TIP3    H145003   1.378   5.382  11.539  0.5102  1.3277 -0.3400
 6936TIP3    H245004   1.397   5.409  11.687  0.5030 -1.7198  0.2752
 6937TIP3   OH245005   4.725   4.987  12.006 -0.3607  0.2869 -0.5067
 6937TIP3    H145006   4.649   4.936  12.034  0.7956  0.0212  2.4563
 6937TIP3    H245007   4.689   5.052  11.946 -3.1172  0.7421  1.4444
 6938TIP3   OH245008   7.793   7.486  12.147  0.0149 -0.2808  0.2580
 6938TIP3    H145009   7.828   7.523  12.066 -1.4169  0.2345 -0.1550
 6938TIP3    H245010   7.869   7.451  12.193  1.0463  0.7718 -0.6127
 6939TIP3   OH245011   5.763   4.561  13.474 -0.3963 -0.2654  0.3582
 6939TIP3    H145012   5.721   4.557  13.560  1.0585 -0.8622  1.0588
 6939TIP3    H245013   5.719   4.493  13.423 -1.9535  0.7489  0.2829
 6940TIP3   OH245014   5.173   0.844  13.274 -0.3004  0.0314 -0.7736
 6940TIP3    H145015   5.184   0.910  13.206 -1.2011 -0.0782 -1.0293
 6940TIP3    H245016   5.079   0.834  13.284 -0.1843 -0.0999  0.3558
 6941TIP3   OH245017   8.755   1.232  11.807  0.5361  0.1292 -0.6982
 6941TIP3    H145018   8.792   1.266  11.725  0.7218  1.2177 -0.1845
 6941TIP3    H245019   8.820   1.254  11.874  0.4818 -0.9373 -0.2856
 6942TIP3   OH245020   4.376   4.415  12.003 -0.2738  0.6637  0.1129
 6942TIP3    H145021   4.319   4.358  11.951  0.3006  1.3009 -1.2638
 6942TIP3    H245022   4.461   4.372  12.001 -0.4040  0.3279  1.1555
 6943TIP3   OH245023   6.461   1.787  12.239 -0.0579  0.3867  0.0067
 6943TIP3    H145024   6.455   1.759  12.330  2.7818  0.8316  0.4091
 6943TIP3    H245025   6.431   1.711  12.189  1.5071 -1.1234  1.2469
 6944TIP3   OH245026   4.609   1.699  11.864 -0.7373 -0.7055  0.3321
 6944TIP3    H145027   4.693   1.698  11.909 -0.4668 -0.0539 -0.1546
 6944TIP3    H245028   4.551   1.746  11.923  0.1690  2.1915 -0.9236
 6945TIP3   OH245029   1.672   6.024  13.118 -0.3511  0.1741  0.1390
 6945TIP3    H145030   1.654   6.002  13.027 -0.2009  1.2151 -0.1500
 6945TIP3    H245031   1.738   6.094  13.114  3.4568 -2.9794  1.1319
 6946TIP3   OH245032   8.898   3.567  12.896  0.3004  0.0689 -0.6222
 6946TIP3    H145033   8.963   3.600  12.835  1.1654  0.1710  0.3235
 6946TIP3    H245034   8.815   3.605  12.867  0.7861  0.5402 -1.4026
 6947TIP3   OH245035   6.345   1.139  12.220  0.1128 -0.4637  0.2456
 6947TIP3    H145036   6.344   1.225  12.262  1.5691  0.4492 -1.4154
 6947TIP3    H245037   6.267   1.139  12.164  0.7120  0.3166 -0.6397
 6948TIP3   OH245038   6.912   1.267  12.284  0.0800 -0.5687  0.0090
 6948TIP3    H145039   6.901   1.324  12.207 -2.2259 -0.5396  0.3065
 6948TIP3    H245040   6.962   1.320  12.346  0.4971  0.0296 -0.8135
 6949TIP3   OH245041   5.270   7.023  12.816  0.1394 -0.1742 -0.4384
 6949TIP3    H145042   5.215   6.948  12.792  0.1674 -0.4256  0.2603
 6949TIP3    H245043   5.269   7.024  12.912  0.3637  0.5577 -0.4399
 6950TIP3   OH245044   3.657   0.271  13.094 -0.0288 -0.6047  0.4115
 6950TIP3    H145045   3.715   0.203  13.058  0.3075 -1.3615  2.2796
 6950TIP3    H245046   3.581   0.224  13.126  0.1109 -0.0944  1.5389
 6951TIP3   OH245047   3.062   7.220  13.111 -0.6213  0.1129 -0.7012
 6951TIP3    H145048   3.060   7.129  13.141  1.3509 -0.0576 -0.9428
 6951TIP3    H245049   3.107   7.216  13.027  2.2140  1.5792  0.6248
 6952TIP3   OH245050   6.246   1.668  11.862  0.1037 -0.2154 -0.1724
 6952TIP3    H145051   6.290   1.601  11.915 -1.2137 -1.3941 -0.5141
 6952TIP3    H245052   6.187   1.619  11.805 -0.0367  1.1698 -1.2847
 6953TIP3   OH245053   1.678   5.436  12.027  0.2653 -0.3773  0.3676
 6953TIP3    H145054   1.738   5.483  12.085  0.7668 -1.1821  0.5137
 6953TIP3    H245055   1.613   5.398  12.085 -0.2986  0.3423  0.2245
 6954TIP3   OH245056   4.217   6.709  12.084  0.3781 -0.5137 -0.4646
 6954TIP3    H145057   4.220   6.634  12.144  1.5292 -0.5621 -0.5689
 6954TIP3    H245058   4.146   6.763  12.119 -0.8055 -1.8578 -0.6663
 6955TIP3   OH245059   2.877   2.591  12.522 -0.7271  0.2753 -0.1425
 6955TIP3    H145060   2.947   2.575  12.459  1.9544  3.2454  1.8147
 6955TIP3    H245061   2.835   2.672  12.492 -0.8616  0.5185  0.6685
 6956TIP3   OH245062   4.239   8.751  12.198  0.8088  0.0057 -0.4297
 6956TIP3    H145063   4.332   8.762  12.218  0.8238  1.5602 -1.2223
 6956TIP3    H245064   4.229   8.784  12.109 -0.4863 -0.2434 -0.4016
 6957TIP3   OH245065   5.515   5.293  11.961  0.0522 -0.1560  0.2665
 6957TIP3    H145066   5.563   5.248  11.892  2.0412  1.6471  0.3758
 6957TIP3    H245067   5.503   5.227  12.029  2.2689 -0.7306  0.1603
 6958TIP3   OH245068   1.240   0.558  12.610 -0.2983 -0.3231  0.3400
 6958TIP3    H145069   1.299   0.520  12.675 -0.5602 -1.2184  0.0711
 6958TIP3    H245070   1.295   0.620  12.561  0.8918 -2.2943 -0.9523
 6959TIP3   OH245071   2.715   5.430  11.609 -0.1373 -0.6402 -0.3581
 6959TIP3    H145072   2.781   5.479  11.658  0.8524 -2.3504  0.1081
 6959TIP3    H245073   2.728   5.457  11.518  1.6021 -1.3372 -0.3520
 6960TIP3   OH245074   4.428   8.036  12.540 -0.3559  0.6351 -0.5994
 6960TIP3    H145075   4.482   8.010  12.614 -1.7887  2.7530  1.3235
 6960TIP3    H245076   4.410   7.954  12.494  1.0671 -0.6872  1.0471
 6961TIP3   OH245077   5.135   4.612  11.828  0.2571 -0.1569 -0.3029
 6961TIP3    H145078   5.152   4.532  11.877 -0.8678  0.9306  1.9819
 6961TIP3    H245079   5.053   4.593  11.780  0.1813 -0.4806 -0.0524
 6962TIP3   OH245080   1.044   3.504  12.160  0.0140  0.0860  0.6106
 6962TIP3    H145081   0.966   3.450  12.148 -0.7834  1.3002  0.0722
 6962TIP3    H245082   1.047   3.522  12.254 -0.7394  0.5477  0.5569
 6963TIP3   OH245083   7.594   7.450  12.357 -0.9179 -0.2887 -0.1440
 6963TIP3    H145084   7.630   7.363  12.370  1.4988  1.0761  4.0300
 6963TIP3    H245085   7.650   7.490  12.290  0.9953 -0.5185  1.2450
 6964TIP3   OH245086   8.568   2.528  13.335 -0.4129 -0.4065 -0.4417
 6964TIP3    H145087   8.611   2.522  13.421 -2.1580 -0.3663  0.4966
 6964TIP3    H245088   8.625   2.584  13.283  0.4976 -0.1121  0.8187
 6965TIP3   OH245089   3.803   1.974  11.554 -0.0602 -0.1728  0.2638
 6965TIP3    H145090   3.861   1.942  11.623 -1.6192 -2.8167  0.5111
 6965TIP3    H245091   3.733   1.909  11.550 -1.3201  1.1833 -2.1793
 6966TIP3   OH245092   3.198   9.011  12.146 -0.3986  0.4772 -0.0800
 6966TIP3    H145093   3.241   9.068  12.209 -1.2735 -0.7489  1.6951
 6966TIP3    H245094   3.211   8.923  12.180 -0.5433 -0.2680 -1.8587
 6967TIP3   OH245095   1.385   7.670  12.006  0.3019 -0.2613 -0.4500
 6967TIP3    H145096   1.476   7.681  12.031 -0.0476 -1.0088  1.2475
 6967TIP3    H245097   1.340   7.645  12.086 -1.1683 -1.2802 -1.5339
 6968TIP3   OH245098   2.879   1.514  12.286  0.5046  0.1880  0.1305
 6968TIP3    H145099   2.834   1.598  12.297  2.0496  0.8969  1.6194
 6968TIP3    H245100   2.826   1.452  12.336 -0.3905  0.3507 -0.5884
 6969TIP3   OH245101   2.181   3.719  12.775 -0.1108 -0.3650 -0.2759
 6969TIP3    H145102   2.204   3.689  12.687 -0.3811 -2.0169  0.1817
 6969TIP3    H245103   2.105   3.666  12.799 -1.8741  2.0544 -0.1220
 6970TIP3   OH245104   2.063   8.595  13.324  0.3644 -0.0168  0.0604
 6970TIP3    H145105   2.157   8.611  13.322  0.4472 -0.5387 -1.5077
 6970TIP3    H245106   2.041   8.592  13.417  1.7617  0.8350  0.4394
 6971TIP3   OH245107   6.408   0.229  12.296 -0.3023 -0.0938 -0.2607
 6971TIP3    H145108   6.359   0.292  12.348 -1.4117 -1.9449  1.0384
 6971TIP3    H245109   6.345   0.159  12.276  0.8132 -0.7338 -1.8308
 6972TIP3   OH245110   8.840   3.210  13.199 -0.4466  0.0161  0.1565
 6972TIP3    H145111   8.845   3.295  13.155  0.0704 -0.4273 -0.6702
 6972TIP3    H245112   8.832   3.147  13.127  0.5836 -0.7375  0.6898
 6973TIP3   OH245113   1.234   1.372  12.716 -0.2101 -0.2998  0.0084
 6973TIP3    H145114   1.280   1.332  12.790  0.2647 -1.5923 -0.9408
 6973TIP3    H245115   1.304   1.403  12.659 -0.5734  0.6033  0.0369
 6974TIP3   OH245116   5.165   1.631  12.935 -0.7384  0.4405  0.2299
 6974TIP3    H145117   5.189   1.539  12.921 -2.8143 -0.0283 -0.6006
 6974TIP3    H245118   5.168   1.642  13.030 -0.2279 -0.4157  0.3253
 6975TIP3   OH245119   2.272   5.793  12.327  0.1218 -0.0787  0.1805
 6975TIP3    H145120   2.205   5.771  12.263  0.9597  0.6988 -1.0160
 6975TIP3    H245121   2.226   5.794  12.411 -0.8069 -2.0031 -0.2697
 6976TIP3   OH245122   3.539   4.923  12.406 -0.2987  0.3716  0.1630
 6976TIP3    H145123   3.599   4.856  12.373  1.4324  2.2435 -0.6877
 6976TIP3    H245124   3.498   4.882  12.483  2.1284 -1.0172  0.8365
 6977TIP3   OH245125   0.206   5.579  11.732  0.0646  0.1580  0.0263
 6977TIP3    H145126   0.221   5.605  11.641 -0.4588 -0.9418 -0.3919
 6977TIP3    H245127   0.278   5.519  11.752  0.3718  0.6639  0.4594
 6978TIP3   OH245128   9.008   8.073  12.784 -0.3737  0.0554 -0.4299
 6978TIP3    H145129   9.019   7.979  12.772  1.9350  0.2815 -0.4616
 6978TIP3    H245130   8.931   8.081  12.841 -0.1511 -1.8723  0.2176
 6979TIP3   OH245131   3.448   0.794  12.714 -0.5043 -0.3838  0.2669
 6979TIP3    H145132   3.540   0.780  12.691 -0.1981 -1.0284  1.7595
 6979TIP3    H245133   3.439   0.889  12.717 -0.2524 -0.2816 -1.1593
 6980TIP3   OH245134   8.757   8.283  12.744 -0.5572  0.0010 -0.1073
 6980TIP3    H145135   8.746   8.209  12.804  0.8797 -0.1347  0.0175
 6980TIP3    H245136   8.805   8.247  12.669 -0.2219  0.7064 -0.2430
 6981TIP3   OH245137   0.427   0.851  12.291  0.0753  0.6709 -0.2947
 6981TIP3    H145138   0.489   0.921  12.310 -0.2050  1.4547 -2.0729
 6981TIP3    H245139   0.358   0.862  12.356  0.3009  1.7237 -0.2183
 6982TIP3   OH245140   3.811   4.902  13.106  0.5716  0.0864  0.1470
 6982TIP3    H145141   3.718   4.902  13.130  0.4420  1.1882 -0.2669
 6982TIP3    H245142   3.811   4.878  13.013  0.8529 -1.5108  0.5283
 6983TIP3   OH245143   2.699   6.421  12.431  0.2680 -0.2081  0.1618
 6983TIP3    H145144   2.790   6.450  12.433  0.3074 -0.3746  1.1243
 6983TIP3    H245145   2.676   6.406  12.522 -0.9586  0.5293  0.0009
 6984TIP3   OH245146   1.149   6.147  12.608 -0.0061 -0.4743  0.0171
 6984TIP3    H145147   1.164   6.161  12.702 -1.0341 -0.5674  0.2093
 6984TIP3    H245148   1.215   6.082  12.583 -0.2373 -1.0583  0.8583
 6985TIP3   OH245149   1.484   3.030  12.853 -0.6714 -0.8351 -0.0175
 6985TIP3    H145150   1.530   2.952  12.823 -0.3488 -1.4883  2.0126
 6985TIP3    H245151   1.468   3.014  12.946 -0.3782  1.6296  0.5227
 6986TIP3   OH245152   5.309   2.308  11.504  0.0176 -0.2729 -0.2118
 6986TIP3    H145153   5.283   2.391  11.546 -0.0258 -0.2551 -0.2743
 6986TIP3    H245154   5.402   2.299  11.525  0.1481  0.0477 -0.6347
 6987TIP3   OH245155   6.582   2.171  11.790 -0.0866 -0.2001 -0.4612
 6987TIP3    H145156   6.552   2.261  11.808 -0.2631 -0.4327  0.4511
 6987TIP3    H245157   6.559   2.122  11.869  1.6660 -0.6482 -0.1845
 6988TIP3   OH245158   1.273   2.849  13.470  0.2810 -0.2575  0.1020
 6988TIP3    H145159   1.242   2.775  13.523 -0.7030  0.3838  0.4432
 6988TIP3    H245160   1.201   2.912  13.472  0.5627  0.1444 -1.3188
 6989TIP3   OH245161   4.178   4.091  13.655  0.0076  0.1391  0.1744
 6989TIP3    H145162   4.243   4.112  13.722 -0.4243  2.9906 -0.1783
 6989TIP3    H245163   4.224   4.104  13.572 -0.2538 -0.6326 -0.1058
 6990TIP3   OH245164   4.165   2.921  12.936  0.0196 -0.3394  0.4030
 6990TIP3    H145165   4.135   2.833  12.962  1.1338 -1.0779 -0.7213
 6990TIP3    H245166   4.160   2.972  13.016 -2.8559 -0.7664  0.6299
 6991TIP3   OH245167   0.585   4.201  13.547 -0.1877 -0.2367 -0.7081
 6991TIP3    H145168   0.636   4.261  13.491 -1.3592  1.1708 -0.3400
 6991TIP3    H245169   0.630   4.204  13.631 -0.2583  0.1651 -0.6811
 6992TIP3   OH245170   7.995   1.522  12.212 -0.1488  0.1258 -0.5824
 6992TIP3    H145171   8.010   1.616  12.226  0.3140  0.0615 -0.6350
 6992TIP3    H245172   8.078   1.490  12.176 -0.5956 -0.1300 -1.4161
 6993TIP3   OH245173   0.144   3.051  13.286  0.2762 -0.0909  0.0282
 6993TIP3    H145174   0.235   3.022  13.297  1.2681  2.3892 -0.8425
 6993TIP3    H245175   0.151   3.133  13.237 -2.4409  0.3611  0.2380
 6994TIP3   OH245176   4.992   4.165  13.303  0.7845 -0.1983  0.0010
 6994TIP3    H145177   5.037   4.231  13.251  0.8080 -1.2975 -1.4604
 6994TIP3    H245178   5.015   4.082  13.260 -1.6010 -0.9064 -0.0414
 6995TIP3   OH245179   3.989   6.298  12.658 -0.2898 -0.4782 -0.3744
 6995TIP3    H145180   3.937   6.326  12.582  0.7459  2.8702 -0.0322
 6995TIP3    H245181   4.080   6.314  12.631  0.1778 -0.4944  1.1149
 6996TIP3   OH245182   4.867   5.821  13.404 -0.2892  0.4616  0.0998
 6996TIP3    H145183   4.832   5.834  13.492  1.2924 -1.3016  1.0512
 6996TIP3    H245184   4.959   5.846  13.411 -0.1448  0.2980 -1.0648
 6997TIP3   OH245185   7.551   0.127  12.265 -0.2126  0.1748  0.4666
 6997TIP3    H145186   7.631   0.120  12.213 -0.0081 -0.5098  0.8728
 6997TIP3    H245187   7.501   0.048  12.244  0.6474 -1.0099  2.5987
 6998TIP3   OH245188   6.351   6.278  12.288 -0.2346  0.3734  0.0576
 6998TIP3    H145189   6.270   6.246  12.249 -0.9445  0.0295  1.7058
 6998TIP3    H245190   6.410   6.290  12.214 -0.6348 -2.6797 -0.9055
 6999TIP3   OH245191   3.487   3.367  11.596  0.6106 -0.3904 -0.6566
 6999TIP3    H145192   3.403   3.414  11.593  0.6185 -0.3767 -0.6615
 6999TIP3    H245193   3.543   3.422  11.650  0.4735 -0.6303 -0.2662
 7000TIP3   OH245194   0.749   6.569  12.995 -0.3238 -0.4008 -0.6896
 7000TIP3    H145195   0.703   6.652  12.981  0.7285  0.2652 -0.2462
 7000TIP3    H245196   0.840   6.593  13.010  0.1079 -1.6810 -1.1000
 7001TIP3   OH245197   7.472   3.118  13.104 -0.1207 -0.2422  0.1209
 7001TIP3    H145198   7.438   3.154  13.186  1.2088  1.5823 -0.0727
 7001TIP3    H245199   7.399   3.123  13.043 -0.4879  0.4947  0.6024
 7002TIP3   OH245200   6.893   0.543  12.526 -0.0555  0.1572 -0.3357
 7002TIP3    H145201   6.975   0.589  12.511 -0.6345  1.1534 -0.5453
 7002TIP3    H245202   6.825   0.607  12.506 -0.8869 -0.3518  0.7188
 7003TIP3   OH245203   1.106   8.714  13.361  0.0065  0.4687 -0.3868
 7003TIP3    H145204   1.153   8.660  13.424  0.1836  0.4502 -0.5326
 7003TIP3    H245205   1.051   8.652  13.313 -0.3155  0.5171 -0.0849
 7004TIP3   OH245206   1.109   8.139  11.770 -0.1083 -0.4244 -0.1649
 7004TIP3    H145207   1.120   8.226  11.807 -0.0748  0.1579 -1.5033
 7004TIP3    H245208   1.170   8.084  11.820  2.0125  0.8691 -1.1800
 7005TIP3   OH245209   2.261   4.473  11.700 -0.1457 -0.4237 -0.0813
 7005TIP3    H145210   2.193   4.540  11.708  0.6472  0.4886 -0.7414
 7005TIP3    H245211   2.339   4.522  11.675  0.5509 -1.5600 -0.1679
 7006TIP3   OH245212   4.763   6.374  11.744 -0.3206  0.6755  0.6212
 7006TIP3    H145213   4.827   6.432  11.785  0.8341 -0.9913  1.3010
 7006TIP3    H245214   4.743   6.415  11.660  1.5358  1.3225  0.4574
 7007TIP3   OH245215   4.412   8.021  13.115 -0.4752  0.3200  0.1549
 7007TIP3    H145216   4.411   8.099  13.171  0.3955 -0.0800  0.7470
 7007TIP3    H245217   4.327   7.980  13.131 -0.5262  0.5958  0.6323
 7008TIP3   OH245218   4.935   1.850  12.878 -0.1762 -0.3195 -0.1915
 7008TIP3    H145219   4.961   1.934  12.916 -2.4846  0.6591 -0.5764
 7008TIP3    H245220   4.975   1.785  12.935 -1.5817  1.0891  2.6546
 7009TIP3   OH245221   1.391   4.248  12.142  0.2743 -0.3014 -0.3412
 7009TIP3    H145222   1.312   4.263  12.091 -0.2331 -2.3537 -0.2118
 7009TIP3    H245223   1.366   4.185  12.209  2.0938 -1.2638 -0.4962
 7010TIP3   OH245224   2.433   6.495  12.776 -0.7350  0.5019 -0.5484
 7010TIP3    H145225   2.457   6.536  12.859  1.0148  2.0609 -1.7413
 7010TIP3    H245226   2.338   6.488  12.779 -0.8413  1.9782  0.9525
 7011TIP3   OH245227   6.090   7.902  12.702  0.2379  0.1110 -0.2026
 7011TIP3    H145228   6.013   7.875  12.752  0.5757  1.8370  1.3675
 7011TIP3    H245229   6.163   7.857  12.744  0.0548 -2.5921 -2.5273
 7012TIP3   OH245230   5.502   3.905  12.347 -0.2488  0.1918 -0.1581
 7012TIP3    H145231   5.562   3.921  12.274  0.3775 -1.1539  0.0267
 7012TIP3    H245232   5.507   3.985  12.400  1.4434  0.1127 -0.1317
 7013TIP3   OH245233   9.072   7.456  11.900 -0.1806  0.6584 -0.0278
 7013TIP3    H145234   9.083   7.363  11.923  0.7110  0.1312 -2.3454
 7013TIP3    H245235   9.162   7.488  11.889 -0.4215  2.1534  1.8265
 7014TIP3   OH245236   4.703   5.182  13.591 -0.1211  0.2119  0.4222
 7014TIP3    H145237   4.639   5.242  13.630 -0.6344 -0.1569  0.1731
 7014TIP3    H245238   4.773   5.238  13.558 -1.5831  0.9237 -1.7319
 7015TIP3   OH245239   4.646   6.131  11.863  0.7476  0.0064 -0.5266
 7015TIP3    H145240   4.580   6.173  11.917 -1.2316 -2.0775 -1.1768
 7015TIP3    H245241   4.676   6.200  11.803 -2.7690  0.5058 -1.9257
 7016TIP3   OH245242   1.524   1.697  12.692  0.5793 -0.1277  0.0626
 7016TIP3    H145243   1.601   1.750  12.670  0.1015  0.2455 -0.7620
 7016TIP3    H245244   1.463   1.759  12.733  0.9717 -0.5658  1.3629
 7017TIP3   OH245245   7.933   7.584  11.929 -0.2080 -0.6239 -0.6856
 7017TIP3    H145246   8.003   7.641  11.960 -1.9172  0.5022  1.2938
 7017TIP3    H245247   7.980   7.509  11.890  2.1059 -0.2017  1.0274
 7018TIP3   OH245248   8.913   1.968  12.663  0.5446  0.4615 -0.7309
 7018TIP3    H145249   8.914   1.975  12.758 -0.6705  0.3875 -0.6965
 7018TIP3    H245250   8.824   1.941  12.641  0.5742  1.2441 -1.9418
 7019TIP3   OH245251   1.058   8.008  12.600 -0.0471  0.1402 -0.0031
 7019TIP3    H145252   0.974   7.997  12.644 -1.1870  0.1948 -2.0447
 7019TIP3    H245253   1.068   7.930  12.546  0.7633  0.5820 -0.5130
 7020TIP3   OH245254   1.620   1.591  11.487 -0.4392  0.7716 -0.2005
 7020TIP3    H145255   1.631   1.685  11.474 -1.7116  0.8499 -0.8952
 7020TIP3    H245256   1.526   1.577  11.477 -0.1327 -0.7405 -1.2774
 7021TIP3   OH245257   7.648   4.612  13.153  0.3324  0.5508  0.4538
 7021TIP3    H145258   7.658   4.705  13.173  2.6779  0.4565  0.0244
 7021TIP3    H245259   7.617   4.572  13.234  2.2409  1.2937  1.6084
 7022TIP3   OH245260   4.422   3.257  12.054  0.3494  0.2438  0.3962
 7022TIP3    H145261   4.394   3.252  12.146  1.0521 -0.7456  0.5793
 7022TIP3    H245262   4.413   3.167  12.022 -1.6928  0.9191 -1.0856
 7023TIP3   OH245263   5.209   1.189  11.705 -0.0991 -0.1119 -0.4373
 7023TIP3    H145264   5.253   1.135  11.639 -1.7563 -1.6853 -0.3278
 7023TIP3    H245265   5.136   1.136  11.734  0.6734  0.4258  2.8795
 7024TIP3   OH245266   0.257   8.050  13.286  0.3869 -0.5344 -0.1124
 7024TIP3    H145267   0.258   8.144  13.268  0.7284 -0.4894  0.1337
 7024TIP3    H245268   0.302   8.011  13.210  0.4805 -0.4764 -0.0870
 7025TIP3   OH245269   5.372   1.685  11.696 -0.6867 -0.0115 -0.7388
 7025TIP3    H145270   5.283   1.649  11.692 -0.5722 -0.4576  0.5793
 7025TIP3    H245271   5.426   1.623  11.647 -1.0874  0.2503 -1.5263
 7026TIP3   OH245272   5.021   8.124  11.953  0.1542 -0.5135  0.1640
 7026TIP3    H145273   5.082   8.198  11.948 -0.0317 -0.2209  1.7650
 7026TIP3    H245274   4.999   8.118  12.045 -4.3612  1.1231 -0.5651
 7027TIP3   OH245275   1.140   1.679  12.495  0.1074 -0.1859  0.2502
 7027TIP3    H145276   1.092   1.708  12.572  1.1246 -1.9560  1.6201
 7027TIP3    H245277   1.138   1.584  12.500 -0.5887 -0.3922 -2.4451
 7028TIP3   OH245278   5.376   8.732  12.787 -0.5307 -0.5094 -0.4718
 7028TIP3    H145279   5.381   8.806  12.727 -0.8560 -1.3893 -1.6033
 7028TIP3    H245280   5.433   8.666  12.749  0.6925 -0.4487  1.1404
 7029TIP3   OH245281   6.826   1.316  12.639  1.1950  0.5702 -0.1917
 7029TIP3    H145282   6.906   1.344  12.593  1.2844 -1.5703 -1.4816
 7029TIP3    H245283   6.814   1.381  12.707  3.1910  1.8174 -0.9274
 7030TIP3   OH245284   6.766   4.644  11.920  0.0848  0.5097  0.1644
 7030TIP3    H145285   6.852   4.603  11.910  0.4928  1.5931 -0.9825
 7030TIP3    H245286   6.704   4.573  11.905  0.7862 -0.0514 -0.1514
 7031TIP3   OH245287   4.320   7.078  13.057 -0.5365 -0.0570  0.3986
 7031TIP3    H145288   4.307   6.984  13.052  1.0812 -0.2654 -0.5573
 7031TIP3    H245289   4.261   7.107  13.126 -0.5907 -1.8597  1.1547
 7032TIP3   OH245290   7.547   8.595  12.136  0.4788 -0.2912  0.0388
 7032TIP3    H145291   7.554   8.529  12.068  1.6353 -1.4607  1.2375
 7032TIP3    H245292   7.468   8.571  12.185 -0.4573  0.6577 -0.9582
 7033TIP3   OH245293   3.558   4.442  12.654 -0.4617 -0.7431  0.4979
 7033TIP3    H145294   3.623   4.430  12.584 -0.9127  1.5070 -0.3706
 7033TIP3    H245295   3.611   4.452  12.733  0.1480 -1.2754  0.1710
 7034TIP3   OH245296   1.712   0.064  13.562 -0.1453 -0.1062  0.3693
 7034TIP3    H145297   1.700  -0.022  13.522 -0.9831  1.0011 -1.9362
 7034TIP3    H245298   1.624   0.089  13.590  0.0723  0.0876  0.8881
 7035TIP3   OH245299   6.005   7.573  12.834 -0.3851  0.2827 -0.1170
 7035TIP3    H145300   5.947   7.650  12.829  1.2902  1.6723  0.8119
 7035TIP3    H245301   5.979   7.530  12.916 -0.9729  0.1349 -0.3724
 7036TIP3   OH245302   2.661   0.896  12.241  0.6746 -0.0120 -0.2612
 7036TIP3    H145303   2.667   0.992  12.248 -0.0336  0.1441 -1.5285
 7036TIP3    H245304   2.624   0.868  12.325  0.7936  0.8395  0.0840
 7037TIP3   OH245305   1.557   1.704  13.202  0.6203  0.4802  0.6230
 7037TIP3    H145306   1.536   1.638  13.136 -2.2522  0.8763  1.0241
 7037TIP3    H245307   1.575   1.653  13.281  0.1697  0.1212  0.4967
 7038TIP3   OH245308   6.650   2.461  17.879  0.1894  0.0360 -0.4017
 7038TIP3    H145309   6.727   2.472  17.935  0.1894 -0.0823 -0.3774
 7038TIP3    H245310   6.659   2.528  17.812 -0.7049  1.3566  0.7316
 7039TIP3   OH245311   4.057   1.460  12.798 -0.3028  0.1936 -0.1946
 7039TIP3    H145312   3.992   1.428  12.860 -0.0511 -0.5650 -0.3179
 7039TIP3    H245313   4.007   1.510  12.733 -0.7210 -0.1295 -0.1195
 7040TIP3   OH245314   5.484   3.130  13.182  0.0178  1.2317  0.0409
 7040TIP3    H145315   5.495   3.036  13.191 -0.9822  0.9746 -1.2340
 7040TIP3    H245316   5.571   3.162  13.156  0.2286  0.5845 -0.0549
 7041TIP3   OH245317   3.982   7.872  11.732 -0.0832  0.6714 -0.4869
 7041TIP3    H145318   4.025   7.817  11.797 -0.1655 -1.5900 -2.2129
 7041TIP3    H245319   4.054   7.911  11.683  0.0221 -0.2362 -1.0790
 7042TIP3   OH245320   0.987   5.944  11.572  0.5067  0.5575  0.3322
 7042TIP3    H145321   1.074   5.910  11.592  0.8380  1.2685  0.1298
 7042TIP3    H245322   0.985   6.031  11.613 -0.4574  0.1590  1.1585
 7043TIP3   OH245323   2.434   4.815  12.028  0.4606  0.2322 -0.1053
 7043TIP3    H145324   2.421   4.882  11.961 -1.4168 -0.4713 -0.5077
 7043TIP3    H245325   2.508   4.763  11.997 -0.8207 -0.5405 -2.0584
 7044TIP3   OH245326   7.595   6.922  12.845  0.1124  0.6396 -0.1246
 7044TIP3    H145327   7.507   6.893  12.869 -0.0461  1.5925  0.5038
 7044TIP3    H245328   7.593   6.927  12.749 -0.3111  0.0144 -0.1509
 7045TIP3   OH245329   0.700   3.128  12.143  0.1020  0.6770  0.1899
 7045TIP3    H145330   0.657   3.055  12.098 -0.2983  2.0980 -1.8873
 7045TIP3    H245331   0.629   3.177  12.183  0.0683  1.3048 -0.6036
 7046TIP3   OH245332   4.282   4.152  12.544 -0.2905 -0.2832  0.7822
 7046TIP3    H145333   4.243   4.191  12.623  1.3759  1.7898  0.6762
 7046TIP3    H245334   4.298   4.227  12.486  1.9871 -1.2490  0.0485
 7047TIP3   OH245335   3.235   7.466  13.137  0.3228 -0.4332  0.9547
 7047TIP3    H145336   3.302   7.432  13.196  3.6412 -1.3655 -2.9023
 7047TIP3    H245337   3.173   7.394  13.127  2.5741 -2.2789 -0.5358
 7048TIP3   OH245338   8.865   7.016  12.315 -0.0940 -0.1831 -0.1659
 7048TIP3    H145339   8.888   6.969  12.395 -1.9639  1.8578  1.7166
 7048TIP3    H245340   8.791   6.967  12.278  1.1867 -1.4994 -1.0829
 7049TIP3   OH245341   4.459   0.927  13.220  0.0296  0.6934 -0.1236
 7049TIP3    H145342   4.529   0.877  13.178 -0.3459  0.4067 -0.4278
 7049TIP3    H245343   4.503   0.983  13.283  0.4360 -0.3452  0.5429
 7050TIP3   OH245344   8.685   0.945  13.055  0.4593 -0.7917  0.1632
 7050TIP3    H145345   8.711   0.859  13.088 -0.7635 -0.7797  1.2372
 7050TIP3    H245346   8.641   0.987  13.129 -1.3910 -0.3254 -1.1250
 7051TIP3   OH245347   6.555   1.066  11.522 -0.1501  0.5569  0.1377
 7051TIP3    H145348   6.561   1.075  11.617  1.3990 -0.4625  0.1817
 7051TIP3    H245349   6.466   1.036  11.505 -0.1589 -0.1501  1.3529
 7052TIP3   OH245350   3.130   7.098  12.523 -0.3496  0.6564  0.6745
 7052TIP3    H145351   3.185   7.119  12.448 -1.6186 -0.2528 -0.5444
 7052TIP3    H245352   3.062   7.166  12.522 -1.8934 -0.8356 -0.6241
 7053TIP3   OH245353   1.098   4.704  12.302 -0.6239 -0.7337  0.4485
 7053TIP3    H145354   1.030   4.734  12.362 -0.9730 -0.9846  0.1856
 7053TIP3    H245355   1.163   4.774  12.302  0.3821 -1.5497  2.6466
 7054TIP3   OH245356   4.453   2.189  12.653 -0.0170  0.9559  0.1046
 7054TIP3    H145357   4.360   2.214  12.650  0.2366  1.8704 -2.9692
 7054TIP3    H245358   4.499   2.262  12.612  1.9363 -0.1118  0.2912
 7055TIP3   OH245359   6.194   6.059  11.822  0.1277 -0.5135  0.5098
 7055TIP3    H145360   6.234   5.997  11.883 -1.0702 -0.6916  1.1416
 7055TIP3    H245361   6.111   6.082  11.863  0.6918  1.8135  0.4833
 7056TIP3   OH245362   4.668   6.034  12.708  0.4276  0.4208  0.2662
 7056TIP3    H145363   4.668   5.941  12.685 -0.7873  0.5467 -0.3303
 7056TIP3    H245364   4.756   6.051  12.741  0.6114 -0.9788  0.5454
 7057TIP3   OH245365   7.318   3.014  12.755  0.1809 -0.9026  0.0725
 7057TIP3    H145366   7.384   3.028  12.686 -0.3411 -0.3090 -0.3154
 7057TIP3    H245367   7.264   3.093  12.753  0.8126 -0.3854  1.9225
 7058TIP3   OH245368   0.149   1.258  12.565  0.4246 -0.4057 -0.0160
 7058TIP3    H145369   0.055   1.273  12.577  0.3480  0.4690 -1.4824
 7058TIP3    H245370   0.160   1.164  12.584 -0.5264 -0.2863  1.2655
 7059TIP3   OH245371   6.391   5.146  13.430  0.1316 -0.1799  0.3595
 7059TIP3    H145372   6.464   5.085  13.434  0.2374 -0.3566 -2.2649
 7059TIP3    H245373   6.431   5.233  13.435  0.3094 -0.3013  0.9990
 7060TIP3   OH245374   9.066   5.340  11.915 -0.3817 -0.0247  0.3977
 7060TIP3    H145375   9.133   5.403  11.941 -0.0238 -0.0569 -0.4194
 7060TIP3    H245376   8.988   5.392  11.899  0.2869  0.4373 -1.6752
 7061TIP3   OH245377   1.441   7.852  12.651  0.2433 -0.4247  0.3238
 7061TIP3    H145378   1.395   7.798  12.587  0.5385 -0.3137  0.0178
 7061TIP3    H245379   1.467   7.930  12.603  0.1652 -0.1853  0.6646
 7062TIP3   OH245380   6.069   2.242  11.985  0.0911  0.3202 -0.0612
 7062TIP3    H145381   6.060   2.304  11.913 -0.5439 -0.0045 -0.2609
 7062TIP3    H245382   6.163   2.243  12.005  0.7240 -1.4324 -2.5479
 7063TIP3   OH245383   7.417   9.068  12.554 -0.5972  0.1156 -0.8405
 7063TIP3    H145384   7.439   9.076  12.646  0.7749  0.1537 -1.1435
 7063TIP3    H245385   7.460   8.987  12.526 -0.2194  0.5721 -1.6434
 7064TIP3   OH245386   3.901   5.144  13.190 -0.2048  0.4086 -0.3797
 7064TIP3    H145387   3.869   5.060  13.158 -0.9341  0.1348  0.9832
 7064TIP3    H245388   3.857   5.156  13.274  2.0166  0.8194  0.8063
 7065TIP3   OH245389   2.819   4.899  12.369  0.3367 -0.5286  0.6200
 7065TIP3    H145390   2.823   4.831  12.301 -0.2303 -0.3206  0.3683
 7065TIP3    H245391   2.833   4.852  12.451  0.8857 -0.8070  0.3702
 7066TIP3   OH245392   2.708   1.145  11.908  0.5862  0.3848 -0.8708
 7066TIP3    H145393   2.713   1.232  11.868  1.2075 -0.2364 -2.2297
 7066TIP3    H245394   2.689   1.161  12.000  2.7483  2.0680 -0.6363
 7067TIP3   OH245395   8.245   2.061  12.991 -0.0849  0.1799 -0.2441
 7067TIP3    H145396   8.259   2.052  13.085 -1.0527 -0.3237 -0.1421
 7067TIP3    H245397   8.280   1.980  12.954 -0.6699 -0.0987 -0.2030
 7068TIP3   OH245398   6.471   1.329  12.429  0.0723 -0.1712 -0.0042
 7068TIP3    H145399   6.466   1.342  12.524 -1.5361 -0.7300  0.0124
 7068TIP3    H245400   6.401   1.383  12.393  1.4284  0.9980 -1.0206
 7069TIP3   OH245401   7.648   4.983  12.516  0.0129 -0.0956 -0.3968
 7069TIP3    H145402   7.597   4.928  12.575 -0.0594 -0.1219 -0.4862
 7069TIP3    H245403   7.585   5.044  12.478 -0.1583 -0.9092 -1.4324
 7070TIP3   OH245404   0.762   6.838  13.281 -0.1451 -0.0181  0.2557
 7070TIP3    H145405   0.848   6.803  13.257  1.0615  2.6899  0.2712
 7070TIP3    H245406   0.716   6.764  13.320  1.7058 -1.8743 -0.8542
 7071TIP3   OH245407   4.050   4.492  11.760 -0.4050  0.5464  0.1625
 7071TIP3    H145408   4.078   4.401  11.752 -0.8839  0.2290  1.6830
 7071TIP3    H245409   4.083   4.519  11.846 -3.0492  0.7365  1.2184
 7072TIP3   OH245410   3.245   6.606  12.350  0.2276 -0.0971  0.6266
 7072TIP3    H145411   3.253   6.680  12.411 -0.2012  0.3688  0.1331
 7072TIP3    H245412   3.333   6.567  12.347  0.3637  0.1653  1.1803
 7073TIP3   OH245413   5.680   5.530  11.999 -0.1634 -0.1140  0.6481
 7073TIP3    H145414   5.767   5.505  11.968 -0.6797  1.0777 -2.0648
 7073TIP3    H245415   5.626   5.452  11.983 -0.0524 -0.0867  0.1024
 7074TIP3   OH245416   9.157   7.327  12.344  0.2087  0.1489  0.1171
 7074TIP3    H145417   9.189   7.310  12.256 -1.0881  0.4966 -0.4444
 7074TIP3    H245418   9.079   7.382  12.331 -0.7074 -0.7807  1.4007
 7075TIP3   OH245419   4.591   9.124  13.168  0.6555 -0.0324  0.4990
 7075TIP3    H145420   4.659   9.163  13.222  0.7266 -0.0611  0.4293
 7075TIP3    H245421   4.578   9.037  13.204 -0.8678  0.7110  1.9048
 7076TIP3   OH245422   2.177   2.394  11.338 -0.2004 -0.2131 -0.4582
 7076TIP3    H145423   2.230   2.467  11.308  0.1336 -0.8340 -1.3914
 7076TIP3    H245424   2.216   2.369  11.422 -0.2959  0.6302 -0.1423
 7077TIP3   OH245425   5.642   4.098  13.607 -0.5906  0.1337  0.2829
 7077TIP3    H145426   5.628   4.015  13.562  0.2535 -0.6447  1.4176
 7077TIP3    H245427   5.554   4.135  13.616 -1.0462 -0.9129  0.2876
 7078TIP3   OH245428   4.829   2.332  12.782 -0.0962  0.1174 -0.1922
 7078TIP3    H145429   4.866   2.331  12.871  2.0828  0.1562 -1.0408
 7078TIP3    H245430   4.796   2.243  12.769  0.0270 -0.0329  0.4689
 7079TIP3   OH245431   8.231   1.520  11.810  0.1079 -0.1874  0.5923
 7079TIP3    H145432   8.283   1.535  11.889  0.4752  0.7503  0.1929
 7079TIP3    H245433   8.148   1.564  11.826  0.9999  2.0120 -0.3807
 7080TIP3   OH245434   8.976   5.674  12.087 -0.3947 -0.2529 -0.0637
 7080TIP3    H145435   8.959   5.641  12.176 -0.9927  1.1809  0.3879
 7080TIP3    H245436   9.067   5.702  12.089 -0.8878  1.4166  0.6838
 7081TIP3   OH245437   0.323   5.097  13.522  0.4455 -0.1138 -0.2847
 7081TIP3    H145438   0.410   5.134  13.538  1.2766 -1.8859 -0.4320
 7081TIP3    H245439   0.294   5.065  13.607  0.8976 -1.4186 -0.5930
 7082TIP3   OH245440   7.505   7.669  12.482  0.4501  0.2710 -0.6134
 7082TIP3    H145441   7.540   7.593  12.435  0.9795  0.7704 -1.0301
 7082TIP3    H245442   7.523   7.650  12.574  0.1213 -0.3412 -0.6698
 7083TIP3   OH245443   6.693   9.032  11.807  0.1290  0.2609  0.3195
 7083TIP3    H145444   6.723   9.096  11.871  0.9324  2.4362 -2.0547
 7083TIP3    H245445   6.705   9.075  11.722 -2.2753 -1.8411 -1.2635
 7084TIP3   OH245446   3.693   0.876  12.034  0.6640  0.5948  0.2885
 7084TIP3    H145447   3.621   0.830  11.990  0.2060  1.4581  0.1018
 7084TIP3    H245448   3.771   0.851  11.984  0.5268 -0.5156  0.6227
 7085TIP3   OH245449   5.928   1.978  12.315  0.6111  0.1152  0.2194
 7085TIP3    H145450   5.950   1.998  12.406 -1.6074 -0.6442  0.9861
 7085TIP3    H245451   5.839   1.941  12.319 -0.0023  1.0922 -2.3723
 7086TIP3   OH245452   8.320   7.273  11.883 -0.3500  0.2094 -0.0965
 7086TIP3    H145453   8.271   7.295  11.962 -1.3178 -1.0151 -0.3284
 7086TIP3    H245454   8.259   7.222  11.830  0.9237 -0.6726 -0.7638
 7087TIP3   OH245455   8.775   8.968  12.197 -0.1273 -0.3900  0.0775
 7087TIP3    H145456   8.754   9.061  12.184  0.3308 -0.0751  1.4140
 7087TIP3    H245457   8.699   8.921  12.163  0.1008  0.4043 -1.6582
 7088TIP3   OH245458   4.946   5.570  13.267  0.0733 -0.1628 -0.5044
 7088TIP3    H145459   5.019   5.540  13.321  0.7064  0.4689 -1.0040
 7088TIP3    H245460   4.923   5.656  13.303  0.3213  0.1408 -1.0564
 7089TIP3   OH245461   1.944   7.714  12.613  0.0490 -0.3320 -0.5226
 7089TIP3    H145462   1.934   7.645  12.679  1.0888  1.3753  1.5528
 7089TIP3    H245463   1.855   7.735  12.587 -0.4624 -0.5382  0.9558
 7090TIP3   OH245464   3.859   5.594  12.503  0.3230 -0.8535  0.6317
 7090TIP3    H145465   3.791   5.607  12.570  0.4907 -1.4175  0.9197
 7090TIP3    H245466   3.938   5.630  12.542  0.4588 -1.3411  0.8136
 7091TIP3   OH245467   4.668   5.886  13.218 -0.3903  0.9014  0.4231
 7091TIP3    H145468   4.688   5.825  13.147 -1.8710 -0.4052  1.0779
 7091TIP3    H245469   4.743   5.878  13.278  0.1892  0.9667 -0.2702
 7092TIP3   OH245470   7.767   2.642  13.234  0.2753 -0.1202  0.0589
 7092TIP3    H145471   7.768   2.735  13.257 -0.1484 -0.0601 -0.1652
 7092TIP3    H245472   7.805   2.639  13.146  1.5143 -0.3063  0.5770
 7093TIP3   OH245473   6.487   5.168  12.462  0.0820 -0.2979 -0.8222
 7093TIP3    H145474   6.488   5.132  12.373 -0.8180 -0.7744 -0.6505
 7093TIP3    H245475   6.537   5.249  12.455 -0.2518 -0.1607 -1.8368
 7094TIP3   OH245476   3.094   8.910  13.142  0.0297 -0.3466  0.7162
 7094TIP3    H145477   3.110   8.820  13.170 -0.5123 -0.9482 -0.8024
 7094TIP3    H245478   3.162   8.927  13.077 -0.6441 -0.1256  0.0574
 7095TIP3   OH245479   1.500   6.071  12.243 -0.1138 -0.1693 -0.4024
 7095TIP3    H145480   1.440   6.141  12.217 -1.2200 -1.0038 -0.2094
 7095TIP3    H245481   1.577   6.083  12.188 -1.0616  0.0763 -1.7252
 7096TIP3   OH245482   0.427   3.776  13.282  0.3059 -0.2415 -1.0027
 7096TIP3    H145483   0.332   3.767  13.293  0.2086  1.2779 -0.3996
 7096TIP3    H245484   0.450   3.853  13.334  1.9131 -0.7078 -0.9764
 7097TIP3   OH245485   5.198   0.471  11.789 -0.7045  0.1587 -0.0874
 7097TIP3    H145486   5.111   0.442  11.762  0.8497 -3.9965 -1.3008
 7097TIP3    H245487   5.253   0.460  11.711  1.5241 -0.3771  1.4649
 7098TIP3   OH245488   5.814   1.171  12.094 -0.3584  0.3973  0.3553
 7098TIP3    H145489   5.783   1.195  12.181 -0.0655 -0.0907  0.5944
 7098TIP3    H245490   5.767   1.090  12.073 -0.8117  0.7845 -0.1557
 7099TIP3   OH245491   3.804   8.319  13.048 -0.1318 -0.9463 -0.0529
 7099TIP3    H145492   3.881   8.263  13.061  0.5489 -0.2534 -1.0206
 7099TIP3    H245493   3.818   8.360  12.963 -0.8348  0.3639  0.4420
 7100TIP3   OH245494   3.157   7.051  12.872 -0.0083  0.6401 -0.0471
 7100TIP3    H145495   3.176   7.045  12.779 -0.2018  1.7714 -0.1699
 7100TIP3    H245496   3.159   6.960  12.903 -0.9673  0.1493 -1.3470
 7101TIP3   OH245497   7.522   3.429  11.783  0.5879  0.2421 -0.3448
 7101TIP3    H145498   7.603   3.427  11.835  0.8795 -0.9694 -0.8078
 7101TIP3    H245499   7.511   3.521  11.759  1.0660  0.6398  0.8950
 7102TIP3   OH245500   1.128   3.739  12.035  0.7641 -0.2207 -0.0630
 7102TIP3    H145501   1.197   3.733  11.970 -1.0088 -1.6685 -1.9348
 7102TIP3    H245502   1.121   3.651  12.072 -0.6959 -0.3684 -0.6241
 7103TIP3   OH245503   5.816   9.194  12.414 -0.2380 -0.1936  0.1055
 7103TIP3    H145504   5.747   9.127  12.416 -0.3154 -0.1057  0.6499
 7103TIP3    H245505   5.829   9.216  12.506  0.4746 -0.1589 -0.0047
 7104TIP3   OH245506   6.592   2.285  12.179  0.4556 -0.1309  0.6402
 7104TIP3    H145507   6.657   2.242  12.234 -0.5384 -0.3854  1.6694
 7104TIP3    H245508   6.634   2.367  12.152  1.1885 -0.2695  1.3162
 7105TIP3   OH245509   2.842   8.653  12.626  0.1647  0.0220 -0.4676
 7105TIP3    H145510   2.869   8.565  12.653  0.1156 -0.1618 -0.9914
 7105TIP3    H245511   2.773   8.637  12.561  2.6197  0.3313 -3.3371
 7106TIP3   OH245512   7.170   0.864  11.905  0.2367 -0.5472 -0.6462
 7106TIP3    H145513   7.218   0.820  11.975 -0.8369 -1.0256 -0.1836
 7106TIP3    H245514   7.183   0.957  11.922  0.1755 -0.6589  0.0661
 7107TIP3   OH245515   4.926   1.441  11.835  0.4150 -0.2129 -0.0115
 7107TIP3    H145516   4.932   1.449  11.930  0.1471 -0.4528  0.0258
 7107TIP3    H245517   4.832   1.436  11.816  0.4971 -2.3126 -0.1026
 7108TIP3   OH245518   0.739   1.130  12.244  0.2361 -0.3642  0.4093
 7108TIP3    H145519   0.787   1.047  12.241  1.7196  0.4033  1.3814
 7108TIP3    H245520   0.804   1.197  12.221 -0.8765  0.5625 -0.1665
 7109TIP3   OH245521   6.305   1.876  13.115 -0.0051  0.3958 -0.3651
 7109TIP3    H145522   6.292   1.970  13.107 -0.4498  0.5102  1.4120
 7109TIP3    H245523   6.390   1.860  13.073  0.1761  1.6128 -0.4877
 7110TIP3   OH245524   0.131   5.891  13.836  0.2665  0.3422  0.0173
 7110TIP3    H145525   0.113   5.951  13.908 -1.1544 -0.1902  0.1499
 7110TIP3    H245526   0.176   5.817  13.876 -0.1565  0.2314  0.2936
 7111TIP3   OH245527   0.822   4.296  13.062 -0.5221  0.6036 -0.1109
 7111TIP3    H145528   0.815   4.238  12.986  2.8991 -1.0282  0.6210
 7111TIP3    H245529   0.780   4.247  13.133  0.1865  0.1157 -0.0225
 7112TIP3   OH245530   5.995   3.433  12.184 -0.5871 -0.4330  0.0444
 7112TIP3    H145531   5.922   3.494  12.195 -1.3072 -1.3218  0.2868
 7112TIP3    H245532   6.073   3.484  12.209 -1.3947 -0.2327  2.3383
 7113TIP3   OH245533   4.520   4.497  12.428  0.1036  0.0714  0.9606
 7113TIP3    H145534   4.442   4.447  12.405 -0.1911  0.4460  1.1233
 7113TIP3    H245535   4.583   4.478  12.358 -0.0183 -0.4849  1.0044
 7114TIP3   OH245536   1.012   3.268  12.838 -0.0994 -0.2094  0.5381
 7114TIP3    H145537   1.103   3.281  12.866  0.3997  0.1462 -1.1068
 7114TIP3    H245538   1.017   3.199  12.772 -0.7114  1.0520 -0.8993
 7115TIP3   OH245539   2.174   8.135  11.886  0.1912  0.3044  0.7973
 7115TIP3    H145540   2.207   8.222  11.864 -1.5978  0.7693 -0.1507
 7115TIP3    H245541   2.254   8.082  11.897  1.2740  1.5286 -0.7448
 7116TIP3   OH245542   8.729   6.727  12.892  0.7460 -0.1060  0.4118
 7116TIP3    H145543   8.702   6.802  12.945  1.3482  0.4731 -0.0834
 7116TIP3    H245544   8.775   6.670  12.952  0.0374 -0.2179  0.8576
 7117TIP3   OH245545   8.294   8.267  11.898 -0.3960 -0.0151  0.2091
 7117TIP3    H145546   8.206   8.291  11.871 -0.3494 -0.0821 -0.0059
 7117TIP3    H245547   8.328   8.345  11.941  0.5496  1.1347 -2.3949
 7118TIP3   OH245548   2.463   8.852  12.531  0.5887  0.3820  0.0538
 7118TIP3    H145549   2.469   8.943  12.503  0.1665  0.3237 -0.2358
 7118TIP3    H245550   2.473   8.855  12.626 -0.1165  0.8090  0.1263
 7119TIP3   OH245551   8.754   1.858  12.074 -0.2291 -0.1616 -0.8919
 7119TIP3    H145552   8.666   1.895  12.077 -0.1359  0.0261 -0.3097
 7119TIP3    H245553   8.766   1.831  11.983 -0.1406  1.6069 -1.4260
 7120TIP3   OH245554   0.392   4.867  13.400 -0.1840 -0.0580 -0.6620
 7120TIP3    H145555   0.348   4.798  13.449 -0.9242 -0.6169 -2.0633
 7120TIP3    H245556   0.379   4.946  13.452 -2.2455 -0.3549 -0.6696
 7121TIP3   OH245557   3.970   7.852  12.442  0.5023 -0.2126 -0.1393
 7121TIP3    H145558   3.993   7.907  12.367  0.4118 -0.9001 -0.6755
 7121TIP3    H245559   3.878   7.830  12.427  0.8171 -1.3736 -0.4879
 7122TIP3   OH245560   3.424   6.931  12.980 -0.5783  0.5065  0.2254
 7122TIP3    H145561   3.393   7.020  12.964  0.4843  0.7208 -0.7334
 7122TIP3    H245562   3.480   6.911  12.906  0.9521 -0.1518  1.5045
 7123TIP3   OH245563   5.474   3.677  12.016  0.4005 -0.2895 -0.3797
 7123TIP3    H145564   5.561   3.641  12.036  0.1558  0.1650  1.6590
 7123TIP3    H245565   5.478   3.768  12.046 -0.6656 -0.1418 -0.6385
 7124TIP3   OH245566   6.422   2.565  13.239 -0.4064  0.3446  0.5481
 7124TIP3    H145567   6.369   2.626  13.188  0.1303  0.3838  0.0177
 7124TIP3    H245568   6.511   2.577  13.205 -0.0595  0.2574  1.3898
 7125TIP3   OH245569   8.352   5.835  13.854  0.5635 -0.8536 -0.2864
 7125TIP3    H145570   8.321   5.756  13.899  0.4736  0.0370  1.2475
 7125TIP3    H245571   8.304   5.834  13.770 -0.4668 -1.7027  0.2855
 7126TIP3   OH245572   8.436   3.187  12.128  0.3183  0.4433 -0.2767
 7126TIP3    H145573   8.397   3.232  12.053  1.6132  1.4592 -0.3685
 7126TIP3    H245574   8.507   3.244  12.157  1.7521 -1.3025 -0.1288
 7127TIP3   OH245575   1.695   8.031  13.018 -0.3382 -0.5495 -0.1479
 7127TIP3    H145576   1.637   8.011  12.945  1.1112 -0.8456 -1.2556
 7127TIP3    H245577   1.696   8.127  13.022 -0.8679 -0.5428 -0.1399
 7128TIP3   OH245578   8.472   1.173  14.081  0.2367  0.5017  0.0890
 7128TIP3    H145579   8.514   1.113  14.019  0.9688 -0.1021  1.1383
 7128TIP3    H245580   8.416   1.117  14.134 -0.2913  0.9959  0.0609
 7129TIP3   OH245581   7.031   8.230  12.359 -0.3021  0.1271  0.4865
 7129TIP3    H145582   7.023   8.239  12.454  0.9341 -1.8159  0.8218
 7129TIP3    H245583   7.095   8.161  12.347  0.6215  1.2862 -1.8032
 7130TIP3   OH245584   2.823   6.715  13.154  0.0485  0.8055  0.3983
 7130TIP3    H145585   2.767   6.736  13.229  0.8609  2.3655  0.6199
 7130TIP3    H245586   2.880   6.645  13.186 -2.2447 -1.4208 -0.1037
 7131TIP3   OH245587   7.324   7.141  12.875  0.3361 -0.0229  0.2052
 7131TIP3    H145588   7.277   7.101  12.948  0.5086  1.6701  1.2951
 7131TIP3    H245589   7.399   7.184  12.916  1.2373 -0.2437 -1.1621
 7132TIP3   OH245590   4.226   0.822  13.315 -0.0900 -0.1922 -0.4140
 7132TIP3    H145591   4.257   0.733  13.302  0.0587 -0.0390 -1.2007
 7132TIP3    H245592   4.303   0.877  13.300  0.4021 -0.0008  2.3146
 7133TIP3   OH245593   7.378   1.179  12.931 -0.0213  0.3383  0.0778
 7133TIP3    H145594   7.380   1.227  13.014  0.4037 -0.0801  0.3148
 7133TIP3    H245595   7.359   1.246  12.865 -2.0468  0.4273  0.6718
 7134TIP3   OH245596   7.093   2.235  12.002  0.2356  0.0739 -0.0891
 7134TIP3    H145597   7.112   2.281  12.084  0.1988  0.6532 -0.4027
 7134TIP3    H245598   7.006   2.265  11.977 -0.4318 -1.3147  0.4762
 7135TIP3   OH245599   0.458   0.025  12.020  0.0855 -0.0825  0.2684
 7135TIP3    H145600   0.376   0.006  12.066  0.8831  0.6905  2.1294
 7135TIP3    H245601   0.479   0.115  12.046  1.1645 -0.0061 -0.7771
 7136TIP3   OH245602   3.846   4.229  11.508  0.1738 -0.1036  0.2706
 7136TIP3    H145603   3.843   4.134  11.524 -0.3466  0.1198  1.6383
 7136TIP3    H245604   3.770   4.246  11.452 -0.2914 -0.3877  0.7929
 7137TIP3   OH245605   1.336   7.194  12.146 -0.5943  0.5659 -0.2083
 7137TIP3    H145606   1.398   7.121  12.150 -0.5025  0.6387 -0.3095
 7137TIP3    H245607   1.363   7.244  12.069 -1.5200 -0.0753 -0.9798
 7138TIP3   OH245608   2.915   1.867  11.742  0.5211  0.0804  0.2528
 7138TIP3    H145609   2.852   1.826  11.801 -0.0123  2.0017  1.0791
 7138TIP3    H245610   2.866   1.885  11.662  0.7440 -0.7904 -0.0945
 7139TIP3   OH245611   9.046   0.773  12.234  0.5733  0.1845  0.0978
 7139TIP3    H145612   9.087   0.688  12.216 -0.1708 -0.0902 -0.3362
 7139TIP3    H245613   8.997   0.759  12.315  2.3629  0.8840  1.3598
 7140TIP3   OH245614   7.516   9.139  12.819  0.5004  0.0132 -0.6287
 7140TIP3    H145615   7.607   9.165  12.807  0.8132  0.1701  1.6428
 7140TIP3    H245616   7.467   9.221  12.814  0.8331  0.3315  0.8626
 7141TIP3   OH245617   7.198   1.456  11.902 -0.5576  0.5034 -0.0711
 7141TIP3    H145618   7.247   1.472  11.821 -0.9403 -1.0085 -0.6405
 7141TIP3    H245619   7.113   1.497  11.887 -1.8609 -2.5112 -1.8775
 7142TIP3   OH245620   5.001   6.039  12.888 -0.0588  0.8118 -0.0878
 7142TIP3    H145621   4.996   6.079  12.801 -2.3501  1.0038  0.0690
 7142TIP3    H245622   4.925   6.073  12.935 -0.4921 -1.4506  1.0264
 7143TIP3   OH245623   2.622   4.546  11.839 -0.2028 -0.0143  0.0757
 7143TIP3    H145624   2.692   4.544  11.904 -0.4472 -1.5405  0.3295
 7143TIP3    H245625   2.584   4.459  11.842 -1.3033  0.4007 -0.9552
 7144TIP3   OH245626   5.283   3.279  13.313  0.4640 -0.2774  0.2820
 7144TIP3    H145627   5.346   3.224  13.267  1.3352 -0.8277  2.0170
 7144TIP3    H245628   5.264   3.351  13.253  0.8619 -1.4047 -1.2351
 7145TIP3   OH245629   3.983   2.278  12.951  0.2716 -0.3291  0.5048
 7145TIP3    H145630   4.005   2.260  13.043  1.4287 -0.0477  0.2981
 7145TIP3    H245631   4.041   2.221  12.901  0.0626 -0.0432 -0.0638
 7146TIP3   OH245632   3.375   4.601  11.580 -0.1951  0.2984 -0.8955
 7146TIP3    H145633   3.449   4.617  11.639 -1.3649 -1.1162  1.0760
 7146TIP3    H245634   3.314   4.672  11.600 -1.0753 -0.8054  0.4917
 7147TIP3   OH245635   3.045   4.560  11.673  0.0858  0.3283 -0.1373
 7147TIP3    H145636   3.021   4.519  11.590 -3.6523  1.3566  0.2277
 7147TIP3    H245637   3.082   4.644  11.649  0.1193  0.1343 -0.7805
 7148TIP3   OH245638   6.390   3.342  12.971 -0.4388  0.3502  0.2307
 7148TIP3    H145639   6.307   3.364  13.012 -0.3894 -0.1672  0.6111
 7148TIP3    H245640   6.457   3.375  13.032 -0.3591 -1.1145  0.9825
 7149TIP3   OH245641   0.180   3.349  12.153  0.1178 -0.2077  0.4712
 7149TIP3    H145642   0.259   3.389  12.117 -0.5431 -0.8596 -1.8302
 7149TIP3    H245643   0.129   3.423  12.188  1.4924  0.2577  1.5789
 7150TIP3   OH245644   6.413   8.936  12.117 -0.6103 -0.0327  0.2543
 7150TIP3    H145645   6.490   8.951  12.170  0.0069  0.2572 -0.6971
 7150TIP3    H245646   6.347   8.904  12.178 -0.1006  0.8292  1.2844
 7151TIP3   OH245647   5.352   7.799  12.292  0.1778  0.5910  0.0047
 7151TIP3    H145648   5.260   7.779  12.308  0.0389  0.7616 -0.5820
 7151TIP3    H245649   5.351   7.869  12.227  0.7445 -0.4422 -1.1495
 7152TIP3   OH245650   7.452   2.591  12.187 -0.1688  0.3346 -0.6191
 7152TIP3    H145651   7.471   2.628  12.273 -2.2666  0.9803 -0.3832
 7152TIP3    H245652   7.528   2.613  12.133  0.4166  1.4169  0.6157
 7153TIP3   OH245653   5.816   7.516  13.045  0.3506  0.4696  0.5135
 7153TIP3    H145654   5.855   7.488  13.128 -0.7061 -0.8642  0.5913
 7153TIP3    H245655   5.782   7.604  13.063  2.0190  1.0799  0.8434
 7154TIP3   OH245656   8.841   1.798  13.640 -0.3534 -0.6132 -0.1883
 7154TIP3    H145657   8.897   1.749  13.700 -2.5911 -0.1207  2.5357
 7154TIP3    H245658   8.781   1.732  13.605  0.7762 -0.8507 -1.8117
 7155TIP3   OH245659   3.227   0.725  12.870  0.1764 -0.2353  0.2439
 7155TIP3    H145660   3.253   0.725  12.963  1.1087 -1.7074  0.0179
 7155TIP3    H245661   3.310   0.721  12.822 -0.3401 -2.2231 -0.5710
 7156TIP3   OH245662   2.293   6.523  12.267 -0.2007 -0.1839  0.3776
 7156TIP3    H145663   2.255   6.454  12.213  2.2754 -2.1798  1.0071
 7156TIP3    H245664   2.298   6.485  12.355 -0.7153  1.6206  1.2254
 7157TIP3   OH245665   8.554   8.628  12.342  0.7930 -0.5152  0.1958
 7157TIP3    H145666   8.606   8.556  12.377  1.2399 -0.1252  0.3550
 7157TIP3    H245667   8.575   8.702  12.399  1.2915  0.0520 -0.7008
 7158TIP3   OH245668   9.197   6.748  12.657  0.1159 -0.1807  0.5362
 7158TIP3    H145669   9.161   6.678  12.711  0.0008 -1.1364 -0.7317
 7158TIP3    H245670   9.257   6.795  12.716 -2.8215  1.2611  2.6102
 7159TIP3   OH245671   9.135   4.312  12.132 -0.3057 -0.1512 -0.5496
 7159TIP3    H145672   9.193   4.315  12.209  0.2752  0.0619 -0.9844
 7159TIP3    H245673   9.057   4.266  12.162 -0.0938 -0.0437  0.1764
 7160TIP3   OH245674   4.482   8.881  12.012  0.7664  0.3265  0.3823
 7160TIP3    H145675   4.406   8.827  11.991  0.7182  0.8325 -0.8081
 7160TIP3    H245676   4.445   8.965  12.038  0.9207  0.7747 -0.8083
 7161TIP3   OH245677   4.243   5.595  13.102 -0.2132 -0.4196 -0.1398
 7161TIP3    H145678   4.294   5.650  13.162  0.1805 -0.8654 -0.0559
 7161TIP3    H245679   4.168   5.567  13.153  0.2360 -0.9819  0.2272
 7162TIP3   OH245680   3.122   4.709  12.827 -0.4909 -0.2290 -0.2446
 7162TIP3    H145681   3.079   4.759  12.896  1.2064 -0.6560  1.2050
 7162TIP3    H245682   3.050   4.665  12.781 -1.7421  0.7901  0.6675
 7163TIP3   OH245683   1.314   3.003  12.229  0.0073 -0.3934  0.0557
 7163TIP3    H145684   1.268   2.926  12.196  1.8110 -2.0194  1.1336
 7163TIP3    H245685   1.321   2.988  12.324  2.2791 -0.0189 -0.0054
 7164TIP3   OH245686   6.863   0.477  12.117 -0.2194  0.3488  0.3467
 7164TIP3    H145687   6.851   0.572  12.126 -0.0502  0.6539 -2.1122
 7164TIP3    H245688   6.795   0.450  12.055  0.9152 -0.8086 -0.4442
 7165TIP3   OH245689   2.398   0.562  12.965  0.0802  0.3736  0.2525
 7165TIP3    H145690   2.481   0.516  12.979  1.2292  2.6452  1.4215
 7165TIP3    H245691   2.332   0.504  13.003  0.8423 -2.1459 -1.9109
 7166TIP3   OH245692   7.134   8.859  12.625  0.4790  0.4964 -0.2993
 7166TIP3    H145693   7.136   8.946  12.584 -0.2704  0.9868  0.6674
 7166TIP3    H245694   7.043   8.830  12.614  0.9444 -0.6382 -1.5170
 7167TIP3   OH245695   2.747   4.860  11.879 -0.0678  0.2900  0.2456
 7167TIP3    H145696   2.751   4.858  11.784  0.5920  1.4304  0.2348
 7167TIP3    H245697   2.681   4.927  11.899  0.3268  0.5738  0.6006
 7168TIP3   OH245698   7.023   6.550  12.381 -0.0127  0.8654 -0.1890
 7168TIP3    H145699   7.041   6.457  12.369  2.0522  1.0341  0.9989
 7168TIP3    H245700   7.045   6.566  12.473 -0.0983  2.5816 -0.4432
 7169TIP3   OH245701   6.127   8.317  12.742 -0.4093 -0.6068 -0.4373
 7169TIP3    H145702   6.138   8.287  12.832 -0.9692 -0.6900 -0.3924
 7169TIP3    H245703   6.191   8.388  12.732  0.1349 -1.0506 -0.1907
 7170TIP3   OH245704   3.343   0.263  12.880  0.4667 -0.3334 -0.1413
 7170TIP3    H145705   3.293   0.243  12.959  0.4714  0.0765 -0.0300
 7170TIP3    H245706   3.394   0.184  12.863  1.3884 -0.0058  0.9664
 7171TIP3   OH245707   2.771   0.072  13.329 -0.1949  0.7451  0.3991
 7171TIP3    H145708   2.774   0.144  13.393  0.0136 -0.0226  1.2812
 7171TIP3    H245709   2.677   0.058  13.313 -0.2253  1.5978 -0.2440
 7172TIP3   OH245710   6.564   5.847  12.533 -0.9215 -0.3718  0.2240
 7172TIP3    H145711   6.542   5.925  12.584  1.5510  1.0006 -0.5946
 7172TIP3    H245712   6.500   5.844  12.463 -0.6847  1.3621 -0.1041
 7173TIP3   OH245713   5.858   0.076  12.683 -0.2220  0.5665 -0.4683
 7173TIP3    H145714   5.904   0.143  12.733  0.1371  0.0568 -0.1039
 7173TIP3    H245715   5.783   0.053  12.737 -0.1395  0.4092 -0.4200
 7174TIP3   OH245716   0.329   4.664  11.721 -0.6444 -0.0291  0.1614
 7174TIP3    H145717   0.422   4.658  11.740 -0.8819  0.7613  1.7249
 7174TIP3    H245718   0.321   4.738  11.661 -0.3814  0.7971  1.1154
 7175TIP3   OH245719   8.178   1.501  11.404 -0.2526 -0.0850  0.2895
 7175TIP3    H145720   8.084   1.513  11.419 -0.0898  0.5500  0.8286
 7175TIP3    H245721   8.204   1.434  11.468 -0.3703 -0.4033  0.0084
 7176TIP3   OH245722   4.289   3.699  12.498 -0.3534  0.3071 -0.7727
 7176TIP3    H145723   4.208   3.690  12.447 -1.0731  0.3374  0.3378
 7176TIP3    H245724   4.288   3.790  12.529 -0.3640  0.0497  0.0042
 7177TIP3   OH245725   3.029   4.382  12.984 -0.4123 -0.1010 -0.2249
 7177TIP3    H145726   2.979   4.422  12.913  0.0249 -0.2818 -0.6491
 7177TIP3    H245727   3.092   4.325  12.939 -0.8019 -1.0052  0.3475
 7178TIP3   OH245728   6.692   3.777  12.965 -0.2830  0.3970 -0.0897
 7178TIP3    H145729   6.689   3.873  12.964  3.1226  0.6332 -0.5700
 7178TIP3    H245730   6.753   3.755  12.895 -0.0343 -2.0635  0.8250
 7179TIP3   OH245731   1.358   1.045  13.060 -0.4622  0.4674  0.3579
 7179TIP3    H145732   1.263   1.030  13.054 -0.1894 -0.8557 -2.1570
 7179TIP3    H245733   1.369   1.137  13.037 -1.1993  0.9293  1.7925
 7180TIP3   OH245734   6.894   0.741  12.173  0.0982 -0.3196 -0.3802
 7180TIP3    H145735   6.834   0.803  12.133 -1.0008  0.8679  2.7737
 7180TIP3    H245736   6.981   0.767  12.141 -0.7725 -0.5048 -3.0843
 7181TIP3   OH245737   2.505   8.651  13.052 -0.1733  0.5805 -0.1728
 7181TIP3    H145738   2.576   8.587  13.059  0.7724  1.5940 -0.1772
 7181TIP3    H245739   2.448   8.616  12.983  0.9788  0.3343 -1.0391
 7182TIP3   OH245740   0.305   6.607  13.382  0.0740  0.3769  0.2328
 7182TIP3    H145741   0.250   6.673  13.338 -1.7009 -1.0095  0.2878
 7182TIP3    H245742   0.243   6.546  13.421  1.6748 -0.8684  0.9240
 7183TIP3   OH245743   5.214   5.194  11.833  0.3927  0.5014  0.3333
 7183TIP3    H145744   5.153   5.251  11.786  0.6460  1.9013  1.6303
 7183TIP3    H245745   5.282   5.174  11.769 -1.1761 -0.7789 -1.0336
 7184TIP3   OH245746   5.098   0.427  13.016 -0.3148 -0.0305  0.3198
 7184TIP3    H145747   5.115   0.344  12.972 -1.5590  1.2132 -2.8331
 7184TIP3    H245748   5.004   0.425  13.035 -0.4827  0.8078 -0.3238
 7185TIP3   OH245749   8.270   3.895  11.899  0.1114 -0.6525  0.2193
 7185TIP3    H145750   8.241   3.869  11.812 -1.7395  0.2717  0.5134
 7185TIP3    H245751   8.200   3.865  11.957  0.4678  0.3240  1.1694
 7186TIP3   OH245752   0.815   5.049  13.563 -0.2221 -0.3656  0.1821
 7186TIP3    H145753   0.767   4.977  13.604  1.4130 -1.2748  0.5368
 7186TIP3    H245754   0.847   5.101  13.637 -1.1967  0.6280 -0.0656
 7187TIP3   OH245755   3.778   4.492  11.764  0.3663 -0.6841 -0.1835
 7187TIP3    H145756   3.714   4.441  11.716 -0.9494  0.5394  0.1939
 7187TIP3    H245757   3.862   4.473  11.721 -0.4875 -1.0328 -1.7498
 7188TIP3   OH245758   2.595   4.467  12.156  0.0748 -0.1627 -0.2473
 7188TIP3    H145759   2.559   4.378  12.159  0.1092 -0.1464  1.1437
 7188TIP3    H245760   2.683   4.459  12.193 -0.5542  0.7162  1.5482
 7189TIP3   OH245761   8.390   5.617  12.386 -0.0610 -0.2369  0.9181
 7189TIP3    H145762   8.371   5.548  12.323  1.2311 -0.0746  0.3009
 7189TIP3    H245763   8.315   5.675  12.382 -1.0814 -1.4887  1.3023
 7190TIP3   OH245764   8.665   1.918  12.794  0.5439 -0.6224 -0.3793
 7190TIP3    H145765   8.575   1.905  12.824  1.5026 -1.3854  2.5179
 7190TIP3    H245766   8.661   1.999  12.743 -1.5725  0.1649  0.8779
 7191TIP3   OH245767   2.680   8.821  12.338  0.2251  0.0681 -0.7034
 7191TIP3    H145768   2.715   8.910  12.341 -0.4928  0.3346 -0.1353
 7191TIP3    H245769   2.597   8.826  12.385 -0.7780 -0.4723 -2.3220
 7192TIP3   OH245770   7.663   3.504  12.063 -0.2285  0.9042  0.0813
 7192TIP3    H145771   7.748   3.461  12.073 -0.2247  1.0990  0.9260
 7192TIP3    H245772   7.633   3.520  12.152  0.3376  3.7946 -0.1276
 7193TIP3   OH245773   5.038   1.174  11.959  0.1118 -0.7964  0.0667
 7193TIP3    H145774   5.112   1.159  12.018  0.2094  2.1445  0.8560
 7193TIP3    H245775   5.054   1.261  11.922 -2.2675 -0.6313 -0.7508
 7194TIP3   OH245776   8.054   5.744  11.978 -0.2946 -0.2162  0.3727
 7194TIP3    H145777   8.103   5.661  11.974  0.0804  0.0475 -1.9704
 7194TIP3    H245778   7.971   5.725  11.935 -0.5545  0.4426  0.5696
 7195TIP3   OH245779   0.879   6.777  13.566 -0.1971  0.0977  0.4425
 7195TIP3    H145780   0.961   6.758  13.612  1.9188  1.8612 -2.2659
 7195TIP3    H245781   0.849   6.693  13.534  1.2751 -0.4660  0.4499
 7196TIP3   OH245782   3.912   4.109  13.501  0.2870 -0.0864  0.0708
 7196TIP3    H145783   3.997   4.080  13.471  0.1313  0.2573 -0.7340
 7196TIP3    H245784   3.905   4.076  13.591  1.8613  1.0902  0.6769
 7197TIP3   OH245785   3.515   5.424  13.202  0.6753 -0.2809 -0.0879
 7197TIP3    H145786   3.586   5.465  13.251  2.5705 -2.7531 -0.6026
 7197TIP3    H245787   3.442   5.485  13.211  3.0250  2.7764 -0.1922
 7198TIP3   OH245788   6.347   3.261  12.332  0.3266 -0.4264  0.1421
 7198TIP3    H145789   6.354   3.173  12.369  1.6306  0.4296  2.1281
 7198TIP3    H245790   6.341   3.247  12.238  0.3578 -2.6337  0.4085
 7199TIP3   OH245791   0.985   1.945  13.350 -0.2040 -0.8997  0.3878
 7199TIP3    H145792   0.986   1.850  13.360  1.4596 -1.0884 -0.9942
 7199TIP3    H245793   0.893   1.968  13.335 -1.0299 -1.9226  3.2915
 7200TIP3   OH245794   8.737   4.916  12.587  0.4375 -0.2030  0.5351
 7200TIP3    H145795   8.780   4.986  12.536  1.8150 -1.0256  0.5215
 7200TIP3    H245796   8.738   4.949  12.677 -2.3587  1.4318  0.0822
 7201TIP3   OH245797   6.642   7.676  13.096 -0.2621  0.2045  0.0389
 7201TIP3    H145798   6.559   7.721  13.081 -0.1558 -0.3697 -2.7816
 7201TIP3    H245799   6.617   7.584  13.108 -0.1534  0.3041  1.0474
 7202TIP3   OH245800   4.987   5.135  12.139  0.6333  0.9891  0.2244
 7202TIP3    H145801   4.982   5.058  12.082 -0.7526  0.4590  1.0342
 7202TIP3    H245802   5.034   5.200  12.086  0.3836  0.1422 -1.0930
 7203TIP3   OH245803   3.478   5.260  12.800 -0.6818 -0.9684  0.2278
 7203TIP3    H145804   3.545   5.284  12.864 -0.5078  0.6364 -0.5005
 7203TIP3    H245805   3.513   5.290  12.716 -2.5571  0.5912 -0.0841
 7204TIP3   OH245806   5.129   5.050  13.505  0.1295 -0.4622 -0.4617
 7204TIP3    H145807   5.143   5.036  13.412 -0.4173  0.0586 -0.6268
 7204TIP3    H245808   5.034   5.056  13.515  0.2262  1.7119 -0.2246
 7205TIP3   OH245809   8.729   1.130  12.590  0.1574 -0.0747  0.1478
 7205TIP3    H145810   8.794   1.064  12.566 -0.6263 -0.8624  0.1278
 7205TIP3    H245811   8.653   1.079  12.618 -0.4013  0.8281  0.2983
 7206TIP3   OH245812   6.358   0.507  12.051  0.1107 -0.3043  0.1072
 7206TIP3    H145813   6.332   0.554  12.130  1.3322  2.1698 -0.8608
 7206TIP3    H245814   6.438   0.552  12.021  0.6364 -2.2197 -1.6268
 7207TIP3   OH245815   9.170   3.762  11.629 -0.3367 -0.3695 -0.1332
 7207TIP3    H145816   9.083   3.722  11.629 -0.1565 -0.7653 -0.0760
 7207TIP3    H245817   9.171   3.817  11.708 -0.2254 -1.0587  0.3549
 7208TIP3   OH245818   3.558   8.965  12.234  0.4301 -0.2116 -0.1199
 7208TIP3    H145819   3.575   9.036  12.296 -1.4322  0.5060 -0.3563
 7208TIP3    H245820   3.644   8.940  12.202  1.2127  1.3252  0.6539
 7209TIP3   OH245821   8.207   6.821  12.428 -0.5147  0.1657  0.3168
 7209TIP3    H145822   8.265   6.823  12.504 -0.6189 -0.6630  0.4304
 7209TIP3    H245823   8.263   6.797  12.354 -0.8676 -1.7541  0.6150
 7210TIP3   OH245824   1.729   7.020  12.930 -0.0304 -0.2473  0.3188
 7210TIP3    H145825   1.703   7.096  12.983 -0.8995 -1.1953  1.2854
 7210TIP3    H245826   1.764   7.059  12.850 -1.7521  1.1661  0.1804
 7211TIP3   OH245827   5.193   1.342  12.933  0.0115  0.7310 -0.2208
 7211TIP3    H145828   5.135   1.315  13.004 -0.6496  2.0717 -0.2344
 7211TIP3    H245829   5.279   1.309  12.959  0.0392  2.2717  1.8347
 7212TIP3   OH245830   5.249   4.384  12.358  0.1420  0.7686  0.0760
 7212TIP3    H145831   5.293   4.467  12.339 -1.8370  2.6827  3.0399
 7212TIP3    H245832   5.160   4.396  12.324  0.5686 -1.4044 -2.0801
 7213TIP3   OH245833   8.688   4.046  12.585  0.4529  0.1978 -0.7999
 7213TIP3    H145834   8.733   4.021  12.666 -0.1507 -0.7272 -0.7393
 7213TIP3    H245835   8.743   4.011  12.515  1.2314  1.4201 -0.8257
 7214TIP3   OH245836   3.129   1.117  12.489  0.5521  0.8112  0.1173
 7214TIP3    H145837   3.115   1.052  12.420  0.0029 -0.8184  1.6858
 7214TIP3    H245838   3.147   1.065  12.568 -1.5600  2.4948  1.8225
 7215TIP3   OH245839   2.538   5.702  12.639 -0.3756  0.2080  0.5988
 7215TIP3    H145840   2.590   5.767  12.592 -1.5205  1.2862  0.7853
 7215TIP3    H245841   2.449   5.736  12.638 -1.0498 -1.4524  0.5438
 7216TIP3   OH245842   3.207   3.305  12.004 -0.8293  0.5887  0.2230
 7216TIP3    H145843   3.294   3.286  11.968 -0.7100  0.3608  0.6277
 7216TIP3    H245844   3.201   3.400  12.004 -1.2606  0.5966 -1.4188
 7217TIP3   OH245845   6.622   0.035  12.709 -0.0836  0.2907 -0.8837
 7217TIP3    H145846   6.556   0.092  12.748 -0.0574 -1.6516  2.3635
 7217TIP3    H245847   6.701   0.049  12.761 -0.1717 -2.8029  0.3033
 7218TIP3   OH245848   7.575   0.151  12.575 -0.2014 -0.0982  0.3158
 7218TIP3    H145849   7.526   0.071  12.556  0.4961 -0.5434  0.3547
 7218TIP3    H245850   7.635   0.126  12.646  0.3274  0.3346  0.0287
 7219TIP3   OH245851   6.879   2.965  11.771  0.0294 -0.7081 -0.2425
 7219TIP3    H145852   6.822   3.030  11.730 -0.1932 -1.2496 -0.8153
 7219TIP3    H245853   6.925   3.013  11.839  0.6952  0.3197 -1.3758
 7220TIP3   OH245854   0.647   6.812  12.934 -0.4026 -0.3351 -0.2844
 7220TIP3    H145855   0.582   6.815  13.004  0.7051  0.6815  0.7299
 7220TIP3    H245856   0.677   6.902  12.925  2.5426 -1.0906  0.9094
 7221TIP3   OH245857   7.411   7.874  12.240  0.2637 -0.0111 -0.4109
 7221TIP3    H145858   7.416   7.816  12.316  0.6212  0.7298  0.1470
 7221TIP3    H245859   7.448   7.823  12.168 -0.8922 -1.0447 -0.2998
 7222TIP3   OH245860   4.876   9.164  11.753 -0.2205 -0.5072  0.2487
 7222TIP3    H145861   4.903   9.132  11.839  1.5948  0.0593 -0.0624
 7222TIP3    H245862   4.878   9.259  11.760 -0.9259 -0.4498 -0.1818
 7223TIP3   OH245863   2.895   2.163  12.826  0.1620 -0.4888  0.2587
 7223TIP3    H145864   2.805   2.167  12.793  0.3470 -0.5478 -0.2636
 7223TIP3    H245865   2.917   2.254  12.847  0.2438 -0.3635 -0.3471
 7224TIP3   OH245866   8.738   4.707  12.370  0.1180  0.7408 -0.2738
 7224TIP3    H145867   8.697   4.751  12.445  0.3913  0.5169  0.0116
 7224TIP3    H245868   8.781   4.630  12.408  1.3978  1.3462 -0.4443
 7225TIP3   OH245869   3.833   5.494  11.756  0.6182  0.6025  0.1978
 7225TIP3    H145870   3.777   5.563  11.720 -1.4110 -1.7847 -1.6418
 7225TIP3    H245871   3.784   5.413  11.740  3.1924 -1.3760  1.5286
 7226TIP3   OH245872   4.792   2.853  11.727 -0.0679 -0.5279 -0.5116
 7226TIP3    H145873   4.877   2.812  11.742  0.6758  1.5277  1.5463
 7226TIP3    H245874   4.743   2.837  11.809 -0.4114  1.0496 -0.3750
 7227TIP3   OH245875   3.500   5.247  12.063  0.0048  0.1934  0.0797
 7227TIP3    H145876   3.540   5.190  11.998  0.6254  0.5869  0.1059
 7227TIP3    H245877   3.467   5.188  12.130 -1.7871 -0.3188 -1.1812
 7228TIP3   OH245878   7.859   2.036  11.558 -0.5646  0.4013  0.2055
 7228TIP3    H145879   7.864   1.994  11.644 -0.8561  0.1458  0.1012
 7228TIP3    H245880   7.950   2.053  11.533 -0.4869  0.5996  0.6253
 7229TIP3   OH245881   1.490   1.300  11.522 -0.6254  0.0545 -0.0338
 7229TIP3    H145882   1.500   1.289  11.427 -1.4443 -2.5578  0.0786
 7229TIP3    H245883   1.395   1.308  11.534 -0.4857  0.8632  0.5342
 7230TIP3   OH245884   1.028   3.180  11.795  0.1317 -0.4445 -0.1532
 7230TIP3    H145885   1.050   3.208  11.884  1.3283 -0.7214 -0.3451
 7230TIP3    H245886   1.022   3.262  11.745  1.4156 -0.3685 -0.2262
 7231TIP3   OH245887   6.594   6.126  11.758  0.0230 -0.3976  0.1578
 7231TIP3    H145888   6.597   6.036  11.790 -2.3591 -1.5578 -2.5175
 7231TIP3    H245889   6.686   6.150  11.745  0.6900 -3.0159 -0.4708
 7232TIP3   OH245890   3.783   5.321  12.025  0.2528 -0.0014  0.4188
 7232TIP3    H145891   3.689   5.307  12.028  0.4996 -1.7949  1.7121
 7232TIP3    H245892   3.817   5.247  11.974  1.0392  0.0014  0.9168
 7233TIP3   OH245893   8.402   8.508  12.605 -0.1138  0.3431 -0.6486
 7233TIP3    H145894   8.482   8.558  12.622 -0.5752  1.4172 -1.5264
 7233TIP3    H245895   8.349   8.519  12.683  0.0943  0.6256 -0.5444
 7234TIP3   OH245896   4.743   1.988  12.395 -0.5493  0.8941 -0.0256
 7234TIP3    H145897   4.648   1.983  12.391 -0.5763  0.8877  0.4886
 7234TIP3    H245898   4.766   2.061  12.338 -1.0098  2.0947  1.2717
 7235TIP3   OH245899   3.037   0.353  13.388 -0.0118  0.0860 -0.0968
 7235TIP3    H145900   3.084   0.345  13.471  0.6653  0.5940 -0.4250
 7235TIP3    H245901   2.950   0.317  13.407  0.3122 -0.3332  0.6754
 7236TIP3   OH245902   2.169   7.877  12.593 -0.6317 -0.1327 -0.1264
 7236TIP3    H145903   2.078   7.861  12.617 -0.3372  0.1061  1.2040
 7236TIP3    H245904   2.207   7.921  12.669  0.4600  0.2652 -0.8736
 7237TIP3   OH245905   6.031   2.001  13.354  0.0666 -0.1561 -0.3490
 7237TIP3    H145906   5.959   1.962  13.405 -0.1272  0.6024 -0.0151
 7237TIP3    H245907   6.060   2.074  13.408 -0.3974  0.9179 -1.4935
 7238TIP3   OH245908   5.749   1.550  12.364 -0.1357  0.1562  0.0193
 7238TIP3    H145909   5.759   1.643  12.346  1.8527 -0.4449 -2.4918
 7238TIP3    H245910   5.662   1.529  12.329 -0.1830  0.8758 -0.3224
 7239TIP3   OH245911   6.895   7.223  12.170  0.6496  0.1949 -0.1918
 7239TIP3    H145912   6.893   7.132  12.140 -0.2926  0.6965 -1.8134
 7239TIP3    H245913   6.848   7.222  12.253 -3.0146 -0.2652 -2.0584
 7240TIP3   OH245914   5.765   2.337  12.539  0.5904  0.2482 -0.0679
 7240TIP3    H145915   5.744   2.359  12.630  2.1744  0.5619  0.2576
 7240TIP3    H245916   5.811   2.253  12.545 -0.4969 -0.4144 -0.7365
 7241TIP3   OH245917   6.749   4.040  12.911 -0.1430  0.4585  0.2835
 7241TIP3    H145918   6.685   4.111  12.907  0.2842  1.0175  2.4334
 7241TIP3    H245919   6.817   4.065  12.849  0.3782  2.3554  1.5537
 7242TIP3   OH245920   9.167   6.761  11.955 -0.0592  0.9301  0.1928
 7242TIP3    H145921   9.141   6.839  12.006  2.8584  1.7168  0.6727
 7242TIP3    H245922   9.204   6.702  12.021 -2.4385 -1.0585 -0.1384
 7243TIP3   OH245923   1.114   0.508  11.904  0.4180  0.0158 -0.3785
 7243TIP3    H145924   1.096   0.414  11.916 -1.9186  0.6381  1.5815
 7243TIP3    H245925   1.067   0.531  11.824 -0.0523 -0.2488 -0.1846
 7244TIP3   OH245926   4.045   4.571  11.499  0.0437 -0.1959 -0.6419
 7244TIP3    H145927   4.118   4.514  11.477  0.5571  0.6403 -1.1747
 7244TIP3    H245928   4.050   4.582  11.594 -0.0864 -1.0575 -0.5314
 7245TIP3   OH245929   6.547   2.445  11.842 -0.1018  0.1994 -0.3241
 7245TIP3    H145930   6.625   2.463  11.894 -0.2368 -0.3833  0.0917
 7245TIP3    H245931   6.478   2.495  11.884  0.2751  1.7004 -1.4161
 7246TIP3   OH245932   0.462   8.705  12.225  1.0682 -0.8219  0.5130
 7246TIP3    H145933   0.406   8.638  12.264 -3.7038  1.6792 -1.2182
 7246TIP3    H245934   0.476   8.768  12.295  1.3420 -1.2254  0.8287
 7247TIP3   OH245935   8.533   0.708  13.315 -0.2555  0.4409 -0.5689
 7247TIP3    H145936   8.584   0.774  13.267  2.7618 -0.6213  0.9299
 7247TIP3    H245937   8.525   0.744  13.403  1.3225 -1.0656  0.2310
 7248TIP3   OH245938   5.440   1.600  13.033  0.2333  0.1695  0.0295
 7248TIP3    H145939   5.453   1.683  13.078 -1.1612  1.1156 -1.2083
 7248TIP3    H245940   5.508   1.598  12.967  1.2255 -0.4281  1.0327
 7249TIP3   OH245941   5.417   0.457  11.625 -0.1658 -0.4326 -0.0016
 7249TIP3    H145942   5.478   0.517  11.667 -0.3044 -1.1962  1.3695
 7249TIP3    H245943   5.419   0.481  11.533  1.0368  0.5627  0.2551
 7250TIP3   OH245944   4.639   2.659  11.607 -0.2085  0.2325  0.1012
 7250TIP3    H145945   4.708   2.722  11.627 -0.4386  1.4763 -2.6236
 7250TIP3    H245946   4.557   2.704  11.629 -0.3614  0.8863 -1.6511
 7251TIP3   OH245947   1.097   8.698  12.273 -0.0205 -0.0024 -0.1556
 7251TIP3    H145948   1.153   8.724  12.199  0.2308  1.6954  0.5806
 7251TIP3    H245949   1.088   8.603  12.264  1.0336  0.0005 -1.6481
 7252TIP3   OH245950   8.954   2.277  12.766  0.1524 -0.6758 -0.2352
 7252TIP3    H145951   8.942   2.194  12.812  0.4243  0.2880  1.6749
 7252TIP3    H245952   8.903   2.340  12.817 -0.1516  0.3234 -1.7205
 7253TIP3   OH245953   4.219   6.150  13.655 -0.1445 -0.4637 -0.5751
 7253TIP3    H145954   4.206   6.081  13.590 -2.0595 -0.5704 -0.1389
 7253TIP3    H245955   4.134   6.192  13.663  0.4327  0.5390  0.7715
 7254TIP3   OH245956   3.339   1.494  11.709  0.5095  0.8965  0.0154
 7254TIP3    H145957   3.260   1.544  11.726 -1.7744 -1.8144 -1.5982
 7254TIP3    H245958   3.380   1.538  11.634 -0.9560  0.9414 -0.8031
 7255TIP3   OH245959   0.285   8.318  11.741 -0.0916 -0.2779 -0.1778
 7255TIP3    H145960   0.371   8.319  11.782 -0.9127 -1.4507  1.7040
 7255TIP3    H245961   0.292   8.253  11.671  0.6898  0.0472 -0.4081
 7256TIP3   OH245962   2.493   0.808  12.435 -0.1305  0.0716 -0.6007
 7256TIP3    H145963   2.401   0.787  12.419 -0.3385  0.2887  0.2578
 7256TIP3    H245964   2.530   0.728  12.471 -0.3149  0.3958  0.3212
 7257TIP3   OH245965   1.572   0.529  13.005 -0.0595  0.0658 -0.0238
 7257TIP3    H145966   1.568   0.477  12.925  1.1072 -0.5923  0.3329
 7257TIP3    H245967   1.592   0.466  13.074 -0.6281  0.6938  0.7325
 7258TIP3   OH245968   0.441   1.082  13.168 -0.2894  0.2729 -0.5287
 7258TIP3    H145969   0.385   1.083  13.246 -0.9837  2.5712 -1.0083
 7258TIP3    H245970   0.529   1.064  13.203 -1.0840 -2.4080  0.3348
 7259TIP3   OH245971   6.739   5.630  12.183  0.0373  0.1247  0.1471
 7259TIP3    H145972   6.665   5.594  12.233 -1.7466  0.9578 -1.7360
 7259TIP3    H245973   6.808   5.642  12.248 -1.2840 -1.2035  1.8989
 7260TIP3   OH245974   2.471   6.450  11.589  0.1483 -0.1149  0.1665
 7260TIP3    H145975   2.542   6.473  11.649 -1.2279 -0.3076  1.9385
 7260TIP3    H245976   2.428   6.533  11.571 -0.9361 -0.3743  1.4538
 7261TIP3   OH245977   0.115   0.272  13.470  0.6864  0.3281  0.0303
 7261TIP3    H145978   0.040   0.330  13.472 -0.3998 -0.8054 -2.6755
 7261TIP3    H245979   0.188   0.328  13.443 -0.0409  0.7420 -1.1465
 7262TIP3   OH245980   3.673   2.554  12.849 -0.2962  0.7552 -0.0555
 7262TIP3    H145981   3.650   2.636  12.894  1.3281  2.7084 -2.5623
 7262TIP3    H245982   3.764   2.538  12.874  0.2997  1.3188 -1.7488
 7263TIP3   OH245983   5.705   0.933  12.556  0.0657 -0.6400 -0.6315
 7263TIP3    H145984   5.660   1.017  12.543  1.7422  0.3468 -0.2691
 7263TIP3    H245985   5.731   0.934  12.648 -0.8998 -2.1097 -0.2997
 7264TIP3   OH245986   5.550   6.787  13.340  0.0630  0.4976  0.0562
 7264TIP3    H145987   5.554   6.698  13.374 -0.8578  0.2729 -0.3966
 7264TIP3    H245988   5.490   6.832  13.399  1.3241  1.1191  0.9084
 7265TIP3   OH245989   3.526   3.180  17.534 -0.6367  0.3687 -0.4658
 7265TIP3    H145990   3.585   3.138  17.472  0.8319  0.7866  0.5901
 7265TIP3    H245991   3.560   3.269  17.543 -0.2172  0.0494  1.6038
 7266TIP3   OH245992   2.064   3.638  13.750 -0.3140  0.0619 -0.2654
 7266TIP3    H145993   2.116   3.678  13.681  0.8420 -1.8717 -0.5919
 7266TIP3    H245994   2.128   3.607  13.814 -1.0150 -2.0298 -0.4751
 7267TIP3   OH245995   6.764   6.063  12.831 -0.2481 -0.2407  0.2278
 7267TIP3    H145996   6.750   5.971  12.809  0.3257 -0.0137 -1.1821
 7267TIP3    H245997   6.837   6.090  12.776 -1.7175  1.6092 -0.9143
 7268TIP3   OH245998   1.831   2.052  12.346  0.9225  0.1521  0.5568
 7268TIP3    H145999   1.746   2.007  12.343  1.9551 -2.0093  1.4784
 7268TIP3    H246000   1.825   2.119  12.278 -1.9627  0.9300  1.4553
 7269TIP3   OH246001   1.820   4.424  12.364  0.4663  0.2560 -0.3278
 7269TIP3    H146002   1.822   4.336  12.328  1.3285 -0.3539  1.1323
 7269TIP3    H246003   1.892   4.470  12.320  0.8074 -0.1465 -0.1902
 7270TIP3   OH246004   4.657   4.447  13.278 -0.3819  0.0867  0.4488
 7270TIP3    H146005   4.566   4.476  13.289 -0.0955  0.6926  1.3818
 7270TIP3    H246006   4.657   4.356  13.307 -1.0355 -0.5099 -1.2836
 7271TIP3   OH246007   7.017   0.170  12.473 -0.2082 -0.3400 -0.0954
 7271TIP3    H146008   6.971   0.228  12.413 -0.3755 -1.0382 -0.6613
 7271TIP3    H246009   7.092   0.221  12.504  0.1842 -0.1427 -1.3134
 7272TIP3   OH246010   0.719   0.006  12.414  0.0296 -0.4282  0.0883
 7272TIP3    H146011   0.706  -0.032  12.327 -0.4325  1.7079 -0.8562
 7272TIP3    H246012   0.768  -0.060  12.463 -0.9507 -2.2786 -1.3194
 7273TIP3   OH246013   2.790   6.999  13.436  0.4596  0.4839 -0.0389
 7273TIP3    H146014   2.761   7.044  13.515 -0.2270  0.0629 -0.0379
 7273TIP3    H246015   2.763   7.057  13.364 -0.9197 -0.1507 -0.0664
 7274TIP3   OH246016   7.659   8.365  13.284 -0.1950 -0.0949  0.0033
 7274TIP3    H146017   7.585   8.425  13.274  0.1402  0.2402 -0.5540
 7274TIP3    H246018   7.628   8.282  13.248 -0.2724  0.0738 -0.3256
 7275TIP3   OH246019   8.319   7.421  11.633 -0.2478  0.6372  0.2879
 7275TIP3    H146020   8.394   7.384  11.680 -0.7706  1.0079  1.4638
 7275TIP3    H246021   8.355   7.495  11.585  0.4241 -0.1447 -0.4276
 7276TIP3   OH246022   8.239   5.586  13.802  0.3478  0.2235 -0.6002
 7276TIP3    H146023   8.288   5.534  13.738  0.6090  0.5696 -0.6901
 7276TIP3    H246024   8.155   5.603  13.759 -0.2699 -1.2344 -0.0315
 7277TIP3   OH246025   7.185   8.016  12.270  0.2808  0.1717 -0.1727
 7277TIP3    H146026   7.259   7.967  12.232 -0.8018 -2.4042  0.7924
 7277TIP3    H246027   7.140   8.053  12.194  0.7660 -0.9667 -1.0615
 7278TIP3   OH246028   2.088   4.139  12.480  0.3042 -0.7679 -0.1689
 7278TIP3    H146029   2.011   4.084  12.464  0.2610 -0.5142 -0.8870
 7278TIP3    H246030   2.163   4.081  12.466  0.2721 -1.5210  2.3609
 7279TIP3   OH246031   3.170   2.606  13.192 -0.1990 -0.0690 -0.4229
 7279TIP3    H146032   3.161   2.675  13.126 -1.6958 -0.8789 -1.1100
 7279TIP3    H246033   3.210   2.650  13.267 -1.1882  1.5806 -0.8142
 7280TIP3   OH246034   0.612   0.502  13.228  0.0549  0.1683  0.1792
 7280TIP3    H146035   0.668   0.425  13.221  0.3632  0.4963 -1.5394
 7280TIP3    H246036   0.673   0.576  13.219 -0.1535  0.6730  2.3577
 7281TIP3   OH246037   6.423   8.469  12.165 -0.2264 -0.1792 -0.4404
 7281TIP3    H146038   6.468   8.386  12.181 -1.0314 -0.2980  1.3735
 7281TIP3    H246039   6.396   8.500  12.251 -2.3079  0.6322 -1.2964
 7282TIP3   OH246040   1.969   5.547  12.541  0.6428 -0.2685  0.1444
 7282TIP3    H146041   2.011   5.473  12.498 -1.6201 -1.3206 -0.3691
 7282TIP3    H246042   1.914   5.586  12.473  0.4808  0.8339  0.8814
 7283TIP3   OH246043   4.938   1.733  13.548 -0.8265 -0.3456  0.1569
 7283TIP3    H146044   4.893   1.721  13.465 -0.8596  0.4638  0.0589
 7283TIP3    H246045   4.932   1.826  13.566 -1.0991 -0.5493  1.2233
 7284TIP3   OH246046   4.263   2.376  12.301 -0.2668 -0.2491 -0.0062
 7284TIP3    H146047   4.200   2.448  12.309 -0.7660 -0.6741 -0.0719
 7284TIP3    H246048   4.209   2.298  12.290  0.2949 -0.5071 -0.9904
 7285TIP3   OH246049   0.271   6.524  12.640 -0.0089  0.1047 -0.1572
 7285TIP3    H146050   0.240   6.518  12.549  0.2289 -1.8893 -0.1565
 7285TIP3    H246051   0.293   6.616  12.651 -0.3635  0.4715 -2.0177
 7286TIP3   OH246052   2.366   2.965  13.182 -0.2813  0.2907 -0.1554
 7286TIP3    H146053   2.301   3.034  13.167 -0.0964  0.6098  0.4592
 7286TIP3    H246054   2.348   2.936  13.272  0.4754  0.4369  0.0490
 7287TIP3   OH246055   4.751   7.893  11.846 -0.3545 -0.2807 -0.1127
 7287TIP3    H146056   4.797   7.809  11.855  0.4573  0.1237 -0.4122
 7287TIP3    H246057   4.819   7.959  11.862 -1.1674  0.3198  0.9775
 7288TIP3   OH246058   5.042   0.312  12.302 -0.5881 -1.0450  0.7496
 7288TIP3    H146059   5.114   0.249  12.315 -0.2227 -0.6480  0.6824
 7288TIP3    H246060   5.008   0.291  12.215  2.0887  1.3184 -1.0665
 7289TIP3   OH246061   4.884   5.362  13.556  0.2675  0.5570  0.2343
 7289TIP3    H146062   4.954   5.393  13.498 -0.7303  0.8924 -0.8368
 7289TIP3    H246063   4.856   5.440  13.602 -0.1460  0.6525 -0.1691
 7290TIP3   OH246064   2.739   6.332  13.057  0.1103  0.2748 -0.2639
 7290TIP3    H146065   2.724   6.270  12.986  1.0938 -2.4488  1.7570
 7290TIP3    H246066   2.817   6.381  13.030  0.0016 -0.1391 -1.3770
 7291TIP3   OH246067   0.077   0.204  12.892 -0.0801  0.0235  0.4790
 7291TIP3    H146068  -0.008   0.245  12.907  0.4126  0.7310  1.5131
 7291TIP3    H246069   0.064   0.146  12.817 -1.2896  0.6407  0.1955
 7292TIP3   OH246070   0.285   5.007  11.972  0.4015 -0.0096 -0.0263
 7292TIP3    H146071   0.362   4.977  11.924 -0.7718 -0.5294 -1.6649
 7292TIP3    H246072   0.214   5.007  11.908 -0.8721  0.9710  1.2966
 7293TIP3   OH246073   4.063   2.551  12.302  0.0123 -0.1906  0.1629
 7293TIP3    H146074   3.991   2.488  12.298  0.1558 -0.4777  1.6241
 7293TIP3    H246075   4.041   2.615  12.235 -1.8621 -0.0347  0.8408
 7294TIP3   OH246076   9.136   8.606  12.363  0.1810 -0.3696 -0.0046
 7294TIP3    H146077   9.050   8.585  12.400  0.4139 -1.5490 -0.0782
 7294TIP3    H246078   9.140   8.554  12.282  0.5675  0.4490 -0.5235
 7295TIP3   OH246079   5.340   3.980  13.373 -0.6217 -0.2254 -0.1618
 7295TIP3    H146080   5.396   3.991  13.450  0.1673 -0.4925 -0.6798
 7295TIP3    H246081   5.332   4.068  13.337 -1.8282  0.0710  0.7742
 7296TIP3   OH246082   3.529   6.621  12.896  0.3793  0.4233  0.4472
 7296TIP3    H146083   3.579   6.568  12.958  0.5597 -0.6660 -0.5853
 7296TIP3    H246084   3.581   6.701  12.886  1.1506 -0.0549  0.5254
 7297TIP3   OH246085   9.019   3.216  12.964 -0.0662  0.3049  0.6623
 7297TIP3    H146086   9.077   3.189  13.035  1.2869  0.3544 -0.3814
 7297TIP3    H246087   8.974   3.135  12.938  0.0878  0.1098  0.9980
 7298TIP3   OH246088   5.213   2.042  12.481 -0.1517 -0.3777  1.0724
 7298TIP3    H146089   5.170   1.993  12.551 -0.6195 -1.4715  0.0604
 7298TIP3    H246090   5.143   2.095  12.443 -0.3066 -1.0645  0.3640
 7299TIP3   OH246091   6.123   2.133  11.663  0.3776 -0.1331 -0.8509
 7299TIP3    H146092   6.092   2.055  11.708  0.8841  0.5318  0.7189
 7299TIP3    H246093   6.085   2.127  11.575 -0.2536 -1.7142 -0.4979
 7300TIP3   OH246094   1.542   7.033  12.453 -0.3277  0.1701  0.0035
 7300TIP3    H146095   1.473   6.992  12.505 -0.3540 -1.0824 -0.9735
 7300TIP3    H246096   1.623   7.015  12.502 -0.3052 -1.3179 -0.5215
 7301TIP3   OH246097   5.210   1.919  11.997  0.5622  0.5059  0.0188
 7301TIP3    H146098   5.283   1.980  11.988  0.7931  0.1433 -0.5651
 7301TIP3    H246099   5.142   1.953  11.939  0.6856  0.2155 -0.2960
 7302TIP3   OH246100   3.364   4.991  13.286  0.1467  0.3937  0.1300
 7302TIP3    H146101   3.301   5.060  13.308 -1.6715 -1.5414  1.2969
 7302TIP3    H246102   3.343   4.919  13.345  0.8808 -1.8194 -2.1284
 7303TIP3   OH246103   2.405   7.746  12.502 -0.5116  0.2354 -0.3529
 7303TIP3    H146104   2.465   7.785  12.565 -0.1611 -0.5353 -0.1908
 7303TIP3    H246105   2.318   7.773  12.532 -0.2645  1.1285 -0.4294
 7304TIP3   OH246106   2.587   4.013  12.641 -0.2375  0.0250  0.1925
 7304TIP3    H146107   2.594   3.934  12.695 -0.4992 -0.0955  0.0546
 7304TIP3    H246108   2.595   3.980  12.551  0.9858  0.3108  0.1798
 7305TIP3   OH246109   1.479   2.778  13.746 -0.5815  0.2025 -0.2720
 7305TIP3    H146110   1.557   2.723  13.745 -0.3170  0.5614  0.2678
 7305TIP3    H246111   1.411   2.723  13.707 -0.2283 -0.3673 -0.1021
 7306TIP3   OH246112   0.545   6.622  12.780  0.2145 -0.4297 -0.4359
 7306TIP3    H146113   0.589   6.692  12.827 -0.5251 -0.0500 -0.2876
 7306TIP3    H246114   0.464   6.661  12.749 -0.8277 -1.5360  0.7350
 7307TIP3   OH246115   2.108   5.706  13.084 -0.6016 -0.2955 -0.4348
 7307TIP3    H146116   2.027   5.743  13.048 -0.5848 -0.9791 -1.2119
 7307TIP3    H246117   2.177   5.765  13.053 -0.8498  0.7268  0.8631
 7308TIP3   OH246118   4.659   0.123  12.129  0.0916  0.3169  0.3430
 7308TIP3    H146119   4.585   0.116  12.069  0.8583  3.4903 -1.2186
 7308TIP3    H246120   4.619   0.126  12.216 -1.4268  0.0381 -0.3129
 7309TIP3   OH246121   2.473   2.042  11.891  0.1275 -0.0028 -0.3168
 7309TIP3    H146122   2.382   2.025  11.915 -0.0762  1.2736 -0.1098
 7309TIP3    H246123   2.468   2.114  11.829  0.9012 -1.0282 -1.6296
 7310TIP3   OH246124   6.941   1.562  11.871  0.4003 -0.2542  0.1766
 7310TIP3    H146125   6.894   1.514  11.802 -1.8817  0.4493  1.1475
 7310TIP3    H246126   6.877   1.625  11.904  1.9451  0.5012  1.8777
 7311TIP3   OH246127   3.594   6.153  12.097 -0.0095  0.0020  0.7623
 7311TIP3    H146128   3.578   6.141  12.191 -0.8722 -3.5756  0.3094
 7311TIP3    H246129   3.507   6.163  12.059  0.2948  0.7579  0.2351
 7312TIP3   OH246130   2.016   3.329  11.617  0.1360  0.9192 -0.2214
 7312TIP3    H146131   1.930   3.295  11.643 -0.4230  1.7076 -0.9743
 7312TIP3    H246132   1.998   3.418  11.586  0.9589  0.4993 -2.0146
 7313TIP3   OH246133   1.512   4.530  11.709  0.0783  0.0306 -0.1457
 7313TIP3    H146134   1.595   4.501  11.746  0.0274  0.5489  0.3844
 7313TIP3    H246135   1.524   4.520  11.614  0.7748  0.1583 -0.0796
 7314TIP3   OH246136   2.202   2.730  11.363 -0.1998 -0.1038  0.5587
 7314TIP3    H146137   2.211   2.802  11.426 -3.0137 -0.2453  1.2516
 7314TIP3    H246138   2.135   2.761  11.302 -0.1843 -1.4634 -0.1660
 7315TIP3   OH246139   6.880   0.638  11.547  0.2727  0.1823 -0.8320
 7315TIP3    H146140   6.933   0.714  11.571  0.2581  0.5053 -1.7825
 7315TIP3    H246141   6.806   0.675  11.498 -0.1218 -0.3804 -0.6693
 7316TIP3   OH246142   1.649   6.653  11.927  0.1236  0.8934 -0.0083
 7316TIP3    H146143   1.706   6.675  11.853 -0.2408 -0.9401 -0.9061
 7316TIP3    H246144   1.563   6.688  11.903 -0.2461 -0.5836 -1.0148
 7317TIP3   OH246145   2.032   1.417  12.193 -0.2427 -0.1635  0.0094
 7317TIP3    H146146   1.979   1.446  12.267 -0.9403 -2.1920  0.3693
 7317TIP3    H246147   1.989   1.456  12.116  0.0895  1.3896  0.5782
 7318TIP3   OH246148   8.831   1.788  11.428 -0.1938  0.2240  0.0371
 7318TIP3    H146149   8.777   1.867  11.424  1.9411  1.7126 -1.4014
 7318TIP3    H246150   8.894   1.806  11.498 -0.1842 -0.5683  0.2404
 7319TIP3   OH246151   0.439   3.014  13.283 -0.2892 -0.1108 -0.1914
 7319TIP3    H146152   0.517   2.961  13.298 -0.7176 -0.6889  0.0162
 7319TIP3    H246153   0.410   2.990  13.195  1.0461  1.7712 -1.2165
 7320TIP3   OH246154   3.471   8.724  12.337 -0.3467  0.3603  0.7452
 7320TIP3    H146155   3.381   8.728  12.368 -0.4673 -0.2215  0.4880
 7320TIP3    H246156   3.500   8.815  12.336 -1.4936  0.7668 -0.7782
 7321TIP3   OH246157   1.123   3.278  12.030  0.1958 -0.0242 -0.0838
 7321TIP3    H146158   1.051   3.234  12.076 -0.2598  1.1651  0.3804
 7321TIP3    H246159   1.120   3.368  12.061  1.9232  0.0478 -0.0321
 7322TIP3   OH246160   3.030   6.716  12.202  0.7452  0.3245 -0.2444
 7322TIP3    H146161   2.968   6.731  12.273  0.7840  2.6546 -0.6242
 7322TIP3    H246162   3.108   6.683  12.245 -0.1660 -1.0409  0.4281
 7323TIP3   OH246163   4.974   8.375  13.022 -0.2648  0.6103  1.1164
 7323TIP3    H146164   5.049   8.320  12.997 -1.5436 -1.7863  2.2950
 7323TIP3    H246165   4.906   8.353  12.958 -0.6287  1.2557  1.2734
 7324TIP3   OH246166   6.993   1.959  11.640  0.1272 -0.5633  0.1807
 7324TIP3    H146167   6.899   1.943  11.648  0.4266 -2.4838  0.3779
 7324TIP3    H246168   7.008   1.965  11.546 -0.3481  0.9600  0.1858
 7325TIP3   OH246169   6.912   1.276  11.616  0.1738  0.4707  0.6186
 7325TIP3    H146170   6.845   1.330  11.658 -0.9852  0.6996 -1.4258
 7325TIP3    H246171   6.967   1.338  11.569  0.3996  0.0829  0.3655
 7326TIP3   OH246172   5.010   4.148  11.583  0.1914  0.5880  0.1711
 7326TIP3    H146173   5.091   4.098  11.597 -1.0289 -0.9590  2.2487
 7326TIP3    H246174   4.987   4.131  11.492  1.2154 -0.5194  0.0922
 7327TIP3   OH246175   1.928   4.929  13.809  0.0947 -0.0832 -0.0594
 7327TIP3    H146176   1.978   4.863  13.759  0.1967  1.1691 -1.7006
 7327TIP3    H246177   1.995   4.987  13.845 -0.0789  1.2749 -1.7987
 7328TIP3   OH246178   5.697   2.656  11.854  0.4997  0.0211  0.2340
 7328TIP3    H146179   5.736   2.598  11.919 -0.3333  1.5158  2.1609
 7328TIP3    H246180   5.603   2.655  11.874  0.1346  0.0364 -1.3647
 7329TIP3   OH246181   3.898   1.595  13.626 -0.6140 -0.2750  0.4177
 7329TIP3    H146182   3.932   1.515  13.586  1.4900  1.3607 -1.3618
 7329TIP3    H246183   3.977   1.640  13.658 -1.5137  1.8472 -0.1872
 7330TIP3   OH246184   0.341   4.996  12.480  0.4541  0.5375 -0.3343
 7330TIP3    H146185   0.359   4.937  12.554 -1.9214 -1.5206 -1.2547
 7330TIP3    H246186   0.400   5.070  12.494  2.0014 -0.9961  2.1441
 7331TIP3   OH246187   8.595   4.630  13.012 -0.1981 -0.4683 -0.8139
 7331TIP3    H146188   8.506   4.606  12.985 -0.2536 -0.0721 -0.9940
 7331TIP3    H246189   8.610   4.579  13.092 -1.1993  0.6407  0.1329
 7332TIP3   OH246190   1.977   6.435  13.641  0.2790 -0.2650 -0.2108
 7332TIP3    H146191   1.987   6.515  13.691 -2.2789  0.0761 -0.0943
 7332TIP3    H246192   1.907   6.454  13.578 -0.2461 -2.3211 -0.3297
 7333TIP3   OH246193   7.955   6.104  12.600 -0.0581 -0.0415  0.5116
 7333TIP3    H146194   7.872   6.117  12.645  0.4335  2.0507  0.9363
 7333TIP3    H246195   7.933   6.115  12.507 -0.2996  0.3365  0.6091
 7334TIP3   OH246196   8.191   2.372  12.208 -0.0417  0.1006  0.2481
 7334TIP3    H146197   8.123   2.438  12.223 -0.4637 -0.3627  0.3735
 7334TIP3    H246198   8.267   2.404  12.258  0.5635  1.7318 -1.5721
 7335TIP3   OH246199   1.233   2.762  11.733  0.0448 -0.3037 -0.2348
 7335TIP3    H146200   1.231   2.746  11.639 -0.7123  0.8734 -0.4491
 7335TIP3    H246201   1.161   2.824  11.748  0.1702 -0.4521  1.1129
 7336TIP3   OH246202   6.004   3.123  12.643 -0.0344  0.1300 -0.3076
 7336TIP3    H146203   6.014   3.178  12.721  1.6825  0.0362 -0.4387
 7336TIP3    H246204   6.031   3.178  12.570  1.4873 -0.7898 -0.4645
 7337TIP3   OH246205   1.071   0.221  11.946 -0.5007 -0.7624  0.2866
 7337TIP3    H146206   1.132   0.149  11.929  1.3082  0.5043  1.0659
 7337TIP3    H246207   1.007   0.215  11.875  1.1002 -1.5633 -1.1715
 7338TIP3   OH246208   0.213   5.738  13.076 -0.3711  0.0179  0.1019
 7338TIP3    H146209   0.305   5.764  13.079 -0.5588  0.6216  2.6027
 7338TIP3    H246210   0.186   5.733  13.168 -2.5627 -1.1867 -0.5301
 7339TIP3   OH246211   3.353   4.013  12.723  0.3460 -0.1123  0.1968
 7339TIP3    H146212   3.267   4.000  12.685  0.8942 -1.0427 -0.7772
 7339TIP3    H246213   3.347   3.977  12.811 -0.6319  1.0679  0.6318
 7340TIP3   OH246214   3.225   5.875  12.068  0.1841 -0.1893  0.3910
 7340TIP3    H146215   3.316   5.862  12.095  0.0819  0.8333  1.2722
 7340TIP3    H246216   3.218   5.830  11.984  1.9132  1.0187 -0.4484
 7341TIP3   OH246217   0.412   3.387  11.986  0.1243 -0.1096 -0.2093
 7341TIP3    H146218   0.371   3.358  11.905  1.7924  1.2379 -1.6190
 7341TIP3    H246219   0.504   3.365  11.976  0.3925  0.2346  1.2637
 7342TIP3   OH246220   2.607   7.056  11.909  0.3057  0.1871  0.0257
 7342TIP3    H146221   2.602   7.003  11.989  1.2276  0.6481  0.4130
 7342TIP3    H246222   2.564   7.138  11.932  0.6444  0.3517  0.0826
 7343TIP3   OH246223   8.610   4.902  12.966  0.2320 -0.0333 -0.0624
 7343TIP3    H146224   8.596   4.935  13.055 -0.8828  0.5431 -0.4334
 7343TIP3    H246225   8.610   4.807  12.975 -0.7755  0.0068  0.4300
 7344TIP3   OH246226   2.209   3.549  13.152  0.3593 -0.0426 -0.3282
 7344TIP3    H146227   2.183   3.567  13.243  0.1474  0.5146 -0.5016
 7344TIP3    H246228   2.129   3.560  13.101  0.5217 -0.1707 -0.6144
 7345TIP3   OH246229   6.388   1.867  11.753 -0.1216  0.1839  0.3741
 7345TIP3    H146230   6.385   1.936  11.819  1.2180 -0.7084  1.4343
 7345TIP3    H246231   6.341   1.793  11.793 -1.6584  0.4751 -0.7992
 7346TIP3   OH246232   8.474   2.151  12.370  0.2374  0.0095  0.4983
 7346TIP3    H146233   8.561   2.144  12.331 -0.1734 -0.7743 -0.3146
 7346TIP3    H246234   8.486   2.123  12.461  0.6953 -0.8653  0.1810
 7347TIP3   OH246235   6.629   5.865  11.822  0.2442 -0.5748 -0.2462
 7347TIP3    H146236   6.653   5.775  11.798 -2.5289 -1.3388 -0.4993
 7347TIP3    H246237   6.619   5.863  11.917  1.8120 -0.0561 -0.0474
 7348TIP3   OH246238   8.938   6.155  11.846 -0.1007  0.3690 -0.1958
 7348TIP3    H146239   8.936   6.074  11.897  0.3793  0.6746  0.3135
 7348TIP3    H246240   9.028   6.162  11.814 -0.6629 -0.3987 -2.0467
 7349TIP3   OH246241   3.408   0.442  13.889  0.0894  0.3317 -0.3632
 7349TIP3    H146242   3.336   0.505  13.898  0.5551  0.6850  1.1406
 7349TIP3    H246243   3.477   0.490  13.843  0.9870  1.4513  2.0115
 7350TIP3   OH246244   1.280   8.513  11.805 -0.2892  0.3319 -0.1763
 7350TIP3    H146245   1.320   8.575  11.745 -0.4436 -0.0544 -0.6911
 7350TIP3    H246246   1.351   8.484  11.861 -0.2374  1.0498  0.1414
 7351TIP3   OH246247   5.316   8.970  13.012 -0.8369 -0.2925  0.4100
 7351TIP3    H146248   5.298   9.064  13.015  1.9907  0.3246  1.0078
 7351TIP3    H246249   5.355   8.956  12.926  0.7075 -0.4541  1.1027
 7352TIP3   OH246250   3.887   0.779  11.837 -0.2005  0.2985 -0.0016
 7352TIP3    H146251   3.861   0.852  11.780  0.3689  0.5010 -0.0084
 7352TIP3    H246252   3.908   0.708  11.777 -0.0395  0.3695 -0.0316
 7353TIP3   OH246253   5.025   2.805  12.627  0.5316  0.1010  0.0949
 7353TIP3    H146254   5.108   2.851  12.622 -0.4397  2.2201  1.8140
 7353TIP3    H246255   5.039   2.736  12.691  0.6080  1.4138  1.5442
 7354TIP3   OH246256   4.069   3.994  11.930 -0.0689  0.5532  0.3092
 7354TIP3    H146257   3.985   4.039  11.937  0.3297  1.2294  0.8081
 7354TIP3    H246258   4.046   3.905  11.901 -0.7964  1.3754 -1.8792
 7355TIP3   OH246259   3.856   2.925  12.868  0.1395 -0.6468  0.2726
 7355TIP3    H146260   3.934   2.972  12.899 -0.0643  0.2795 -0.5651
 7355TIP3    H246261   3.838   2.860  12.937  1.6107 -0.8426  0.4992
 7356TIP3   OH246262   5.779   6.080  12.224  0.2340 -0.6351 -0.1669
 7356TIP3    H146263   5.837   6.007  12.200 -0.3302 -0.5790 -1.7727
 7356TIP3    H246264   5.691   6.045  12.214 -0.0440 -0.3470  1.0939
 7357TIP3   OH246265   1.931   4.708  13.204  0.2931 -0.2461 -0.1615
 7357TIP3    H146266   1.865   4.639  13.210 -0.4616  0.0699 -3.3139
 7357TIP3    H246267   1.930   4.750  13.290 -2.1681 -1.5205  0.5189
 7358TIP3   OH246268   3.224   8.825  12.370  0.0771 -0.6411 -0.3918
 7358TIP3    H146269   3.238   8.892  12.437 -1.6250 -0.2737 -0.3470
 7358TIP3    H246270   3.157   8.768  12.407  1.5465 -2.4616 -0.4045
 7359TIP3   OH246271   1.998   6.218  12.238  0.1664 -0.8213 -0.0306
 7359TIP3    H146272   2.078   6.167  12.237  0.8321  0.1733  0.6787
 7359TIP3    H246273   2.017   6.294  12.182 -0.3866 -0.7393 -0.1150
 7360TIP3   OH246274   7.301   2.508  11.239 -0.1161  0.2788  0.2078
 7360TIP3    H146275   7.261   2.421  11.252  0.7979  0.1540  2.9500
 7360TIP3    H246276   7.369   2.493  11.174  0.6242 -1.3109  1.2823
 7361TIP3   OH246277   6.531   4.214  11.857  0.1753  0.3884  0.5616
 7361TIP3    H146278   6.542   4.179  11.946 -0.3955  1.9139  1.2834
 7361TIP3    H246279   6.492   4.143  11.807  0.6182 -0.5432  1.4918
 7362TIP3   OH246280   4.692   1.985  13.654  0.2760  0.2670 -0.4652
 7362TIP3    H146281   4.669   2.046  13.584 -2.8388  1.3531  1.3301
 7362TIP3    H246282   4.788   1.991  13.660  0.2873  3.3345 -1.8075
 7363TIP3   OH246283   8.179   1.060  12.190  0.0447 -0.0957 -0.0548
 7363TIP3    H146284   8.250   1.105  12.143  1.8030 -3.5814 -1.0490
 7363TIP3    H246285   8.099   1.090  12.147  1.3218 -0.1439 -2.6442
 7364TIP3   OH246286   7.664   3.722  11.912 -0.8140 -0.5907 -0.0033
 7364TIP3    H146287   7.609   3.785  11.959  0.3108  0.2322  0.2414
 7364TIP3    H246288   7.653   3.640  11.961 -0.2058  0.0856  1.3107
 7365TIP3   OH246289   8.115   3.656  12.308 -0.9823  0.2741 -0.2914
 7365TIP3    H146290   8.029   3.629  12.340 -0.9453  0.9882  0.4638
 7365TIP3    H246291   8.155   3.577  12.273 -1.1356 -0.5124  1.2205
 7366TIP3   OH246292   1.269   3.156  13.614  0.1704  0.5751 -0.3057
 7366TIP3    H146293   1.245   3.229  13.558 -0.7701  0.1435 -0.4748
 7366TIP3    H246294   1.205   3.088  13.594 -0.4865  0.5774  1.6511
 7367TIP3   OH246295   0.949   8.114  13.791 -0.2053 -0.4083  1.0037
 7367TIP3    H146296   0.956   8.207  13.809 -0.0677 -0.3582  0.6909
 7367TIP3    H246297   1.039   8.086  13.772 -0.5700 -0.1253 -1.2927
 7368TIP3   OH246298   3.815   7.264  13.374 -0.1276 -0.1191 -0.5345
 7368TIP3    H146299   3.748   7.330  13.362 -0.8562 -1.0326 -1.6905
 7368TIP3    H246300   3.854   7.284  13.459 -2.2237  0.1069  0.4288
 7369TIP3   OH246301   3.592   1.417  12.470 -0.1576  0.2490 -0.1705
 7369TIP3    H146302   3.657   1.380  12.410 -0.2555  0.5611 -0.4774
 7369TIP3    H246303   3.516   1.359  12.462 -0.4402  0.7038 -0.9181
 7370TIP3   OH246304   2.722   5.950  13.177  0.6618  0.3690 -0.5922
 7370TIP3    H146305   2.758   5.931  13.263 -1.2495 -1.2672 -0.0778
 7370TIP3    H246306   2.665   6.025  13.191  2.7229  2.1450 -1.1529
 7371TIP3   OH246307   6.436   0.196  12.820  0.0302 -0.0424  0.4849
 7371TIP3    H146308   6.423   0.168  12.911  0.0509 -0.8657  0.2392
 7371TIP3    H246309   6.354   0.241  12.797 -0.3714 -0.7109  0.5914
 7372TIP3   OH246310   1.678   7.895  12.740 -0.0042 -0.0887  0.0540
 7372TIP3    H146311   1.699   7.983  12.709  0.2603  0.2909  1.2481
 7372TIP3    H246312   1.583   7.892  12.742 -0.0645  0.9903  2.0907
 7373TIP3   OH246313   4.668   4.784  13.638 -0.1185 -0.6924 -0.1742
 7373TIP3    H146314   4.694   4.692  13.633  1.6340 -0.3806  1.8956
 7373TIP3    H246315   4.574   4.783  13.622 -0.2749 -2.9331  0.5781
 7374TIP3   OH246316   9.128   9.146  12.271 -0.6942 -0.3106 -0.6123
 7374TIP3    H146317   9.162   9.123  12.357  0.1211  0.5353 -0.6932
 7374TIP3    H246318   9.168   9.084  12.211  0.6680  0.6051 -0.6912
 7375TIP3   OH246319   0.773   5.919  13.338  0.6217 -0.3487 -0.3298
 7375TIP3    H146320   0.766   5.998  13.392 -1.9601 -0.5129 -0.2826
 7375TIP3    H246321   0.706   5.860  13.373  0.6184 -1.4742 -2.0959
 7376TIP3   OH246322   6.034   3.535  12.618 -0.6174  0.0288 -0.8932
 7376TIP3    H146323   6.054   3.627  12.635  0.5959 -0.1651 -1.2186
 7376TIP3    H246324   6.103   3.506  12.559 -0.4098 -1.3706  0.0079
 7377TIP3   OH246325   7.458   8.847  12.007  0.0053 -0.9589 -0.2310
 7377TIP3    H146326   7.459   8.912  12.077  0.0834  0.5118 -1.5481
 7377TIP3    H246327   7.456   8.763  12.053 -3.7212 -0.0940  1.6230
 7378TIP3   OH246328   3.515   0.223  12.242  0.3827 -0.2592  0.7464
 7378TIP3    H146329   3.554   0.310  12.244 -0.3836  0.0754  2.2696
 7378TIP3    H246330   3.440   0.232  12.182  1.0255 -0.2187 -0.0737
 7379TIP3   OH246331   4.256   6.743  12.457  0.8334  0.0482  0.1785
 7379TIP3    H146332   4.296   6.674  12.510  0.4903  0.1175  0.5267
 7379TIP3    H246333   4.330   6.784  12.412  1.0494 -0.4726  0.0543
 7380TIP3   OH246334   5.772   6.735  12.798  0.2601 -0.0853 -0.0996
 7380TIP3    H146335   5.792   6.772  12.884  1.5213  1.2777 -0.9323
 7380TIP3    H246336   5.682   6.763  12.781  1.1155  2.7285 -0.6527
 7381TIP3   OH246337   0.530   8.295  11.855 -0.3389  1.0374  0.2388
 7381TIP3    H146338   0.509   8.207  11.887 -2.1625  1.9492  1.8069
 7381TIP3    H246339   0.623   8.292  11.836 -0.2803 -1.1377  0.5887
 7382TIP3   OH246340   5.544   7.130  12.358 -0.5834  0.2751  0.5699
 7382TIP3    H146341   5.609   7.159  12.293 -1.1121  0.7089  0.2305
 7382TIP3    H246342   5.475   7.090  12.306 -0.4139 -0.5398  0.9604
 7383TIP3   OH246343   8.812   2.482  12.891  0.2684 -0.0746  0.1447
 7383TIP3    H146344   8.748   2.539  12.849  1.0890  1.8949  1.3504
 7383TIP3    H246345   8.760   2.418  12.940 -0.6942 -1.8751 -2.9702
 7384TIP3   OH246346   6.655   2.625  12.864  0.4226  0.2990  0.2359
 7384TIP3    H146347   6.731   2.628  12.807  0.1889 -0.4370 -0.1292
 7384TIP3    H246348   6.691   2.627  12.953  0.7739  1.7916  0.0870
 7385TIP3   OH246349   4.806   0.586  13.266  0.1743  0.2562 -0.3736
 7385TIP3    H146350   4.727   0.610  13.218  0.7331  0.0935 -1.3963
 7385TIP3    H246351   4.857   0.667  13.269 -0.4032  0.5961  1.0667
 7386TIP3   OH246352   2.242   8.468  13.565  0.0699 -0.0274 -0.0676
 7386TIP3    H146353   2.158   8.511  13.582  0.6985  1.2554 -0.1227
 7386TIP3    H246354   2.220   8.397  13.504 -0.8875  0.6757 -0.5734
 7387TIP3   OH246355   3.938   2.526  12.842 -0.2680 -0.0939  0.0209
 7387TIP3    H146356   4.002   2.577  12.893  0.7145 -0.4184 -0.8505
 7387TIP3    H246357   3.963   2.435  12.856 -1.2464 -0.2868  0.5658
 7388TIP3   OH246358   0.179   5.187  12.197 -0.5716  0.0922 -0.3950
 7388TIP3    H146359   0.138   5.125  12.257 -1.9123  1.7475  0.4899
 7388TIP3    H246360   0.226   5.132  12.134 -2.0955 -1.8181  0.0486
 7389TIP3   OH246361   3.405   2.383  13.510 -0.1739 -0.4028 -0.1897
 7389TIP3    H146362   3.393   2.322  13.438  1.6043  0.8097 -1.6125
 7389TIP3    H246363   3.485   2.354  13.553 -0.0114  0.1754 -0.0906
 7390TIP3   OH246364   2.816   2.228  12.234  0.9724  0.5471 -0.0517
 7390TIP3    H146365   2.771   2.313  12.232 -0.2478  0.0452  2.5402
 7390TIP3    H246366   2.850   2.221  12.324  0.6278 -1.9144 -0.0528
 7391TIP3   OH246367   2.600   7.350  12.607 -0.1397 -0.3832  0.1281
 7391TIP3    H146368   2.663   7.336  12.536 -0.8766 -0.6381 -0.4787
 7391TIP3    H246369   2.655   7.358  12.686  0.6315 -0.9939 -0.3313
 7392TIP3   OH246370   3.143   1.755  12.697 -0.7068  0.3689  0.4453
 7392TIP3    H146371   3.090   1.753  12.777  0.6386  0.2310  1.3633
 7392TIP3    H246372   3.132   1.843  12.663  0.2089  1.0836  1.8671
 7393TIP3   OH246373   4.434   2.773  11.753 -0.2197 -0.1232  0.2993
 7393TIP3    H146374   4.357   2.759  11.697 -0.1687  0.0561  0.1814
 7393TIP3    H246375   4.451   2.688  11.793 -0.2974 -0.2389  0.0888
 7394TIP3   OH246376   4.957   5.636  12.593 -0.0079  0.4232 -0.2068
 7394TIP3    H146377   5.042   5.658  12.631  0.2600 -0.1249 -0.4756
 7394TIP3    H246378   4.939   5.708  12.532  0.1226  0.6950  0.0744
 7395TIP3   OH246379   1.081   2.276  13.186 -0.0900  0.1157  0.1415
 7395TIP3    H146380   1.112   2.367  13.185 -2.1021  0.8614 -1.6764
 7395TIP3    H246381   1.152   2.227  13.227  2.3260  2.0570 -1.4432
 7396TIP3   OH246382   7.726   5.540  12.233  0.3567 -0.3917 -0.1599
 7396TIP3    H146383   7.728   5.528  12.328 -0.9239  1.6367  0.1901
 7396TIP3    H246384   7.763   5.459  12.198  0.0351 -1.5675  2.0175
 7397TIP3   OH246385   6.631   6.160  12.511 -0.2057 -0.7060  0.2398
 7397TIP3    H146386   6.611   6.254  12.511 -0.6205 -0.7885  0.8787
 7397TIP3    H246387   6.637   6.137  12.418 -1.2288 -0.2709  0.0460
 7398TIP3   OH246388   5.576   6.089  13.195 -0.0021  0.1790  0.5650
 7398TIP3    H146389   5.656   6.083  13.143  0.9192  0.8273  1.8394
 7398TIP3    H246390   5.561   6.001  13.228 -0.5794 -0.2344 -0.7027
 7399TIP3   OH246391   2.149   2.016  12.725  0.1104  0.4820 -0.1391
 7399TIP3    H146392   2.209   1.958  12.771 -1.0455 -1.3073 -0.7888
 7399TIP3    H246393   2.189   2.029  12.639 -0.1873 -0.3186 -0.4026
 7400TIP3   OH246394   6.231   1.927  12.477  0.1043 -0.6911 -0.4639
 7400TIP3    H146395   6.254   1.964  12.392 -0.7309 -1.9881 -1.2806
 7400TIP3    H246396   6.161   1.984  12.510  0.6770  0.0272 -0.4606
 7401TIP3   OH246397   8.585   6.665  12.408 -0.3084 -0.5180  0.3212
 7401TIP3    H146398   8.670   6.627  12.387 -0.2080  0.3717 -1.0108
 7401TIP3    H246399   8.603   6.725  12.481  0.5667  0.9099 -1.0053
 7402TIP3   OH246400   1.299   1.093  12.545  0.0303  0.3524 -0.2712
 7402TIP3    H146401   1.338   1.005  12.544  1.4613  0.9448  0.3502
 7402TIP3    H246402   1.331   1.132  12.627  3.0152  2.9467 -2.4018
 7403TIP3   OH246403   1.375   0.843  12.267  0.1925  0.3968 -0.0408
 7403TIP3    H146404   1.289   0.858  12.305 -0.1137 -0.8735 -0.1897
 7403TIP3    H246405   1.400   0.928  12.230 -0.9573  0.7995  0.0686
 7404TIP3   OH246406   6.292   5.146  12.062  0.0362  1.0123  0.4213
 7404TIP3    H146407   6.379   5.158  12.102 -0.6899  1.7574  1.8599
 7404TIP3    H246408   6.297   5.061  12.019  0.9404  0.2091  2.0136
 7405TIP3   OH246409   8.522   1.501  11.325  0.2045 -0.3143 -0.1351
 7405TIP3    H146410   8.494   1.558  11.397  0.1057 -1.5690  0.8556
 7405TIP3    H246411   8.473   1.533  11.249 -1.3010 -0.2559  0.8137
 7406TIP3   OH246412   2.766   8.313  13.082 -0.3256  0.4424  0.0435
 7406TIP3    H146413   2.837   8.272  13.130 -0.1484 -1.2502 -1.5654
 7406TIP3    H246414   2.693   8.314  13.144 -0.1724 -1.8588  0.3415
 7407TIP3   OH246415   0.051   5.082  12.879 -0.2448  0.3678 -0.1440
 7407TIP3    H146416   0.058   5.028  12.800 -0.5017 -0.9691  0.7054
 7407TIP3    H246417   0.088   5.027  12.948  1.6562  2.2065  0.3840
 7408TIP3   OH246418   9.046   2.135  11.736 -0.1938  0.1102  0.3298
 7408TIP3    H146419   8.956   2.149  11.705  0.6545  5.4387 -0.7454
 7408TIP3    H246420   9.044   2.161  11.828  0.4948  3.1485 -0.3756
 7409TIP3   OH246421   0.499   3.760  12.960  0.6762 -0.2399 -0.6264
 7409TIP3    H146422   0.476   3.748  13.052 -2.0193 -0.7076 -1.2773
 7409TIP3    H246423   0.459   3.843  12.936  0.5359 -0.5768 -1.6023
 7410TIP3   OH246424   8.018   6.509  11.830  0.2130 -0.2093  0.0733
 7410TIP3    H146425   8.071   6.438  11.794  0.4386 -0.1970  0.3775
 7410TIP3    H246426   7.932   6.469  11.845  0.8414 -0.9361  1.9823
 7411TIP3   OH246427   2.989   2.908  12.309 -0.5401 -0.4235  0.4774
 7411TIP3    H146428   2.916   2.969  12.325  0.0693  0.2718  0.6745
 7411TIP3    H246429   3.061   2.964  12.282 -0.9648 -1.3581 -3.0196
 7412TIP3   OH246430   2.841   5.880  11.957 -0.4095 -0.0455 -0.2272
 7412TIP3    H146431   2.852   5.899  12.050 -0.1662  1.3039 -0.5182
 7412TIP3    H246432   2.912   5.928  11.914 -2.5309  2.1821 -1.4157
 7413TIP3   OH246433   5.704   4.753  12.176 -0.0879 -0.1214 -0.7231
 7413TIP3    H146434   5.639   4.718  12.238 -0.5134  0.7359 -0.6731
 7413TIP3    H246435   5.756   4.814  12.227 -0.1207  0.2206 -1.0971
 7414TIP3   OH246436   3.145   1.705  11.786  0.5802  0.3405  0.0381
 7414TIP3    H146437   3.068   1.761  11.780  0.8472  0.7516  0.3512
 7414TIP3    H246438   3.152   1.684  11.879  1.9208  1.8676  0.3318
 7415TIP3   OH246439   0.703   7.858  13.450 -0.1923 -0.3941  0.2629
 7415TIP3    H146440   0.733   7.771  13.477  0.6343 -0.1002  0.3296
 7415TIP3    H246441   0.613   7.844  13.421 -1.2219 -0.7567  3.2411
 7416TIP3   OH246442   7.900   6.130  12.317 -0.2690 -0.8878 -0.1090
 7416TIP3    H146443   7.927   6.040  12.295 -2.4628 -1.3739 -1.0889
 7416TIP3    H246444   7.947   6.185  12.255  0.3469 -1.4241 -0.1403
 7417TIP3   OH246445   7.596   6.890  12.417 -0.2088  0.5134 -0.1261
 7417TIP3    H146446   7.688   6.897  12.391 -0.3761  0.0918 -0.8534
 7417TIP3    H246447   7.547   6.906  12.336 -0.7814  0.7557  0.2575
 7418TIP3   OH246448   8.428   2.174  11.591 -0.0573  0.1438 -0.2212
 7418TIP3    H146449   8.473   2.190  11.508  0.3491  0.1848  0.0080
 7418TIP3    H246450   8.391   2.086  11.581  0.9101 -0.2960 -0.0351
 7419TIP3   OH246451   1.738   8.556  13.529  0.1206 -0.4369  0.5050
 7419TIP3    H146452   1.701   8.633  13.486 -0.0428 -1.8154 -2.0311
 7419TIP3    H246453   1.833   8.565  13.517  0.1160 -0.5222  0.4029
 7420TIP3   OH246454   6.106   4.994  12.891  0.0015  0.2435  0.3139
 7420TIP3    H146455   6.190   4.952  12.872  0.2060  0.4912  0.6619
 7420TIP3    H246456   6.056   4.929  12.940  1.2845  1.2616  3.1553
 7421TIP3   OH246457   0.285   4.207  13.607  0.7165  0.0029 -0.5416
 7421TIP3    H146458   0.287   4.302  13.614  0.4750 -0.0108 -0.2492
 7421TIP3    H246459   0.363   4.185  13.557  1.1381  0.3071 -0.0341
 7422TIP3   OH246460   7.717   6.371  12.265  0.2584  0.1871  0.5783
 7422TIP3    H146461   7.699   6.456  12.305 -1.9506 -0.5994  1.4359
 7422TIP3    H246462   7.702   6.385  12.172 -1.9200  0.3898  0.9017
 7423TIP3   OH246463   8.853   6.930  11.888  0.6158 -0.3596 -0.0350
 7423TIP3    H146464   8.759   6.943  11.897 -0.5250 -4.6739 -2.5955
 7423TIP3    H246465   8.881   6.894  11.973 -0.1166  0.4800  0.5745
 7424TIP3   OH246466   2.205   0.056  12.377 -0.1230  0.4011 -0.1329
 7424TIP3    H146467   2.145  -0.019  12.383  0.0752  0.2169 -0.4286
 7424TIP3    H246468   2.154   0.130  12.410  0.1053 -0.0987  1.4289
 7425TIP3   OH246469   2.809   4.215  12.658 -0.1025  0.1515 -0.1581
 7425TIP3    H146470   2.768   4.130  12.671 -0.5102  0.5512  1.3851
 7425TIP3    H246471   2.741   4.268  12.617 -0.7554  0.4557  1.2628
 7426TIP3   OH246472   1.749   6.149  12.105 -0.4199  0.1108  0.1744
 7426TIP3    H146473   1.836   6.172  12.137 -1.2257  1.2749  1.6620
 7426TIP3    H246474   1.717   6.230  12.066 -0.6048 -0.4962 -0.9839
 7427TIP3   OH246475   1.358   0.562  12.028  0.5184  0.6349  0.6661
 7427TIP3    H146476   1.398   0.475  12.031  0.2450  0.4727 -0.1518
 7427TIP3    H246477   1.266   0.545  12.006 -0.3150  0.9239  3.6111
 7428TIP3   OH246478   2.962   6.629  12.723 -0.4405  0.5915 -0.5020
 7428TIP3    H146479   3.023   6.599  12.655  1.7569  1.6486  0.8897
 7428TIP3    H246480   2.980   6.723  12.732 -2.0855  0.8736  0.1763
 7429TIP3   OH246481   8.955   7.335  12.983 -0.4551  1.0723 -0.2187
 7429TIP3    H146482   9.006   7.348  12.903  1.0366 -1.3822  0.2326
 7429TIP3    H246483   9.019   7.339  13.054 -1.3205  0.6385  0.6209
 7430TIP3   OH246484   8.648   0.291  12.542 -0.6000  0.0176 -0.2551
 7430TIP3    H146485   8.683   0.348  12.473  1.8946 -0.0641  0.8219
 7430TIP3    H246486   8.646   0.347  12.620 -3.1899  0.0504 -0.2779
 7431TIP3   OH246487   1.991   1.188  11.864  0.8486 -0.1692 -0.0475
 7431TIP3    H146488   1.962   1.204  11.774  1.2230  1.2587  0.0716
 7431TIP3    H246489   1.981   1.272  11.909  0.6237 -0.8681  1.2722
 7432TIP3   OH246490   7.731   0.985  11.378  0.4706  0.0376 -1.0025
 7432TIP3    H146491   7.692   1.071  11.361 -0.9763 -0.5686 -0.9639
 7432TIP3    H246492   7.672   0.946  11.444  1.8547 -0.4686 -0.0205
 7433TIP3   OH246493   6.852   8.050  12.725 -0.3358  0.0117 -0.2257
 7433TIP3    H146494   6.819   7.968  12.763 -1.1776 -0.2609 -1.5036
 7433TIP3    H246495   6.797   8.118  12.764 -0.6736 -0.1885 -0.3478
 7434TIP3   OH246496   3.563   4.186  12.229  0.4688  0.2403 -0.2996
 7434TIP3    H146497   3.523   4.180  12.316  0.4875  1.9749 -0.1258
 7434TIP3    H246498   3.537   4.106  12.184  2.7705 -2.1428  2.2086
 7435TIP3   OH246499   6.865   3.759  12.773 -0.2974  0.5399  0.6096
 7435TIP3    H146500   6.890   3.791  12.686 -0.4802 -0.6261  0.1105
 7435TIP3    H246501   6.913   3.677  12.783  0.9236  1.4082  2.2723
 7436TIP3   OH246502   6.629   4.776  12.408  0.2628 -0.8633 -0.0053
 7436TIP3    H146503   6.699   4.737  12.356  0.3636  1.4474 -1.7981
 7436TIP3    H246504   6.673   4.844  12.459 -0.2059 -1.5691  1.3580
 7437TIP3   OH246505   1.424   1.864  12.867 -0.0626 -0.0830 -0.5502
 7437TIP3    H146506   1.442   1.958  12.865  3.0903 -0.4874  1.2340
 7437TIP3    H246507   1.473   1.833  12.943 -1.3899 -3.1341 -0.8175
 7438TIP3   OH246508   0.884   6.725  12.694 -0.2516  0.9046  0.7205
 7438TIP3    H146509   0.918   6.699  12.779  1.9354  3.6492  0.8572
 7438TIP3    H246510   0.856   6.816  12.707 -0.1955  1.2709 -1.3939
 7439TIP3   OH246511   8.662   1.334  13.336  0.0013 -0.3425 -0.0991
 7439TIP3    H146512   8.628   1.281  13.408  1.1826 -0.8113  0.1328
 7439TIP3    H246513   8.740   1.377  13.372  0.9545 -1.0534 -1.2626
 7440TIP3   OH246514   8.918   1.060  12.843 -0.2661  0.0837 -0.3726
 7440TIP3    H146515   8.969   1.138  12.865  2.9784 -2.1713  0.8076
 7440TIP3    H246516   8.842   1.064  12.902  1.9257  0.4228  2.6505
 7441TIP3   OH246517   7.549   0.259  13.242 -0.2540 -0.1762  0.4179
 7441TIP3    H146518   7.491   0.207  13.186 -0.2110 -1.5515  1.6062
 7441TIP3    H246519   7.497   0.278  13.320  0.7412 -1.0956  1.3308
 7442TIP3   OH246520   4.360   5.035  11.756 -0.2366  0.1033 -0.2016
 7442TIP3    H146521   4.381   4.958  11.703 -2.6971 -0.6527 -0.2306
 7442TIP3    H246522   4.319   4.999  11.834 -0.6972  1.3547  0.1542
 7443TIP3   OH246523   5.168   3.138  12.979  0.4167  0.0536 -0.3664
 7443TIP3    H146524   5.174   3.078  13.054 -1.0373  2.0694  1.4755
 7443TIP3    H246525   5.233   3.205  12.996  0.4027  0.2912 -1.1797
 7444TIP3   OH246526   5.993   2.862  11.563 -0.1832 -0.0157 -0.1163
 7444TIP3    H146527   5.954   2.915  11.631  0.1292 -1.0208  0.8767
 7444TIP3    H246528   5.926   2.798  11.540 -0.4229  0.5415 -1.0348
 7445TIP3   OH246529   6.894   6.766  11.616  0.5138  0.5162  0.3082
 7445TIP3    H146530   6.988   6.749  11.613  0.1022 -1.9908 -0.4657
 7445TIP3    H246531   6.864   6.752  11.527 -0.5633  1.6904  0.4606
 7446TIP3   OH246532   2.605   4.985  13.028  0.3565 -0.2404 -0.1016
 7446TIP3    H146533   2.598   4.905  12.976  0.2710  0.5446 -1.3399
 7446TIP3    H246534   2.629   5.053  12.964 -0.0359  0.8100  0.8379
 7447TIP3   OH246535   3.677   9.215  13.560 -0.6440  0.2099  0.0931
 7447TIP3    H146536   3.668   9.306  13.587 -0.6474  0.5443 -0.9814
 7447TIP3    H246537   3.640   9.212  13.471  0.2786 -0.6176 -0.2864
 7448TIP3   OH246538   5.937   1.197  13.114 -0.3210 -0.1205  0.0397
 7448TIP3    H146539   6.020   1.210  13.159 -0.4208  1.3840 -0.1662
 7448TIP3    H246540   5.959   1.196  13.021 -0.4206 -0.7410  0.0162
 7449TIP3   OH246541   6.289   8.892  13.172 -0.8931 -0.4118  0.8243
 7449TIP3    H146542   6.365   8.874  13.117  0.2899 -3.6879  3.1912
 7449TIP3    H246543   6.214   8.890  13.113  0.5177 -0.9036 -1.0168
 7450TIP3   OH246544   8.414   1.223  12.494  0.1836 -0.6247  0.5207
 7450TIP3    H146545   8.323   1.220  12.465 -0.2096 -0.4588  1.6876
 7450TIP3    H246546   8.424   1.310  12.534  0.6197 -0.9419  1.1213
 7451TIP3   OH246547   8.529   8.162  13.281 -0.0225 -0.2587 -0.2222
 7451TIP3    H146548   8.573   8.237  13.322 -1.3216  0.0621  0.6550
 7451TIP3    H246549   8.507   8.193  13.193  2.5270 -0.8507 -1.1446
 7452TIP3   OH246550   2.474   6.245  12.294  0.2129 -0.3717  0.2773
 7452TIP3    H146551   2.530   6.279  12.364 -0.9897  0.4244  0.8861
 7452TIP3    H246552   2.490   6.305  12.220  0.6943 -0.5826  0.2071
 7453TIP3   OH246553   6.371   2.103  12.734 -0.2289 -0.3561  0.2315
 7453TIP3    H146554   6.440   2.049  12.772  0.2285  0.3121  0.3621
 7453TIP3    H246555   6.373   2.081  12.641  0.8589  0.3885  0.0527
 7454TIP3   OH246556   4.136   8.206  11.830 -0.2901 -0.4270  0.6176
 7454TIP3    H146557   4.227   8.219  11.806 -0.6256  1.6807  0.2771
 7454TIP3    H246558   4.131   8.236  11.921 -0.4483 -1.5298  0.9823
 7455TIP3   OH246559   1.735   3.356  12.596  0.4545  0.2125  0.5155
 7455TIP3    H146560   1.750   3.264  12.578  0.3205  0.3020 -0.0586
 7455TIP3    H246561   1.772   3.402  12.521  0.8278  0.6473  0.9590
 7456TIP3   OH246562   3.464   8.555  12.934  0.0061  0.2475 -0.3733
 7456TIP3    H146563   3.530   8.624  12.945 -2.0063  2.1956  0.0974
 7456TIP3    H246564   3.410   8.584  12.860 -1.1949 -0.5624  0.1482
 7457TIP3   OH246565   2.049   1.213  13.486 -0.3270  0.1477 -0.0892
 7457TIP3    H146566   1.972   1.178  13.531  0.4637 -2.7135 -0.8119
 7457TIP3    H246567   2.121   1.156  13.513  1.3294  1.9610 -0.4513
 7458TIP3   OH246568   2.821   7.909  13.095  0.4905 -0.7054  0.2782
 7458TIP3    H146569   2.912   7.892  13.072  0.9707  0.3350  1.3045
 7458TIP3    H246570   2.824   7.933  13.188 -0.7796 -0.2612  0.2209
 7459TIP3   OH246571   7.353   8.107  12.915 -0.4180 -0.0374  0.2819
 7459TIP3    H146572   7.384   8.019  12.892 -0.5574 -0.5584  1.9605
 7459TIP3    H246573   7.433   8.158  12.925 -0.1816 -0.6671  1.8637
 7460TIP3   OH246574   6.019   2.389  11.752 -0.6692  0.1634  0.1932
 7460TIP3    H146575   5.947   2.414  11.693  1.4183  0.9317 -2.1932
 7460TIP3    H246576   6.046   2.303  11.721  0.5946  0.6607 -0.1216
 7461TIP3   OH246577   1.617   7.375  12.205  0.3625 -0.1954 -0.0102
 7461TIP3    H146578   1.659   7.323  12.274 -0.1444 -0.3387  0.1940
 7461TIP3    H246579   1.683   7.440  12.182  1.1360 -1.1157 -0.4885
 7462TIP3   OH246580   8.762   4.456  13.201  0.0806 -0.0858  0.1782
 7462TIP3    H146581   8.830   4.417  13.256 -0.0273  1.1743  1.2501
 7462TIP3    H246582   8.760   4.548  13.227 -1.5764  0.0447 -0.3204
 7463TIP3   OH246583   7.073   1.522  11.575  0.0165  0.4490  0.5657
 7463TIP3    H146584   7.065   1.616  11.593 -0.1502  0.3194  1.1933
 7463TIP3    H246585   7.157   1.498  11.614  0.5451  0.5392 -0.4967
 7464TIP3   OH246586   2.134   5.307  13.166  0.1459  0.0012  0.0322
 7464TIP3    H146587   2.082   5.272  13.094  2.5378  0.4759 -2.0911
 7464TIP3    H246588   2.150   5.232  13.223 -1.5454 -0.4666 -0.0537
 7465TIP3   OH246589   8.422   3.327  13.243  0.2608 -0.0891 -0.2107
 7465TIP3    H146590   8.447   3.381  13.168  2.0075  0.8293  0.9500
 7465TIP3    H246591   8.327   3.320  13.237  0.1239  1.8382 -1.2833
 7466TIP3   OH246592   4.662   1.462  11.742  0.7269 -0.1600 -0.3410
 7466TIP3    H146593   4.668   1.556  11.757  1.9280 -0.3219  0.3132
 7466TIP3    H246594   4.596   1.453  11.673  0.5029  1.1398 -0.3244
 7467TIP3   OH246595   3.203   5.762  12.367 -0.3538 -0.1270 -0.1679
 7467TIP3    H146596   3.273   5.719  12.319  0.6434  0.4951  0.6979
 7467TIP3    H246597   3.189   5.844  12.320 -0.5330 -0.2560 -0.3469
 7468TIP3   OH246598   7.161   6.686  11.548  0.5359  0.0331  0.4356
 7468TIP3    H146599   7.226   6.748  11.512  1.3512 -1.5140 -0.8809
 7468TIP3    H246600   7.203   6.601  11.540 -0.3925 -0.6844  2.6441
 7469TIP3   OH246601   2.716   0.207  11.882  0.9478  0.5312 -0.6041
 7469TIP3    H146602   2.714   0.298  11.852  0.7530  1.2535  1.4939
 7469TIP3    H246603   2.724   0.213  11.977  3.1950 -1.6579 -0.5649
 7470TIP3   OH246604   3.735   0.589  12.850 -0.4249  0.2801 -0.4491
 7470TIP3    H146605   3.821   0.627  12.831  1.2292 -3.0571 -0.4307
 7470TIP3    H246606   3.751   0.495  12.852 -3.8724 -0.4190  0.8924
 7471TIP3   OH246607   3.023   0.795  11.847 -0.2268 -0.1631 -0.3081
 7471TIP3    H146608   3.003   0.879  11.888  0.4195  0.2464 -0.8146
 7471TIP3    H246609   2.944   0.743  11.860 -0.3694  0.2662  0.6482
 7472TIP3   OH246610   7.617   6.963  11.797  0.5984 -0.1236  0.0748
 7472TIP3    H146611   7.616   6.939  11.704 -1.0668  0.9543 -0.2278
 7472TIP3    H246612   7.553   6.906  11.837 -0.7633  1.2864  0.0020
 7473TIP3   OH246613   8.015   0.784  11.485  0.5338 -0.0172 -0.5526
 7473TIP3    H146614   7.944   0.806  11.424 -0.3639 -1.7041 -0.1816
 7473TIP3    H246615   8.095   0.810  11.440 -0.2793  1.9211 -0.9931
 7474TIP3   OH246616   4.004   4.826  11.919 -0.2354  0.3116 -0.8553
 7474TIP3    H146617   3.928   4.771  11.938  1.4278 -0.9282  3.3383
 7474TIP3    H246618   4.059   4.772  11.862 -1.0314 -0.1394 -1.2125
 7475TIP3   OH246619   0.302   1.729  12.790  0.1861 -0.7040 -0.3723
 7475TIP3    H146620   0.343   1.759  12.710 -0.8162 -0.2945 -0.7547
 7475TIP3    H246621   0.241   1.660  12.762  0.0603 -0.7804  0.0739
 7476TIP3   OH246622   4.616   2.695  12.734  0.3643  0.0649  0.2203
 7476TIP3    H146623   4.617   2.772  12.791 -0.2296  0.3283 -0.1172
 7476TIP3    H246624   4.701   2.696  12.690 -0.5142  1.9444 -1.6342
 7477TIP3   OH246625   1.329   3.483  12.210  0.3365  0.0411 -0.5351
 7477TIP3    H146626   1.357   3.555  12.153  1.2717 -0.8038 -1.1894
 7477TIP3    H246627   1.238   3.467  12.186  0.6330 -0.1172 -1.6320
 7478TIP3   OH246628   5.434   4.755  11.748 -0.5938  0.2680  0.5733
 7478TIP3    H146629   5.354   4.808  11.743  0.1558  1.5124  1.3772
 7478TIP3    H246630   5.443   4.733  11.841 -0.1303 -0.0634  0.4527
 7479TIP3   OH246631   1.075   5.731  16.534 -0.1115  0.1007  0.1618
 7479TIP3    H146632   0.982   5.722  16.557 -0.1865  1.7284  0.6281
 7479TIP3    H246633   1.076   5.726  16.439 -0.6987  0.1443  0.1438
 7480TIP3   OH246634   8.639   0.845  11.373 -0.1265  0.0792 -0.6642
 7480TIP3    H146635   8.608   0.761  11.404 -1.4590  1.0860  0.8958
 7480TIP3    H246636   8.734   0.838  11.375 -0.1964 -0.8875  0.9603
 7481TIP3   OH246637   5.741   1.724  11.625 -0.4375  0.0951 -0.3833
 7481TIP3    H146638   5.693   1.667  11.565 -3.8767 -1.3285  3.2288
 7481TIP3    H246639   5.758   1.670  11.702  1.9203  2.2990  0.8100
 7482TIP3   OH246640   6.857   6.016  13.093 -0.2946 -0.4585  0.0923
 7482TIP3    H146641   6.826   5.996  13.005 -1.3842 -2.8816  0.9565
 7482TIP3    H246642   6.795   6.082  13.126  0.5944  1.0827 -1.1648
 7483TIP3   OH246643   9.156   4.077  12.757  0.4614  0.1664 -0.6541
 7483TIP3    H146644   9.223   4.145  12.766  0.8939 -0.0363 -2.0256
 7483TIP3    H246645   9.185   4.006  12.815  1.0475  0.3709 -0.6923
 7484TIP3   OH246646   7.052   1.035  12.256 -0.1077 -0.7332 -0.3282
 7484TIP3    H146647   6.998   1.110  12.281  0.4981 -0.8636  1.5176
 7484TIP3    H246648   7.114   1.070  12.193  0.6626  0.5306  1.0751
 7485TIP3   OH246649   0.932   7.365  12.945 -0.2518 -0.1235  0.1142
 7485TIP3    H146650   0.993   7.346  12.873 -0.8195  0.2359 -0.4696
 7485TIP3    H246651   0.988   7.399  13.015  0.0697  1.6080 -0.9360
 7486TIP3   OH246652   5.030   4.190  12.693  0.4996  0.7727  0.5637
 7486TIP3    H146653   4.943   4.191  12.652  0.9883 -0.4458 -0.5615
 7486TIP3    H246654   5.018   4.141  12.774  0.4490 -0.8808 -0.4027
 7487TIP3   OH246655   2.145   0.247  13.732 -1.0292  0.1783  0.6378
 7487TIP3    H146656   2.085   0.210  13.667 -1.2070  1.1694  0.2150
 7487TIP3    H246657   2.228   0.258  13.685 -0.3580 -1.6134  1.3477
 7488TIP3   OH246658   4.694   7.641  12.086 -0.0487 -0.3403 -0.2828
 7488TIP3    H146659   4.762   7.664  12.023 -0.5255 -3.0475 -1.9678
 7488TIP3    H246660   4.741   7.599  12.158  0.1792 -1.9401 -1.3087
 7489TIP3   OH246661   8.707   3.852  11.816  0.3148  0.0288 -0.1840
 7489TIP3    H146662   8.746   3.906  11.748  0.1771  1.7896  1.0529
 7489TIP3    H246663   8.642   3.908  11.857 -1.0103 -1.6504  0.1320
 7490TIP3   OH246664   1.272   0.329  13.440  0.1711 -0.4301  0.3060
 7490TIP3    H146665   1.271   0.412  13.487  2.3960 -0.3242  0.2351
 7490TIP3    H246666   1.190   0.330  13.390 -1.2376  0.3999  2.4651
 7491TIP3   OH246667   6.543   5.097  12.198  0.0333 -0.2527 -0.3164
 7491TIP3    H146668   6.596   5.171  12.170 -0.2752 -0.2678 -0.9536
 7491TIP3    H246669   6.567   5.026  12.139 -1.8328  0.1755 -1.7060
 7492TIP3   OH246670   5.955   4.836  13.075 -0.4254  0.4114 -0.1103
 7492TIP3    H146671   5.869   4.871  13.053  0.0096  1.9036  0.4452
 7492TIP3    H246672   5.939   4.744  13.096 -1.7884  0.5301 -0.5717
 7493TIP3   OH246673   0.686   6.388  12.727  0.6066  0.0032  0.7327
 7493TIP3    H146674   0.662   6.366  12.637  0.4705 -1.5612  1.1221
 7493TIP3    H246675   0.645   6.474  12.743  0.2244  0.0680 -0.5226
 7494TIP3   OH246676   3.361   1.261  12.520  0.0987  0.6022 -0.4681
 7494TIP3    H146677   3.304   1.199  12.475  2.2733 -0.7588 -1.5270
 7494TIP3    H246678   3.408   1.208  12.586  2.4109  0.8827 -1.7720
 7495TIP3   OH246679   1.478   0.911  12.765  0.2468  0.8192 -0.4108
 7495TIP3    H146680   1.559   0.945  12.727 -0.6336  2.0499 -1.2335
 7495TIP3    H246681   1.491   0.921  12.860  1.3571  0.2772 -0.4896
 7496TIP3   OH246682   8.442   2.333  11.845  0.1868 -0.0895 -0.0351
 7496TIP3    H146683   8.440   2.418  11.803 -0.3665 -0.1813 -0.2097
 7496TIP3    H246684   8.432   2.270  11.773 -1.9114 -0.2131  0.2933
 7497TIP3   OH246685   6.239   0.386  11.703  0.2774 -0.4328 -0.0611
 7497TIP3    H146686   6.182   0.314  11.731  0.7781 -0.2634  1.4853
 7497TIP3    H246687   6.326   0.361  11.733  0.5895  0.4581 -0.2001
 7498TIP3   OH246688   8.350   7.459  12.990 -0.7271  0.2064 -0.3863
 7498TIP3    H146689   8.425   7.518  12.975 -1.5338  1.1062 -0.9843
 7498TIP3    H246690   8.390   7.376  13.014  0.4468  1.3242  1.8295
 7499TIP3   OH246691   3.440   3.948  12.987 -0.1514  0.5943  0.1299
 7499TIP3    H146692   3.385   3.995  13.050 -0.4366  0.7933 -0.2660
 7499TIP3    H246693   3.522   3.998  12.984  0.5894 -0.4340  1.7146
 7500TIP3   OH246694   8.785   3.472  13.118 -0.3635  0.1817 -0.3236
 7500TIP3    H146695   8.841   3.498  13.045 -0.1141  0.8266  0.0820
 7500TIP3    H246696   8.696   3.481  13.085 -0.2384 -1.4739 -1.1836
 7501TIP3   OH246697   4.387   8.988  12.401  0.7153  0.2859  0.1212
 7501TIP3    H146698   4.440   8.908  12.400  0.7592  0.3125  0.2900
 7501TIP3    H246699   4.336   8.984  12.321  0.6335  0.0313  0.1850
 7502TIP3   OH246700   2.226   7.197  13.725 -0.3318 -0.6409  0.2984
 7502TIP3    H146701   2.252   7.289  13.734 -0.7193 -0.5469  0.4945
 7502TIP3    H246702   2.306   7.151  13.700 -0.0812 -0.2899  0.4509
 7503TIP3   OH246703   4.470   3.884  12.230 -0.3232 -0.4806  0.2874
 7503TIP3    H146704   4.422   3.802  12.217  1.7574 -1.3711 -2.7415
 7503TIP3    H246705   4.551   3.873  12.181  1.9480  1.9018  3.0972
 7504TIP3   OH246706   0.367   8.896  12.695  0.2735  0.4471 -0.1247
 7504TIP3    H146707   0.297   8.956  12.720 -0.4340 -0.6942  0.7067
 7504TIP3    H246708   0.432   8.905  12.765 -0.9048 -1.4409  1.3019
 7505TIP3   OH246709   5.241   3.378  11.970 -0.2332  0.2403  0.3178
 7505TIP3    H146710   5.231   3.474  11.966 -1.7798  0.0922 -0.2715
 7505TIP3    H246711   5.177   3.345  11.907  0.1006 -1.1996  0.6936
 7506TIP3   OH246712   0.655   7.338  12.237  0.3993  0.6033 -0.0907
 7506TIP3    H146713   0.603   7.284  12.177  2.1439 -1.1080 -0.1787
 7506TIP3    H246714   0.680   7.414  12.184  0.8669 -0.2649 -1.1719
 7507TIP3   OH246715   5.177   3.258  12.211 -0.1382 -0.0231 -0.3949
 7507TIP3    H146716   5.192   3.294  12.124  0.8669  1.4465  0.3569
 7507TIP3    H246717   5.111   3.315  12.250  1.0177  0.6896  0.5830
 7508TIP3   OH246718   8.590   6.189  13.620  0.4575  0.2968 -0.0655
 7508TIP3    H146719   8.670   6.136  13.628  2.2307  2.1838 -3.1988
 7508TIP3    H246720   8.532   6.137  13.564  0.6724  0.0874 -0.0942
 7509TIP3   OH246721   7.225   1.136  11.942  0.0294  0.1195 -0.5410
 7509TIP3    H146722   7.316   1.115  11.963 -0.8773 -2.3855  1.3744
 7509TIP3    H246723   7.223   1.232  11.939  2.6970  0.2655 -0.6787
 7510TIP3   OH246724   9.074   4.373  11.713  0.3112  0.3607 -0.1862
 7510TIP3    H146725   9.144   4.329  11.663 -0.2998  0.1832 -0.8983
 7510TIP3    H246726   9.086   4.466  11.695  0.2155  0.3117 -0.4974
 7511TIP3   OH246727   2.455   5.054  12.465  0.3450 -0.1992 -0.0848
 7511TIP3    H146728   2.546   5.084  12.463  0.2880  0.0779  1.0720
 7511TIP3    H246729   2.406   5.131  12.492 -0.3965 -0.0192 -1.7954
 7512TIP3   OH246730   5.432   5.731  12.100 -0.1421 -0.2456  0.2503
 7512TIP3    H146731   5.451   5.645  12.064  1.3546  0.3124 -0.3725
 7512TIP3    H246732   5.365   5.767  12.041  1.4528  0.1971 -1.4237
 7513TIP3   OH246733   0.979   4.815  13.049  0.6566 -0.8143  0.1191
 7513TIP3    H146734   0.889   4.794  13.075 -0.1574  1.1341 -0.8752
 7513TIP3    H246735   1.032   4.789  13.124 -0.8048 -1.4709  0.9727
 7514TIP3   OH246736   4.604   0.493  12.202 -0.1826  0.0605  0.4562
 7514TIP3    H146737   4.672   0.524  12.262 -0.4185 -0.7371  1.1583
 7514TIP3    H246738   4.580   0.406  12.235  1.9043 -1.8975 -2.5950
 7515TIP3   OH246739   5.946   1.688  12.183  0.2559  0.4547  0.2848
 7515TIP3    H146740   5.917   1.639  12.106  1.0129  0.7841 -0.2205
 7515TIP3    H246741   5.872   1.745  12.204 -0.8259 -1.1858  1.1567
 7516TIP3   OH246742   8.994   1.062  11.700 -0.3515 -0.8495  0.3196
 7516TIP3    H146743   9.003   1.150  11.738 -0.2584 -1.3833  1.5655
 7516TIP3    H246744   8.900   1.044  11.703 -0.4343 -0.5741 -0.4616
 7517TIP3   OH246745   1.607   5.595  12.986  0.6546  0.1477 -0.4646
 7517TIP3    H146746   1.639   5.653  13.055  0.8936 -1.6195  0.9775
 7517TIP3    H246747   1.681   5.538  12.966  0.3073  0.0558 -1.5803
 7518TIP3   OH246748   3.446   7.503  12.565 -0.2515  0.5482 -0.1678
 7518TIP3    H146749   3.467   7.505  12.472 -0.5731 -3.6552 -0.5253
 7518TIP3    H246750   3.531   7.501  12.609 -0.0106 -0.5475 -0.6359
 7519TIP3   OH246751   0.259   3.790  11.596 -0.1646  0.2384 -0.3354
 7519TIP3    H146752   0.273   3.706  11.552  1.2921  0.5714 -0.5384
 7519TIP3    H246753   0.167   3.788  11.622 -0.8028 -0.4262 -2.4410
 7520TIP3   OH246754   3.220   3.536  12.812 -0.4550  0.6940 -0.0347
 7520TIP3    H146755   3.218   3.585  12.894 -2.3639  0.1063  0.3089
 7520TIP3    H246756   3.224   3.444  12.839  2.5711  0.5356 -0.6658
 7521TIP3   OH246757   1.463   0.737  12.539 -0.0648  0.1441 -0.0838
 7521TIP3    H146758   1.460   0.806  12.472 -2.6185 -0.3927 -0.6225
 7521TIP3    H246759   1.464   0.784  12.622  1.6157  0.8021 -0.4180
 7522TIP3   OH246760   2.290   0.179  12.946 -0.2970 -0.3751 -0.1954
 7522TIP3    H146761   2.368   0.219  12.984 -2.0491  3.0177  0.2058
 7522TIP3    H246762   2.292   0.206  12.854 -0.7740 -0.6230 -0.2835
 7523TIP3   OH246763   2.440   0.924  11.731  0.2490 -0.1889 -0.3573
 7523TIP3    H146764   2.379   0.990  11.765  0.0982  0.7788 -2.3023
 7523TIP3    H246765   2.386   0.870  11.673  0.7099 -1.0046 -0.0348
 7524TIP3   OH246766   1.866   2.793  11.992 -0.2896  0.4394  0.2786
 7524TIP3    H146767   1.771   2.783  12.003 -0.3996  1.0179 -0.0936
 7524TIP3    H246768   1.881   2.782  11.898  0.0023  0.4400  0.3246
 7525TIP3   OH246769   5.380   3.483  12.287 -0.0893 -0.1281  0.2056
 7525TIP3    H146770   5.468   3.458  12.259  0.2734  0.5125  0.7357
 7525TIP3    H246771   5.322   3.444  12.222  0.6156 -0.2227 -0.3802
 7526TIP3   OH246772   4.096   4.552  12.909  0.2232  0.0016 -0.3018
 7526TIP3    H146773   4.164   4.497  12.947  0.2818  1.1997  1.4501
 7526TIP3    H246774   4.139   4.636  12.894 -0.7204  0.6301  0.3820
 7527TIP3   OH246775   2.896   1.945  12.988  0.1350 -0.2265  0.2679
 7527TIP3    H146776   2.960   1.977  13.051 -1.2017 -0.2189  1.6952
 7527TIP3    H246777   2.890   2.014  12.922 -0.7094  1.2640  1.8388
 7528TIP3   OH246778   1.838   5.981  12.441  0.3207 -0.1108 -0.3947
 7528TIP3    H146779   1.841   6.046  12.371 -0.6303 -0.6622 -0.9826
 7528TIP3    H246780   1.766   5.922  12.416  0.6910 -0.9732  0.4768
 7529TIP3   OH246781   2.491   4.156  13.648  0.3869 -0.2159  0.4044
 7529TIP3    H146782   2.405   4.157  13.690 -0.3127 -2.5298 -0.8063
 7529TIP3    H246783   2.533   4.236  13.679 -2.4705  1.4317  0.4245
 7530TIP3   OH246784   6.214   6.508  12.378  0.2674  1.0354  0.0523
 7530TIP3    H146785   6.273   6.434  12.364 -0.9763 -0.1038  0.6810
 7530TIP3    H246786   6.180   6.496  12.466 -2.6646  0.3440 -1.0636
 7531TIP3   OH246787   5.506   8.289  13.343 -0.4875  0.2544 -0.2189
 7531TIP3    H146788   5.587   8.339  13.331 -0.9610  0.9364 -0.6871
 7531TIP3    H246789   5.499   8.236  13.263 -1.2310  1.2872 -0.8702
 7532TIP3   OH246790   1.013   9.214  12.706  0.0674 -0.3041 -0.3776
 7532TIP3    H146791   1.029   9.197  12.613  1.1104 -0.1546 -0.2275
 7532TIP3    H246792   1.099   9.215  12.746 -0.3495  0.0005  0.5390
 7533TIP3   OH246793   7.964   7.996  12.036 -0.7491  0.0102 -0.1901
 7533TIP3    H146794   7.946   7.915  12.084  0.8718  0.3269  1.0193
 7533TIP3    H246795   8.023   8.045  12.093 -1.2069  1.7902 -1.1727
 7534TIP3   OH246796   8.446   1.939  11.418 -0.0319 -0.1150  0.3271
 7534TIP3    H146797   8.424   1.896  11.335  0.3400  0.1291  0.0991
 7534TIP3    H246798   8.407   1.883  11.485  1.9867 -1.8514  0.1546
 7535TIP3   OH246799   7.252   5.986  11.797 -0.1710  0.2631  0.3588
 7535TIP3    H146800   7.311   6.054  11.763 -1.1703  0.3709 -1.2871
 7535TIP3    H246801   7.165   6.025  11.789 -0.7442 -1.1262 -0.4323
 7536TIP3   OH246802   5.519   6.810  12.658  0.2001  0.2503 -0.6338
 7536TIP3    H146803   5.504   6.902  12.682  0.5526  0.5000 -1.3294
 7536TIP3    H246804   5.432   6.771  12.657  0.0167  0.6479 -0.5998
 7537TIP3   OH246805   5.986   8.644  11.748 -0.0792 -0.0913 -0.1518
 7537TIP3    H146806   6.023   8.655  11.661 -0.5339  1.3268 -0.1874
 7537TIP3    H246807   5.964   8.733  11.776 -1.8348 -0.7274  0.5722
 7538TIP3   OH246808   2.408   6.100  11.760 -0.1532  0.5948 -0.5980
 7538TIP3    H146809   2.354   6.033  11.801  0.7168 -0.8019 -1.6584
 7538TIP3    H246810   2.491   6.096  11.808 -0.2054  1.1359 -0.4585
 7539TIP3   OH246811   6.557   0.200  12.066  0.1598  0.0461 -0.6597
 7539TIP3    H146812   6.505   0.133  12.022  0.3631 -0.9130  0.5103
 7539TIP3    H246813   6.503   0.227  12.141  1.6868 -1.7258  1.2033
 7540TIP3   OH246814   7.845   0.222  12.139  0.3947 -0.5464  0.2305
 7540TIP3    H146815   7.810   0.235  12.227 -0.0024 -0.0041  0.0009
 7540TIP3    H246816   7.935   0.193  12.153  0.3933 -0.2733  0.8163
 7541TIP3   OH246817   2.688   6.849  11.714 -0.4598 -0.3409 -0.4193
 7541TIP3    H146818   2.634   6.798  11.653 -1.8153  0.8453 -0.2793
 7541TIP3    H246819   2.627   6.915  11.750  1.5294  2.5314 -1.9064
 7542TIP3   OH246820   1.614   7.007  11.794 -0.0244 -0.0069 -0.4734
 7542TIP3    H146821   1.653   7.037  11.876  0.6154 -0.5593 -0.5689
 7542TIP3    H246822   1.520   7.019  11.807  0.0881  0.1785  0.2299
 7543TIP3   OH246823   5.987   7.885  12.405  0.6420 -0.3018  0.1105
 7543TIP3    H146824   5.980   7.802  12.452  1.1031  0.3552  1.3718
 7543TIP3    H246825   6.023   7.946  12.469  0.9294  0.7207 -0.9907
 7544TIP3   OH246826   4.947   6.848  12.166 -0.8640  0.1115 -0.3071
 7544TIP3    H146827   4.917   6.761  12.139 -0.0557  0.0240 -0.9709
 7544TIP3    H246828   5.042   6.840  12.173 -0.6253  1.2668 -1.6974
 7545TIP3   OH246829   0.580   6.065  13.072  0.6113  0.8666  0.2473
 7545TIP3    H146830   0.643   6.132  13.048  0.7358  0.3930 -0.8035
 7545TIP3    H246831   0.568   6.076  13.167 -0.1265  2.9976 -0.0404
 7546TIP3   OH246832   3.824   3.919  12.888 -0.1172  0.0390 -0.5542
 7546TIP3    H146833   3.773   3.991  12.851 -0.8085 -0.0610  0.1718
 7546TIP3    H246834   3.915   3.950  12.886 -0.1720  0.1650 -1.9917
 7547TIP3   OH246835   2.031   7.740  12.306  0.2049 -0.0325  0.0309
 7547TIP3    H146836   2.023   7.762  12.399 -1.6166 -0.2815 -0.0123
 7547TIP3    H246837   2.048   7.824  12.263 -0.3038  0.3160  0.4851
 7548TIP3   OH246838   3.329   6.330  12.601  0.3653  0.2011  0.4519
 7548TIP3    H146839   3.247   6.300  12.640 -0.0025  0.5476 -0.0394
 7548TIP3    H246840   3.395   6.317  12.669  0.3515 -2.2189  0.0850
 7549TIP3   OH246841   8.986   0.108  12.462 -0.1633 -0.2578  0.4239
 7549TIP3    H146842   9.017   0.045  12.398 -0.2443  0.3481 -0.2245
 7549TIP3    H246843   8.894   0.123  12.439 -0.5987 -1.0568  1.5274
 7550TIP3   OH246844   8.500   1.354  13.656  0.2739  0.2733 -0.0234
 7550TIP3    H146845   8.432   1.343  13.723  0.3525 -0.6188 -0.0801
 7550TIP3    H246846   8.509   1.267  13.617  1.7927  0.2519  0.3069
 7551TIP3   OH246847   3.027   5.003  11.790  0.1617 -0.2969  0.3944
 7551TIP3    H146848   3.055   5.077  11.844  0.3889  0.3365 -0.5480
 7551TIP3    H246849   2.973   4.949  11.847 -0.3440  0.8210  0.9981
 7552TIP3   OH246850   0.004   2.286  12.804 -0.3877  0.0686 -0.4937
 7552TIP3    H146851  -0.086   2.290  12.772 -1.3914 -0.3905  2.0006
 7552TIP3    H246852  -0.004   2.244  12.890  2.0765  1.0741  0.2950
 7553TIP3   OH246853   0.148   3.104  12.308  0.3980  0.3249 -0.0030
 7553TIP3    H146854   0.223   3.101  12.368  0.4190  0.7504 -0.0058
 7553TIP3    H246855   0.153   3.191  12.268  1.5170 -0.5805 -2.0484
 7554TIP3   OH246856   5.817   2.653  11.548  0.2260  0.3725 -0.3386
 7554TIP3    H146857   5.797   2.665  11.641  1.6718 -0.5188  0.1112
 7554TIP3    H246858   5.829   2.559  11.538  1.3042  0.5827 -1.1628
 7555TIP3   OH246859   4.017   3.907  12.633  0.0857 -0.3489 -0.0752
 7555TIP3    H146860   3.959   3.931  12.561  0.7420 -0.7092 -0.7258
 7555TIP3    H246861   4.003   3.813  12.645  1.1197 -0.6068 -0.7769
 7556TIP3   OH246862   2.455   4.541  12.372  0.0913  0.1885 -0.2772
 7556TIP3    H146863   2.496   4.534  12.286  1.6917 -0.4939  0.4972
 7556TIP3    H246864   2.365   4.567  12.354 -0.3991 -2.5270 -2.3429
 7557TIP3   OH246865   6.456   3.711  11.590 -0.2729 -0.0903  0.2407
 7557TIP3    H146866   6.493   3.689  11.675  1.4448  1.5435 -0.0257
 7557TIP3    H246867   6.504   3.658  11.527  1.2862  1.5816 -0.0458
 7558TIP3   OH246868   4.694   5.455  12.196 -0.8297  0.0544  0.8691
 7558TIP3    H146869   4.679   5.361  12.183 -0.9783  0.1469  0.3631
 7558TIP3    H246870   4.749   5.460  12.274  0.0977 -0.5124  0.2672
 7559TIP3   OH246871   5.213   3.026  11.918 -0.2411 -0.1889  0.3057
 7559TIP3    H146872   5.224   2.932  11.912  1.5107 -0.0383  0.5870
 7559TIP3    H246873   5.238   3.048  12.008  1.9311  0.8036 -0.4744
 7560TIP3   OH246874   6.188   6.984  12.032 -0.0973 -0.1770  0.0720
 7560TIP3    H146875   6.256   6.927  11.995 -0.3234  0.9775 -2.3472
 7560TIP3    H246876   6.199   7.067  11.984 -0.9154  1.2356  2.2077
 7561TIP3   OH246877   0.899   0.146  11.750  0.3543 -0.5617  0.8644
 7561TIP3    H146878   0.835   0.210  11.719  1.7662 -0.8485 -3.3843
 7561TIP3    H246879   0.847   0.070  11.774 -1.0647 -0.5596 -1.8138
 7562TIP3   OH246880   0.452   3.513  13.337 -0.3813 -0.1682 -0.1414
 7562TIP3    H146881   0.502   3.589  13.307  0.2456 -0.8909 -0.9922
 7562TIP3    H246882   0.376   3.550  13.381 -1.3017  0.9695 -2.5352
 7563TIP3   OH246883   5.519   8.226  12.145 -0.0253 -0.2683 -0.4279
 7563TIP3    H146884   5.608   8.192  12.140  0.5575  1.0560  0.3956
 7563TIP3    H246885   5.519   8.302  12.086 -0.3306  0.2911  0.2780
 7564TIP3   OH246886   7.986   2.496  11.468  0.1641 -0.4014 -0.2939
 7564TIP3    H146887   7.934   2.492  11.388 -0.4400  0.2017  0.0671
 7564TIP3    H246888   7.923   2.511  11.538  0.7117 -0.7139  0.2788
 7565TIP3   OH246889   6.051   9.093  12.713  0.6640  0.3326 -0.0286
 7565TIP3    H146890   6.103   9.105  12.793  1.2243 -0.1522 -0.3148
 7565TIP3    H246891   6.022   9.182  12.690  1.3777  0.6185  0.1320
 7566TIP3   OH246892   7.958   2.141  13.042  0.1405 -0.2989 -0.5462
 7566TIP3    H146893   7.997   2.106  13.122 -0.9039 -2.1491 -0.7648
 7566TIP3    H246894   8.032   2.161  12.985  0.8631  0.1247  0.5283
 7567TIP3   OH246895   3.505   9.168  13.357 -0.1469 -0.7800 -0.1236
 7567TIP3    H146896   3.468   9.213  13.281 -0.7669 -0.7506  0.1869
 7567TIP3    H246897   3.429   9.142  13.409  0.2802 -0.1938  0.8341
 7568TIP3   OH246898   2.125   4.187  11.677 -0.2927  0.2957  0.6511
 7568TIP3    H146899   2.156   4.276  11.662 -2.0168  0.8372  0.1352
 7568TIP3    H246900   2.183   4.153  11.745  0.7230  1.6221  0.4903
 7569TIP3   OH246901   3.228   0.424  12.673  0.2632  0.1232  0.1393
 7569TIP3    H146902   3.283   0.474  12.613  0.0497  0.7292  0.4434
 7569TIP3    H246903   3.280   0.417  12.753 -0.8186  2.3756  1.1254
 7570TIP3   OH246904   2.324   5.521  13.117 -0.4212  0.1366 -0.0934
 7570TIP3    H146905   2.305   5.427  13.119 -1.2387  0.3084  1.1032
 7570TIP3    H246906   2.240   5.563  13.101 -0.0452  0.6751 -0.7246
 7571TIP3   OH246907   1.123   3.959  11.605 -0.5820  0.3209 -1.0293
 7571TIP3    H146908   1.041   3.925  11.640 -0.3296  0.5501 -0.1805
 7571TIP3    H246909   1.140   4.038  11.657  0.0914  0.3577 -1.2961
 7572TIP3   OH246910   7.792   5.106  11.894  0.2621 -0.2623  0.6004
 7572TIP3    H146911   7.741   5.052  11.954 -0.7086  2.1308  2.0614
 7572TIP3    H246912   7.787   5.059  11.810 -1.5339 -1.8131  1.4952
 7573TIP3   OH246913   0.331   6.779  12.695  0.2201 -0.1086 -0.1280
 7573TIP3    H146914   0.276   6.772  12.773 -1.6314 -0.3553 -1.3716
 7573TIP3    H246915   0.323   6.871  12.668  1.2818  0.1029  0.2561
 7574TIP3   OH246916   3.784   1.015  12.786 -0.1260 -0.1119 -0.4990
 7574TIP3    H146917   3.697   1.039  12.756 -0.3194  0.9763  0.8442
 7574TIP3    H246918   3.769   0.954  12.859  0.3074 -1.8023 -1.7629
 7575TIP3   OH246919   8.832   3.930  12.793 -0.4641 -0.2459  0.3259
 7575TIP3    H146920   8.752   3.880  12.808 -1.5484  0.6338 -2.0146
 7575TIP3    H246921   8.828   4.003  12.855 -1.2434 -0.4510  0.5217
 7576TIP3   OH246922   0.142   7.105  11.722 -0.0468  0.0602 -0.1121
 7576TIP3    H146923   0.207   7.168  11.692 -0.0579 -0.2264 -0.7532
 7576TIP3    H246924   0.193   7.033  11.759  0.0090 -0.2599 -0.8083
 7577TIP3   OH246925   7.472   3.654  12.242 -0.1349 -0.0153 -0.1293
 7577TIP3    H146926   7.551   3.706  12.255  0.0656 -0.6245  1.3938
 7577TIP3    H246927   7.400   3.715  12.258  0.0939 -0.0890  1.3771
 7578TIP3   OH246928   3.713   5.774  11.708 -0.2012  0.6028  0.1163
 7578TIP3    H146929   3.631   5.776  11.757 -0.9339 -0.3808 -1.0121
 7578TIP3    H246930   3.740   5.866  11.701 -0.6125  0.8442  1.4284
 7579TIP3   OH246931   2.288   3.959  12.682 -0.4279 -0.2914  0.5125
 7579TIP3    H146932   2.329   3.893  12.627  1.2542 -0.4461  1.8600
 7579TIP3    H246933   2.238   3.909  12.747 -1.0662 -0.1578  0.1313
 7580TIP3   OH246934   0.520   1.919  12.068 -0.7422  0.3619  0.3377
 7580TIP3    H146935   0.605   1.962  12.076  2.6171 -5.3913  1.1816
 7580TIP3    H246936   0.478   1.930  12.153  0.6386  0.6666  0.9954
 7581TIP3   OH246937   8.630   0.098  12.064 -0.0061 -0.2273  0.5280
 7581TIP3    H146938   8.591   0.180  12.096 -1.6944 -0.9559  0.4210
 7581TIP3    H246939   8.568   0.066  11.999  2.2089  0.0347 -1.8840
 7582TIP3   OH246940   1.112   7.389  13.165  0.0383  0.1889 -0.1165
 7582TIP3    H146941   1.202   7.421  13.165  0.2987 -0.4633 -1.6014
 7582TIP3    H246942   1.062   7.458  13.208  1.3018  0.3333  1.2016
 7583TIP3   OH246943   5.081   2.520  13.065 -0.0438 -0.8593 -0.2668
 7583TIP3    H146944   5.024   2.591  13.036  0.3066 -0.5322 -0.1681
 7583TIP3    H246945   5.028   2.441  13.057 -0.3568 -0.6157 -0.6061
 7584TIP3   OH246946   7.642   1.042  12.239  0.4131 -0.3640  0.4511
 7584TIP3    H146947   7.718   1.036  12.296  2.0045 -0.3651 -1.5465
 7584TIP3    H246948   7.606   0.953  12.237  0.0568 -0.2673  1.7563
 7585TIP3   OH246949   1.639   6.508  12.808 -0.1740 -0.9825 -0.1924
 7585TIP3    H146950   1.615   6.598  12.833 -1.1033 -1.0241 -0.8656
 7585TIP3    H246951   1.613   6.455  12.883  1.0906 -0.6181  0.5312
 7586TIP3   OH246952   3.222   0.503  13.113  0.2306  0.1449  0.7061
 7586TIP3    H146953   3.244   0.453  13.192  1.9426 -0.5123 -0.1427
 7586TIP3    H246954   3.295   0.487  13.053 -1.1968  0.3178 -1.1692
 7587TIP3   OH246955   5.360   4.229  13.237 -0.6938 -0.0832  0.0196
 7587TIP3    H146956   5.348   4.281  13.158  0.6962 -0.6210 -0.5842
 7587TIP3    H246957   5.361   4.293  13.309  0.7642  0.7212 -0.6842
 7588TIP3   OH246958   0.351   4.029  12.530 -0.1106 -0.7464 -0.1507
 7588TIP3    H146959   0.416   4.027  12.460  1.1118  0.6012  0.8816
 7588TIP3    H246960   0.273   4.065  12.489  0.2558 -0.9352 -1.0456
 7589TIP3   OH246961   6.053   7.607  12.554 -0.4075 -0.0636 -0.6795
 7589TIP3    H146962   6.060   7.607  12.650 -0.7441 -0.0508 -0.6533
 7589TIP3    H246963   6.143   7.594  12.524 -0.3202 -0.2332 -0.3598
 7590TIP3   OH246964   0.464   0.158  12.445  0.1778  0.5927  0.6634
 7590TIP3    H146965   0.525   0.087  12.462 -1.1233 -0.8639 -0.4756
 7590TIP3    H246966   0.519   0.230  12.415  1.4635 -0.1719  1.1126
 7591TIP3   OH246967   0.961   0.562  12.599  0.0065  0.1871 -0.3755
 7591TIP3    H146968   0.953   0.539  12.507  0.1881  1.9569 -0.8682
 7591TIP3    H246969   1.055   0.572  12.613  0.2196 -2.4230  0.6721
 7592TIP3   OH246970   1.313   4.690  13.206  0.0232 -0.1356  0.0967
 7592TIP3    H146971   1.376   4.752  13.169 -0.9089  0.5483 -0.3935
 7592TIP3    H246972   1.237   4.744  13.230 -3.0640 -1.4911 -5.0543
 7593TIP3   OH246973   1.395   2.102  12.400  0.2954  0.1114  0.7976
 7593TIP3    H146974   1.388   2.155  12.480  0.6272 -1.2058  1.7233
 7593TIP3    H246975   1.305   2.077  12.379  0.0789  1.3950  0.0776
 7594TIP3   OH246976   3.175   6.297  12.183 -0.2544 -0.1461  0.6771
 7594TIP3    H146977   3.239   6.303  12.254 -1.4501  0.1817  1.7640
 7594TIP3    H246978   3.193   6.373  12.128  0.9703 -0.6402  0.3523
 7595TIP3   OH246979   3.533   8.333  13.076 -0.0374  0.1614  0.2264
 7595TIP3    H146980   3.628   8.331  13.069 -0.0252  0.4567  0.2893
 7595TIP3    H246981   3.508   8.420  13.042 -0.3641 -0.2944 -0.7437
 7596TIP3   OH246982   1.097   6.785  12.528  0.1669 -0.1659  0.7445
 7596TIP3    H146983   1.122   6.713  12.470  1.9801  0.9219  0.1346
 7596TIP3    H246984   1.027   6.747  12.583  0.6127 -2.1833  0.0141
 7597TIP3   OH246985   3.742   7.043  13.214  0.4898 -0.6755 -0.3734
 7597TIP3    H146986   3.758   7.116  13.274  0.8281 -1.1299  0.1014
 7597TIP3    H246987   3.647   7.044  13.199  0.4110 -0.5248  0.1300
 7598TIP3   OH246988   7.147   5.213  12.210 -0.2294  0.0796 -0.6119
 7598TIP3    H146989   7.226   5.215  12.264 -1.2373 -2.0261  1.0995
 7598TIP3    H246990   7.179   5.191  12.123  1.1205 -0.4492 -0.0213
 7599TIP3   OH246991   1.624   0.284  13.203 -0.0630  0.0540 -0.2368
 7599TIP3    H146992   1.607   0.203  13.253 -1.1159 -0.2870 -1.1076
 7599TIP3    H246993   1.702   0.264  13.152 -0.3290 -0.4298 -0.4631
 7600TIP3   OH246994   4.254   5.170  12.545  0.2620  0.2423 -0.1536
 7600TIP3    H146995   4.345   5.193  12.561  0.5270 -0.0464 -1.2178
 7600TIP3    H246996   4.215   5.249  12.507  0.1125  0.2979  0.1097
 7601TIP3   OH246997   3.510   4.429  13.342 -0.4630 -0.0527  0.4289
 7601TIP3    H146998   3.598   4.393  13.330 -0.6976  0.1332 -2.7435
 7601TIP3    H246999   3.509   4.509  13.288 -1.6761  1.7006  2.8649
 7602TIP3   OH247000   0.798   6.329  11.857  0.4254 -0.0028 -0.2009
 7602TIP3    H147001   0.810   6.418  11.893  1.3645  0.0309 -0.5572
 7602TIP3    H247002   0.781   6.275  11.934 -0.9676  0.6085 -0.0585
 7603TIP3   OH247003   9.005   4.645  12.003 -0.0887 -0.2322 -0.0343
 7603TIP3    H147004   9.072   4.649  12.071  1.1954  0.6391 -1.2935
 7603TIP3    H247005   9.022   4.722  11.948 -2.2282  0.1068 -0.3053
 7604TIP3   OH247006   5.171   5.585  12.250 -0.5316 -0.5128  0.0563
 7604TIP3    H147007   5.146   5.520  12.185 -0.2311 -0.9297  0.3514
 7604TIP3    H247008   5.151   5.544  12.334  0.1751 -0.4564  0.2610
 7605TIP3   OH247009   0.129   7.539  11.894 -0.1613  0.4032 -0.4680
 7605TIP3    H147010   0.160   7.536  11.985 -2.6233 -0.8016  0.4187
 7605TIP3    H247011   0.202   7.507  11.842  2.1664  3.2740  0.7324
 7606TIP3   OH247012   3.371   1.106  13.472  0.0791 -0.4300  0.4994
 7606TIP3    H147013   3.284   1.125  13.437  0.5913 -0.6698 -0.9771
 7606TIP3    H247014   3.405   1.191  13.499  0.5607  0.1921 -1.8122
 7607TIP3   OH247015   5.016   8.381  12.272  0.2195  0.0755  0.4754
 7607TIP3    H147016   4.939   8.374  12.328  0.2612 -0.0531  0.5178
 7607TIP3    H247017   5.076   8.315  12.307  0.4730  0.3874  0.6424
 7608TIP3   OH247018   0.730   4.544  12.014 -0.4128  0.2873  0.0524
 7608TIP3    H147019   0.792   4.518  12.081 -2.1219 -0.2870  1.4957
 7608TIP3    H247020   0.710   4.636  12.034  1.2615  1.0618 -1.5228
 7609TIP3   OH247021   4.755   4.547  13.531  0.2426  0.3312  0.4469
 7609TIP3    H147022   4.737   4.534  13.438  0.4680  2.9551 -0.0449
 7609TIP3    H247023   4.817   4.478  13.554  2.3022  1.1777 -2.0981
 7610TIP3   OH247024   1.376   5.999  12.508 -0.2001 -0.6297 -0.5968
 7610TIP3    H147025   1.470   6.006  12.524 -0.2030 -1.3048 -0.2772
 7610TIP3    H247026   1.369   5.979  12.415  0.0381 -1.9388 -0.3500
 7611TIP3   OH247027   9.156   4.612  13.115  0.5169  0.6142  0.6728
 7611TIP3    H147028   9.089   4.669  13.150 -0.0605 -0.2439  1.0092
 7611TIP3    H247029   9.235   4.634  13.164  0.1643  0.7208  1.1909
 7612TIP3   OH247030   4.961   2.823  12.248 -0.5441  0.4405 -0.0718
 7612TIP3    H147031   5.004   2.892  12.298  0.5127  0.0447 -0.3856
 7612TIP3    H247032   4.889   2.866  12.203  1.0328  1.7092 -1.5123
 7613TIP3   OH247033   6.161   0.606  12.536  0.6961 -0.2109 -0.0328
 7613TIP3    H147034   6.069   0.580  12.541  1.2544 -2.9483 -1.7524
 7613TIP3    H247035   6.177   0.654  12.617 -2.2054  0.3074  0.3248
 7614TIP3   OH247036   1.807   8.403  12.698 -0.0150  0.1654  0.8830
 7614TIP3    H147037   1.735   8.346  12.725 -0.4715  0.1354 -0.3635
 7614TIP3    H247038   1.766   8.488  12.682  0.1886  0.1068  0.0048
 7615TIP3   OH247039   0.035   8.290  12.435  0.5742 -0.1321  0.2143
 7615TIP3    H147040   0.120   8.249  12.418  1.1194  1.2021 -0.4328
 7615TIP3    H247041  -0.016   8.273  12.355  0.5291 -0.2226  0.2630
 7616TIP3   OH247042   9.109   0.355  11.734  0.9954 -0.3113  0.1960
 7616TIP3    H147043   9.083   0.284  11.675 -0.9765  0.1727  0.3935
 7616TIP3    H247044   9.105   0.434  11.680  0.7734 -0.0627  0.5668
 7617TIP3   OH247045   6.934   3.128  11.490 -0.5390  0.0620  0.3349
 7617TIP3    H147046   6.965   3.155  11.576  3.1546 -1.6639 -0.2536
 7617TIP3    H247047   6.915   3.210  11.444  2.6989  1.3945  1.1134
 7618TIP3   OH247048   3.639   5.484  12.344  0.4522 -0.1740  0.5411
 7618TIP3    H147049   3.672   5.502  12.256  2.2959  1.1608  1.4323
 7618TIP3    H247050   3.663   5.561  12.395  0.8831 -1.5757  2.5832
 7619TIP3   OH247051   5.472   1.225  12.826 -0.5261 -0.0650  0.1088
 7619TIP3    H147052   5.441   1.297  12.771 -1.2362 -0.1678  0.3657
 7619TIP3    H247053   5.449   1.251  12.915 -1.2210 -0.8247  0.1560
 7620TIP3   OH247054   6.080   4.165  12.896  0.3610  0.0755 -0.7412
 7620TIP3    H147055   6.083   4.075  12.929  1.8945  0.6583  0.8489
 7620TIP3    H247056   6.057   4.156  12.804  0.9999 -1.9940 -0.7399
 7621TIP3   OH247057   0.355   3.268  11.394 -0.0726  0.2805 -0.0156
 7621TIP3    H147058   0.328   3.182  11.427  0.5483 -0.0645 -0.3600
 7621TIP3    H247059   0.441   3.251  11.354 -1.4904  0.2628 -3.3599
 7622TIP3   OH247060   8.169   3.081  12.141  0.4185 -0.9444 -0.4100
 7622TIP3    H147061   8.167   3.082  12.045 -0.9804  0.2940 -0.4040
 7622TIP3    H247062   8.256   3.115  12.163 -0.6175  2.8452 -1.3149
 7623TIP3   OH247063   0.719   0.668  12.457  0.3676  0.2943  0.2131
 7623TIP3    H147064   0.804   0.658  12.499  0.6046 -1.6359 -0.6368
 7623TIP3    H247065   0.740   0.693  12.367  0.0999 -1.3160 -0.3134
 7624TIP3   OH247066   1.723   0.187  12.209 -0.1698  0.1468  0.1573
 7624TIP3    H147067   1.808   0.232  12.207  1.2341 -2.2221 -3.1225
 7624TIP3    H247068   1.740   0.107  12.258 -0.3969 -0.4126 -0.6468
 7625TIP3   OH247069   0.935   1.369  12.197  0.0884  0.1194 -0.2803
 7625TIP3    H147070   0.976   1.383  12.283 -0.6817  1.7248 -0.1300
 7625TIP3    H247071   0.988   1.420  12.136 -1.3359  1.8378 -0.1586
 7626TIP3   OH247072   5.040   6.939  12.445 -0.6120 -0.0211  0.2006
 7626TIP3    H147073   4.953   6.976  12.428 -0.9967 -0.6345  0.7818
 7626TIP3    H247074   5.022   6.851  12.477  0.2835 -0.7563 -1.2049
 7627TIP3   OH247075   7.767   6.545  11.492 -0.2921  0.1246  0.0483
 7627TIP3    H147076   7.819   6.470  11.520 -0.5262 -0.2209 -0.4477
 7627TIP3    H247077   7.827   6.620  11.501  0.1526 -0.2101 -0.1088
 7628TIP3   OH247078   8.611   4.321  12.450  0.0670 -0.9983  0.0605
 7628TIP3    H147079   8.557   4.255  12.407  1.1112 -1.3173 -0.7933
 7628TIP3    H247080   8.700   4.305  12.418  0.5879 -0.1254  0.9940
 7629TIP3   OH247081   7.424   3.179  12.003  0.2720  0.5121 -0.6596
 7629TIP3    H147082   7.407   3.273  12.008 -0.4844  0.3491  0.2030
 7629TIP3    H247083   7.368   3.148  11.932 -0.1422  0.5830 -0.3685
 7630TIP3   OH247084   2.128   8.566  12.190  0.0381 -0.3275 -0.3921
 7630TIP3    H147085   2.167   8.485  12.224  1.0615  1.5005  3.3720
 7630TIP3    H247086   2.201   8.627  12.182 -0.7259  0.3676 -3.0820
 7631TIP3   OH247087   8.943   6.164  13.514 -0.1843 -0.0151  0.2178
 7631TIP3    H147088   8.919   6.140  13.603 -0.3232 -0.2700  0.1124
 7631TIP3    H247089   8.881   6.233  13.490 -0.4157 -0.2381  0.1699
 7632TIP3   OH247090   3.427   0.918  12.350 -0.3637 -0.9306  0.6402
 7632TIP3    H147091   3.349   0.895  12.401 -0.5737 -0.8368  0.3664
 7632TIP3    H247092   3.412   0.877  12.265 -1.9590  2.2085 -0.7740
 7633TIP3   OH247093   1.398   2.337  13.073 -0.2371 -0.1681 -0.0275
 7633TIP3    H147094   1.445   2.283  13.137 -0.4803 -1.8197 -1.1640
 7633TIP3    H247095   1.343   2.394  13.125  0.5844 -0.5098  1.2608
 7634TIP3   OH247096   0.869   2.387  11.778  0.0594 -0.0815  0.3523
 7634TIP3    H147097   0.871   2.423  11.867 -0.1816  0.8434 -0.0064
 7634TIP3    H247098   0.960   2.387  11.750  0.0160  0.6807  0.1930
 7635TIP3   OH247099   3.102   3.932  12.159 -0.1870  0.3517 -0.1311
 7635TIP3    H147100   3.092   4.008  12.103 -0.7347  0.4716  0.1267
 7635TIP3    H247101   3.157   3.872  12.108  1.2375  1.3685  0.1246
 7636TIP3   OH247102   3.560   2.496  12.575  0.0084 -0.2988  0.2059
 7636TIP3    H147103   3.639   2.476  12.626  0.6323  2.4748  0.4791
 7636TIP3    H247104   3.490   2.499  12.640 -0.0611 -1.2891  0.1871
 7637TIP3   OH247105   0.433   6.059  12.834  0.1032 -0.4044 -0.5796
 7637TIP3    H147106   0.442   6.047  12.929  0.2759 -0.7554 -0.6371
 7637TIP3    H247107   0.523   6.069  12.803  0.0433 -0.2407 -0.7011
 7638TIP3   OH247108   1.667   7.545  13.531 -0.7050  0.1575  0.0540
 7638TIP3    H147109   1.618   7.487  13.589 -0.0013 -0.6389 -0.1257
 7638TIP3    H247110   1.625   7.536  13.445 -0.0056 -0.8342 -0.1920
 7639TIP3   OH247111   3.992   3.647  12.656 -0.3087 -0.1503  0.2586
 7639TIP3    H147112   3.925   3.640  12.725  1.2840 -0.6673  1.8401
 7639TIP3    H247113   4.018   3.557  12.639  1.0842  0.1188  0.8396
 7640TIP3   OH247114   2.701   8.673  13.601  0.7331  0.1392  0.2761
 7640TIP3    H147115   2.628   8.641  13.548  0.0549  0.1524  1.1765
 7640TIP3    H247116   2.711   8.607  13.670  1.4835  0.2084  0.2355
 7641TIP3   OH247117   7.239   7.465  11.949 -0.1056  0.6859 -0.6350
 7641TIP3    H147118   7.228   7.486  11.856  0.0196  2.4918 -0.2726
 7641TIP3    H247119   7.323   7.504  11.973 -0.1176  0.2002  0.2228
 7642TIP3   OH247120   3.772   6.362  12.485 -0.3224 -0.2061  0.2053
 7642TIP3    H147121   3.683   6.355  12.521 -0.6359 -1.4683 -0.7347
 7642TIP3    H247122   3.765   6.324  12.398  1.1215 -0.1992  0.0724
 7643TIP3   OH247123   3.678   2.572  12.309  0.6186  0.0714 -0.2966
 7643TIP3    H147124   3.652   2.508  12.376  1.2585  1.0065  0.8701
 7643TIP3    H247125   3.729   2.520  12.247  0.5534 -0.6982  0.2656
 7644TIP3   OH247126   7.504   7.509  11.676 -0.3856  0.2587  0.4449
 7644TIP3    H147127   7.476   7.430  11.722 -0.1221  0.3717  0.8031
 7644TIP3    H247128   7.503   7.577  11.743  2.2581 -0.0258  0.9023
 7645TIP3   OH247129   8.898   7.430  11.688  0.0096 -0.4938 -0.3077
 7645TIP3    H147130   8.919   7.421  11.781 -2.3446  0.6971  0.4153
 7645TIP3    H247131   8.901   7.524  11.672 -0.6974 -0.6090 -1.1629
 7646TIP3   OH247132   3.393   7.253  12.930  0.0737  0.1630 -0.7173
 7646TIP3    H147133   3.321   7.239  12.868 -0.2476 -0.4776 -0.2082
 7646TIP3    H247134   3.472   7.254  12.875 -0.3218  0.9642 -1.2860
 7647TIP3   OH247135   7.740   4.052  12.315 -0.4005  0.3261 -0.3833
 7647TIP3    H147136   7.717   4.076  12.225 -1.3740 -0.1379 -0.2659
 7647TIP3    H247137   7.828   4.088  12.327  0.6047 -1.3371 -2.2026
 7648TIP3   OH247138   1.214   0.909  12.782 -0.3365 -0.0945 -0.0926
 7648TIP3    H147139   1.176   0.882  12.866  1.0264  0.0470  0.6035
 7648TIP3    H247140   1.307   0.886  12.789 -0.1168  0.3060 -1.4017
 7649TIP3   OH247141   1.400   1.734  12.367 -0.5620 -0.3347 -0.0370
 7649TIP3    H147142   1.365   1.722  12.279 -0.6858 -1.7871  0.1849
 7649TIP3    H247143   1.329   1.708  12.426 -0.5205  0.7295  0.5008
 7650TIP3   OH247144   0.139   3.632  13.773  0.1139 -0.4596  0.0716
 7650TIP3    H147145   0.219   3.676  13.743 -0.1971  1.2271  1.6002
 7650TIP3    H247146   0.074   3.702  13.778 -0.6930 -1.2803  1.5602
 7651TIP3   OH247147   6.750   0.049  12.451 -0.2123  0.4878 -0.2539
 7651TIP3    H147148   6.662   0.070  12.484 -0.9811 -1.2709 -1.0315
 7651TIP3    H247149   6.782   0.130  12.413 -1.3814  1.2451  0.3209
 7652TIP3   OH247150   0.539   4.286  12.477  0.0432 -1.0279 -0.2917
 7652TIP3    H147151   0.619   4.338  12.488  1.4764 -2.7240 -2.0440
 7652TIP3    H247152   0.475   4.348  12.444  0.9320  0.1560  0.1200
 7653TIP3   OH247153   6.375   2.184  13.133 -0.6584  0.0760  0.3381
 7653TIP3    H147154   6.430   2.256  13.101  2.2883 -1.9431  0.4104
 7653TIP3    H247155   6.320   2.224  13.200 -1.0835  2.7406 -1.4690
 7654TIP3   OH247156   7.663   0.627  12.047  0.0776 -0.5129  0.1041
 7654TIP3    H147157   7.579   0.586  12.025 -0.6087  0.2532  1.2501
 7654TIP3    H247158   7.685   0.680  11.970 -0.7123 -0.3629 -0.0214
 7655TIP3   OH247159   9.099   6.710  11.708 -0.0171 -0.8365 -0.1267
 7655TIP3    H147160   9.130   6.727  11.797 -0.2428  0.7426 -0.3069
 7655TIP3    H247161   9.104   6.796  11.665 -0.9004 -1.3592 -1.3208
 7656TIP3   OH247162   0.832   4.782  11.781 -0.2146 -0.1184 -0.0318
 7656TIP3    H147163   0.871   4.823  11.858 -0.1563  1.4307 -0.8487
 7656TIP3    H247164   0.894   4.713  11.757 -0.1866 -0.5555  1.2273
 7657TIP3   OH247165   7.098   0.777  13.067  0.4657  0.1151 -0.6294
 7657TIP3    H147166   7.111   0.685  13.045 -0.1599  0.1184 -1.0054
 7657TIP3    H247167   7.129   0.784  13.158  0.6206 -0.4388 -0.6369
 7658TIP3   OH247168   3.286   1.992  13.305 -0.3072  0.1721 -0.2171
 7658TIP3    H147169   3.327   1.942  13.235 -1.7039 -1.3772  0.0307
 7658TIP3    H247170   3.350   2.061  13.325  1.0794 -0.6796 -1.4845
 7659TIP3   OH247171   0.763   4.243  12.780 -0.7506  0.3225  0.2521
 7659TIP3    H147172   0.670   4.250  12.759 -0.4157  1.5480 -0.9791
 7659TIP3    H247173   0.790   4.333  12.802 -0.1314 -0.2247  1.9455
 7660TIP3   OH247174   8.042   1.002  13.081 -0.0848  0.2372 -0.2836
 7660TIP3    H147175   8.127   0.962  13.063 -0.3129 -0.8424  0.8772
 7660TIP3    H247176   8.060   1.096  13.083  1.0638  0.0357 -0.1923
 7661TIP3   OH247177   5.145   8.876  12.091 -0.1299 -0.2199 -0.0083
 7661TIP3    H147178   5.118   8.791  12.127  1.3826 -0.7442 -0.0517
 7661TIP3    H247179   5.235   8.862  12.061 -0.4833  0.8885 -1.7354
 7662TIP3   OH247180   2.108   4.744  12.231 -0.2252  0.3613 -0.3322
 7662TIP3    H147181   2.115   4.683  12.158  0.1953 -1.2490  1.0003
 7662TIP3    H247182   2.184   4.801  12.221  0.1825 -0.2511 -0.7851
 7663TIP3   OH247183   0.971   4.494  13.891  0.3662  0.0496 -0.0018
 7663TIP3    H147184   0.944   4.582  13.916 -1.6690  0.3959 -2.8776
 7663TIP3    H247185   0.894   4.440  13.908  1.5034 -1.1964  1.4795
 7664TIP3   OH247186   1.521   7.983  11.898 -0.1616  0.0252  0.1331
 7664TIP3    H147187   1.564   7.937  11.970  0.6793 -0.1648 -0.4746
 7664TIP3    H247188   1.532   7.925  11.823 -1.3766  0.0337 -0.0818
 7665TIP3   OH247189   8.748   2.170  12.237  0.0607 -0.4184 -0.1144
 7665TIP3    H147190   8.726   2.208  12.152  0.2325 -1.2155 -0.5227
 7665TIP3    H247191   8.839   2.142  12.229  0.5120  0.7218  0.7875
 7666TIP3   OH247192   7.197   7.306  11.635  0.4956 -0.1397 -0.4775
 7666TIP3    H147193   7.150   7.289  11.717 -2.9925  0.6038 -2.1368
 7666TIP3    H247194   7.212   7.220  11.598 -2.8594 -0.4791 -1.4438
 7667TIP3   OH247195   7.682   7.906  12.893  0.0224  0.3476  0.1909
 7667TIP3    H147196   7.599   7.896  12.846  1.2243 -0.0558 -1.9980
 7667TIP3    H247197   7.676   7.845  12.966 -0.8277 -1.2060 -1.1230
 7668TIP3   OH247198   4.134   4.221  13.111  0.3856  0.9083  0.1855
 7668TIP3    H147199   4.128   4.315  13.128  0.0123  0.4434  3.3109
 7668TIP3    H247200   4.048   4.198  13.075 -0.7943  1.3281  2.5276
 7669TIP3   OH247201   5.630   2.886  12.169  0.1997  1.4055 -0.3931
 7669TIP3    H147202   5.718   2.919  12.185  0.7655 -0.0372 -0.4025
 7669TIP3    H247203   5.603   2.927  12.087  2.9432 -1.9401 -3.3315
 7670TIP3   OH247204   9.000   3.073  12.108  0.0566  0.7084 -0.0668
 7670TIP3    H147205   8.910   3.045  12.121  0.2392 -1.7787 -3.0428
 7670TIP3    H247206   9.052   3.014  12.162  0.0769 -0.9895 -1.8342
 7671TIP3   OH247207   2.679   5.173  12.839  0.4008  0.4299 -0.8358
 7671TIP3    H147208   2.631   5.253  12.862 -0.7713 -0.3680 -0.3957
 7671TIP3    H247209   2.702   5.184  12.747 -1.7764  0.2933 -1.4321
 7672TIP3   OH247210   8.600   1.950  11.807  0.1991 -0.1559  0.2041
 7672TIP3    H147211   8.634   1.863  11.787  2.2186  0.0468  2.3515
 7672TIP3    H247212   8.668   2.010  11.776 -0.5807  0.5909 -0.0980
 7673TIP3   OH247213   2.774   5.578  12.343 -0.1097  0.0748  0.7178
 7673TIP3    H147214   2.680   5.598  12.346 -0.1633  0.0262 -0.2315
 7673TIP3    H247215   2.793   5.539  12.429 -0.9189  0.2408  0.9845
 7674TIP3   OH247216   0.907   0.922  12.190  0.4779  0.3365 -0.4371
 7674TIP3    H147217   0.894   0.836  12.150  2.2889  0.6498 -1.8015
 7674TIP3    H247218   0.946   0.975  12.121  1.9783  1.4562  1.2006
 7675TIP3   OH247219   2.269   3.584  12.195 -0.1197 -0.0175 -1.0671
 7675TIP3    H147220   2.318   3.652  12.148  1.3611 -0.0810  0.2923
 7675TIP3    H247221   2.295   3.502  12.153  1.3509 -0.0928 -0.0913
 7676TIP3   OH247222   8.172   3.352  12.610  0.1261 -0.1609  0.7150
 7676TIP3    H147223   8.085   3.357  12.571  0.3086 -0.0613  0.3092
 7676TIP3    H247224   8.196   3.260  12.604  0.5211 -0.0118 -0.2526
 7677TIP3   OH247225   1.267   8.219  12.297  0.0117  0.5902 -0.0151
 7677TIP3    H147226   1.330   8.158  12.335  1.4631  0.4625 -2.4115
 7677TIP3    H247227   1.315   8.262  12.227 -3.0867 -1.1182 -3.5288
 7678TIP3   OH247228   4.196   6.500  12.237  0.9036 -0.2523  0.5825
 7678TIP3    H147229   4.186   6.514  12.331  1.3204 -0.3832  0.6472
 7678TIP3    H247230   4.150   6.417  12.220 -2.1933  1.3959  0.0790
 7679TIP3   OH247231   4.585   5.478  12.466 -0.0975 -0.6135 -0.3350
 7679TIP3    H147232   4.553   5.388  12.463 -4.6436  0.6268  2.4169
 7679TIP3    H247233   4.640   5.481  12.545 -0.9282 -0.7245  0.2544
 7680TIP3   OH247234   8.175   9.052  12.346  0.1992  0.0080  0.3189
 7680TIP3    H147235   8.267   9.073  12.362  0.2427 -0.7175  1.0610
 7680TIP3    H247236   8.159   8.972  12.396 -0.1756 -1.3140 -1.7973
 7681TIP3   OH247237   1.613   1.884  12.461 -0.0506  0.2575 -0.3265
 7681TIP3    H147238   1.558   1.960  12.479  0.4524  0.6121 -0.2437
 7681TIP3    H247239   1.553   1.816  12.432 -1.0157 -0.5226  3.1232
 7682TIP3   OH247240   1.446   2.146  11.962  0.2880  0.5924 -0.8545
 7682TIP3    H147241   1.440   2.179  11.873 -2.0539  0.9789 -0.6278
 7682TIP3    H247242   1.355   2.128  11.987  0.8754  0.4785  1.4492
 7683TIP3   OH247243   1.668   2.926  11.666  0.2790  0.5302 -0.0350
 7683TIP3    H147244   1.708   2.991  11.724 -0.2026 -0.1686  1.1158
 7683TIP3    H247245   1.590   2.897  11.714 -0.1037 -0.0979 -1.0236
 7684TIP3   OH247246   1.603   5.751  12.655  0.2109  0.3885  0.4515
 7684TIP3    H147247   1.631   5.660  12.645  0.2136  0.1610  2.1868
 7684TIP3    H247248   1.614   5.790  12.568 -0.0957 -1.3389 -0.3987
 7685TIP3   OH247249   4.080   5.379  11.881  0.4098 -0.1509 -0.1001
 7685TIP3    H147250   4.125   5.329  11.813  0.7678  1.6626 -1.2850
 7685TIP3    H247251   3.992   5.392  11.846  0.3464  0.1223  0.1563
 7686TIP3   OH247252   6.669   4.935  13.132  0.0837  0.2374 -0.3054
 7686TIP3    H147253   6.574   4.932  13.121 -0.0610 -0.5615  0.9020
 7686TIP3    H247254   6.701   4.983  13.056 -1.1022 -1.3092 -1.8493
 7687TIP3   OH247255   0.220   0.199  11.757  0.5031 -0.3673 -0.3984
 7687TIP3    H147256   0.240   0.289  11.781  1.0369 -0.4822 -0.3863
 7687TIP3    H247257   0.274   0.182  11.680 -0.0605 -0.4811 -0.7733
 7688TIP3   OH247258   3.438   8.153  12.493 -0.3344  0.0489  0.2594
 7688TIP3    H147259   3.379   8.209  12.544 -0.7355  0.0012 -0.1414
 7688TIP3    H247260   3.387   8.129  12.415 -0.7995 -2.1938  1.1553
 7689TIP3   OH247261   6.332   7.622  12.424  0.4503 -0.1271  0.3380
 7689TIP3    H147262   6.410   7.659  12.382 -1.1098  1.4474 -1.3573
 7689TIP3    H247263   6.262   7.635  12.360 -1.1201 -2.0440  1.5484
 7690TIP3   OH247264   5.013   5.881  13.135 -0.0979  0.5232  0.2382
 7690TIP3    H147265   4.979   5.970  13.149 -1.0638  0.3234 -0.6913
 7690TIP3    H247266   4.951   5.841  13.074 -0.1644 -1.0972  1.3096
 7691TIP3   OH247267   0.580   4.726  12.514  0.2279  0.0499  0.5104
 7691TIP3    H147268   0.539   4.742  12.429  0.8074  0.7160  0.3478
 7691TIP3    H247269   0.508   4.735  12.577 -0.2178 -0.5201  0.0897
 7692TIP3   OH247270   4.744   2.378  13.343  0.5967 -0.0787  0.1017
 7692TIP3    H147271   4.838   2.363  13.333  0.9600  1.1912  1.2770
 7692TIP3    H247272   4.733   2.472  13.329 -0.2370  0.0723  1.5060
 7693TIP3   OH247273   9.123   8.119  17.754 -0.1450 -0.5543  0.5904
 7693TIP3    H147274   9.051   8.084  17.806 -2.1935  0.1544 -1.5816
 7693TIP3    H247275   9.106   8.089  17.665  1.5061  0.7678 -0.2382
 7694TIP3   OH247276   6.319   4.282  13.038  0.1093  0.2521  0.1948
 7694TIP3    H147277   6.326   4.369  13.078 -0.1265 -0.1588  1.1662
 7694TIP3    H247278   6.226   4.260  13.045  0.1371  0.0050 -0.2223
 7695TIP3   OH247279   6.430   3.797  12.413  0.0578  0.1663  0.3818
 7695TIP3    H147280   6.522   3.774  12.429  0.1215  0.7523  0.8595
 7695TIP3    H247281   6.393   3.718  12.373  0.5667 -0.3693  0.9439
 7696TIP3   OH247282   6.724   6.549  11.513  0.2045 -0.2628  0.5672
 7696TIP3    H147283   6.674   6.487  11.460 -1.4222  0.7468  0.8721
 7696TIP3    H247284   6.805   6.502  11.534 -0.2903 -1.6819 -0.5285
 7697TIP3   OH247285   3.650   7.218  11.918  0.0330 -0.3786  0.2213
 7697TIP3    H147286   3.728   7.167  11.940  0.2174  0.7341  2.4972
 7697TIP3    H247287   3.596   7.158  11.866  1.2612 -2.0653  0.7879
 7698TIP3   OH247288   0.536   1.789  12.930  0.2323 -0.4434  0.1951
 7698TIP3    H147289   0.457   1.759  12.885 -1.0877  0.8433  1.5502
 7698TIP3    H247290   0.569   1.711  12.975 -1.7567 -0.4764  1.6968
 7699TIP3   OH247291   8.667   1.332  12.781  0.7375 -0.5705 -0.1729
 7699TIP3    H147292   8.639   1.381  12.704  1.2644 -1.2274 -0.7979
 7699TIP3    H247293   8.682   1.243  12.749  0.8362 -0.8882  0.7164
 7700TIP3   OH247294   3.641   2.043  12.402 -0.1690  0.3268  0.2397
 7700TIP3    H147295   3.601   2.127  12.378  0.7273  0.1550 -2.2180
 7700TIP3    H247296   3.719   2.067  12.452 -0.7812  0.8609  0.9604
 7701TIP3   OH247297   2.268   4.143  13.187  0.4168  0.2282  0.3317
 7701TIP3    H147298   2.240   4.052  13.189  2.0012 -0.2990  0.0029
 7701TIP3    H247299   2.348   4.145  13.240  0.6391  1.3465 -0.0100
 7702TIP3   OH247300   8.146   0.943  12.434 -0.1827 -0.0151  0.2635
 7702TIP3    H147301   8.166   0.972  12.345 -1.2818 -1.6366 -0.5498
 7702TIP3    H247302   8.232   0.920  12.471  0.7660  3.8729  0.9343
 7703TIP3   OH247303   1.075   5.410  11.567 -0.1220 -0.3102  0.1292
 7703TIP3    H147304   1.170   5.417  11.553 -0.1457 -0.0987  0.0705
 7703TIP3    H247305   1.047   5.500  11.585 -0.7255  0.0750 -2.4114
 7704TIP3   OH247306   4.025   0.695  12.076  0.3554  0.1721 -0.2475
 7704TIP3    H147307   3.964   0.706  12.004 -0.3613  1.0866  0.4789
 7704TIP3    H247308   4.082   0.623  12.048 -1.2377 -0.9280 -0.8001
 7705TIP3   OH247309   5.494   1.576  12.252 -0.1043 -0.6000  0.6490
 7705TIP3    H147310   5.412   1.576  12.301 -0.4649 -1.4650  0.0769
 7705TIP3    H247311   5.469   1.597  12.163  0.0020 -2.6964  0.0695
 7706TIP3   OH247312   3.271   6.541  12.079  0.0331 -0.1827  0.4138
 7706TIP3    H147313   3.362   6.534  12.052 -0.3809 -2.4169 -0.5894
 7706TIP3    H247314   3.275   6.552  12.174  1.3584 -0.4772  0.4025
 7707TIP3   OH247315   4.634   2.146  13.425  0.0222 -0.3314 -0.2534
 7707TIP3    H147316   4.673   2.223  13.383 -2.7042  0.1419 -2.1892
 7707TIP3    H247317   4.548   2.176  13.455 -0.6978 -2.3768 -0.1501
 7708TIP3   OH247318   5.312   0.943  12.561  0.6758  0.1863  0.1404
 7708TIP3    H147319   5.265   0.867  12.595  1.7231 -0.2970  0.5360
 7708TIP3    H247320   5.349   0.985  12.638 -0.0553  1.2329 -0.0521
 7709TIP3   OH247321   8.609   0.941  11.718 -0.3893 -0.4111 -0.1240
 7709TIP3    H147322   8.661   0.861  11.714 -0.1343 -0.1890 -2.2541
 7709TIP3    H247323   8.532   0.923  11.664  0.0315  1.0114 -1.2500
 7710TIP3   OH247324   2.420   8.665  12.215  0.2348 -0.1736  0.3365
 7710TIP3    H147325   2.482   8.703  12.152  1.3809  1.1912  2.1976
 7710TIP3    H247326   2.475   8.615  12.275 -0.9805 -2.5164 -0.3979
 7711TIP3   OH247327   9.074   1.260  12.911  0.6933 -1.0133  0.0658
 7711TIP3    H147328   9.164   1.283  12.892  0.5767 -1.5075 -1.2014
 7711TIP3    H247329   9.049   1.315  12.985  1.8007 -0.3631 -0.0371
 7712TIP3   OH247330   5.248   5.752  13.151 -0.2582 -0.5358  0.4393
 7712TIP3    H147331   5.212   5.672  13.112 -0.1902 -0.8574  1.0170
 7712TIP3    H247332   5.172   5.803  13.178 -0.3153 -0.0297 -0.6634
 7713TIP3   OH247333   7.711   3.227  12.464 -0.2563  0.1815  0.4504
 7713TIP3    H147334   7.654   3.200  12.393  2.0590 -0.4963 -1.2654
 7713TIP3    H247335   7.720   3.149  12.519 -0.0129 -0.0878  0.0318
 7714TIP3   OH247336   2.788   0.261  12.154  0.6207 -0.0540  0.2671
 7714TIP3    H147337   2.786   0.197  12.225 -0.9787  0.5979  0.8607
 7714TIP3    H247338   2.796   0.346  12.197 -2.3768  0.5286 -0.0957
 7715TIP3   OH247339   5.915   4.995  12.644  0.0842 -0.1151  0.0153
 7715TIP3    H147340   6.008   4.974  12.642  0.0289 -0.2860 -1.1542
 7715TIP3    H247341   5.893   4.995  12.738  0.6715 -2.6519  0.2205
 7716TIP3   OH247342   5.169   5.430  13.026 -1.1060 -0.5906 -0.3920
 7716TIP3    H147343   5.147   5.386  12.944 -0.5928 -0.1868 -0.7528
 7716TIP3    H247344   5.233   5.373  13.068 -0.6258 -0.3226 -0.7440
 7717TIP3   OH247345   4.401   1.468  13.215 -0.2774 -0.0434  0.6005
 7717TIP3    H147346   4.388   1.395  13.276 -2.3968  0.2353  0.5549
 7717TIP3    H247347   4.434   1.539  13.269  1.4202 -0.8780  0.7162
 7718TIP3   OH247348   1.492   5.789  13.290  0.2503 -0.0805 -0.0433
 7718TIP3    H147349   1.449   5.867  13.256 -1.5170 -0.3128  1.4723
 7718TIP3    H247350   1.579   5.790  13.252 -0.5389  1.3400 -1.9369
 7719TIP3   OH247351   5.629   3.377  12.872 -0.2181 -0.1185  0.0871
 7719TIP3    H147352   5.692   3.392  12.801 -0.4604  1.1067  0.1003
 7719TIP3    H247353   5.633   3.457  12.924 -0.5369 -0.7316  1.0844
 7720TIP3   OH247354   7.929   2.445  11.800  0.2749  0.6978  0.2513
 7720TIP3    H147355   8.003   2.389  11.822  0.0073 -0.2581 -1.1660
 7720TIP3    H247356   7.966   2.534  11.796  1.3579  0.2300 -0.5054
 7721TIP3   OH247357   4.284   5.337  12.177  0.1258 -0.0673 -0.1342
 7721TIP3    H147358   4.203   5.289  12.158 -0.0211  1.0243 -2.7540
 7721TIP3    H247359   4.280   5.354  12.271 -1.8024 -1.5721  0.1317
 7722TIP3   OH247360   1.569   3.622  12.935  0.2384  0.0129  0.0463
 7722TIP3    H147361   1.504   3.691  12.932  0.1556 -0.1034 -2.1737
 7722TIP3    H247362   1.540   3.558  12.871  1.0439 -1.4436  1.0632
 7723TIP3   OH247363   3.719   6.460  13.032 -0.6039 -0.2418  0.3314
 7723TIP3    H147364   3.797   6.475  13.086 -0.6804 -1.8555  0.9601
 7723TIP3    H247365   3.752   6.464  12.942  0.3332 -1.3461  0.5926
 7724TIP3   OH247366   4.963   5.065  12.410  0.3236  0.6137  0.6529
 7724TIP3    H147367   5.052   5.045  12.439  0.4101  1.0291  0.6741
 7724TIP3    H247368   4.969   5.067  12.315 -0.0490 -1.1850  0.5440
 7725TIP3   OH247369   0.739   1.991  13.262  0.0521  0.3213 -0.6504
 7725TIP3    H147370   0.668   1.928  13.254  0.8581 -0.8072  0.6353
 7725TIP3    H247371   0.748   2.028  13.174 -1.4618 -0.2200 -1.0629
 7726TIP3   OH247372   3.036   0.898  12.283 -0.1121  0.1766  0.5059
 7726TIP3    H147373   3.017   0.910  12.190  0.1933 -0.2267  0.3883
 7726TIP3    H247374   2.961   0.851  12.317 -0.1534  0.1868  0.4304
 7727TIP3   OH247375   5.950   6.852  13.026 -0.1192 -0.0895 -0.4045
 7727TIP3    H147376   6.026   6.818  13.074 -0.3896  2.5176  2.1526
 7727TIP3    H247377   5.983   6.928  12.979 -1.0842  1.2954  1.0229
 7728TIP3   OH247378   0.749   6.267  12.991 -0.1303 -0.3336 -0.3826
 7728TIP3    H147379   0.777   6.356  13.014  0.8445  0.0569 -2.7438
 7728TIP3    H247380   0.715   6.276  12.902 -1.2588 -2.1177 -0.1660
 7729TIP3   OH247381   5.277   0.386  12.428 -0.3986  0.1438  0.8309
 7729TIP3    H147382   5.191   0.401  12.389 -1.1327  2.1918  2.9908
 7729TIP3    H247383   5.267   0.304  12.477 -0.9833  0.1167  0.6758
 7730TIP3   OH247384   1.044   1.603  11.700  0.3116  0.3287 -0.3968
 7730TIP3    H147385   1.046   1.551  11.620  0.0304 -0.8295  0.3379
 7730TIP3    H247386   0.953   1.597  11.730  0.2631  1.2809 -0.3156
 7731TIP3   OH247387   8.774   2.637  12.186  0.1977 -0.3478 -0.3375
 7731TIP3    H147388   8.856   2.588  12.192  0.2619 -0.3835 -1.3346
 7731TIP3    H247389   8.787   2.713  12.243  1.1119 -0.1076 -0.8404
 7732TIP3   OH247390   4.291   0.548  13.226 -0.8106  0.4185  0.3355
 7732TIP3    H147391   4.373   0.503  13.207 -0.8449  0.5408 -0.1045
 7732TIP3    H247392   4.228   0.478  13.242 -0.4810  0.3230  1.3117
 7733TIP3   OH247393   1.511   3.840  12.232 -0.2307  0.1300  0.5774
 7733TIP3    H147394   1.560   3.923  12.234 -0.3496  0.3511 -1.8595
 7733TIP3    H247395   1.577   3.773  12.244  0.6564  0.4596 -1.8955
 7734TIP3   OH247396   8.138   7.715  12.052  0.0100 -0.1250  0.2121
 7734TIP3    H147397   8.112   7.714  12.144 -1.4188 -1.3460 -0.1599
 7734TIP3    H247398   8.225   7.675  12.051  0.6454  1.1416  1.1458
 7735TIP3   OH247399   0.241   8.287  12.714  0.1753  0.4930 -0.3169
 7735TIP3    H147400   0.169   8.246  12.762  1.3537  0.9926  2.0200
 7735TIP3    H247401   0.317   8.234  12.736  0.7139  0.5185 -2.0099
 7736TIP3   OH247402   4.706   0.757  11.920  0.2371 -0.0870 -0.0719
 7736TIP3    H147403   4.680   0.816  11.850 -0.4776  1.4830  1.4289
 7736TIP3    H247404   4.630   0.701  11.934  0.3431 -0.3336 -0.4613
 7737TIP3   OH247405   3.353   3.697  11.683  0.0831  0.1811  0.1687
 7737TIP3    H147406   3.415   3.668  11.750  0.1164  0.3168  0.1977
 7737TIP3    H247407   3.295   3.622  11.670 -0.5000  0.4553  1.0281
 7738TIP3   OH247408   5.924   4.980  12.076  0.0750 -0.3732 -0.3882
 7738TIP3    H147409   5.987   4.946  12.140 -0.2803 -0.1039  0.1163
 7738TIP3    H247410   5.955   4.947  11.992  1.5126  0.6493 -0.2919
 7739TIP3   OH247411   6.473   4.738  11.747  0.4793  0.1395  0.4234
 7739TIP3    H147412   6.383   4.714  11.726  0.2582  1.1673  0.1412
 7739TIP3    H247413   6.510   4.661  11.790 -0.1590 -0.7169 -0.5524
 7740TIP3   OH247414   1.642   8.604  12.607 -1.3903 -0.0490  0.3889
 7740TIP3    H147415   1.561   8.618  12.657 -3.0296  0.2803 -2.2134
 7740TIP3    H247416   1.656   8.687  12.561 -0.2300 -0.5207 -0.1341
 7741TIP3   OH247417   6.574   7.412  13.179  0.1976  0.0578  0.1414
 7741TIP3    H147418   6.492   7.383  13.220  0.0036 -1.0275 -0.9603
 7741TIP3    H247419   6.643   7.366  13.226  0.0052 -0.8450 -0.4466
 7742TIP3   OH247420   8.594   2.845  12.948  0.1889  0.3002  0.4087
 7742TIP3    H147421   8.547   2.813  12.871  1.6908  1.4998 -1.0866
 7742TIP3    H247422   8.535   2.909  12.988 -1.0763 -1.1491  0.9893
 7743TIP3   OH247423   8.918   1.344  11.631  0.6498 -0.1221 -0.0662
 7743TIP3    H147424   9.011   1.364  11.625  0.6635 -0.1289  0.1202
 7743TIP3    H247425   8.876   1.409  11.575  0.6454  0.8021  0.9732
 7744TIP3   OH247426   4.038   2.716  12.084 -0.3179  0.0998  0.0067
 7744TIP3    H147427   3.959   2.768  12.066 -1.5241 -1.6355  0.0206
 7744TIP3    H247428   4.053   2.668  12.003  0.2637 -0.1595  0.2665
 7745TIP3   OH247429   1.189   3.623  13.613  0.1976 -0.4098 -0.5051
 7745TIP3    H147430   1.278   3.658  13.622  0.0036  0.4163 -1.6161
 7745TIP3    H247431   1.144   3.687  13.558 -0.8542 -1.2449 -0.6314
 7746TIP3   OH247432   8.088   1.880  11.528 -0.4009 -0.2354 -0.5676
 7746TIP3    H147433   8.162   1.895  11.587  0.9072 -0.8997 -1.9621
 7746TIP3    H247434   8.102   1.792  11.494 -2.1827 -0.6097 -0.4185
 7747TIP3   OH247435   3.960   0.766  12.840  0.2629  0.3945  0.1738
 7747TIP3    H147436   3.967   0.862  12.837 -1.4983  0.5733  1.0036
 7747TIP3    H247437   4.042   0.736  12.801  0.5172  2.2409 -0.8519
 7748TIP3   OH247438   7.250   5.684  11.852  0.4837  0.7324 -0.9040
 7748TIP3    H147439   7.168   5.678  11.803  0.8825  0.3184 -1.5374
 7748TIP3    H247440   7.288   5.768  11.824 -0.3532  1.5981  0.4231
 7749TIP3   OH247441   2.411   3.734  12.016  0.0503  0.4091  0.3393
 7749TIP3    H147442   2.418   3.726  11.921 -0.9012  1.7041  0.1187
 7749TIP3    H247443   2.501   3.734  12.047  0.3456 -1.8128 -0.3464
 7750TIP3   OH247444   3.588   6.517  12.026 -0.5019 -0.1029 -0.1437
 7750TIP3    H147445   3.575   6.603  11.985  1.1169 -0.2317 -1.0059
 7750TIP3    H247446   3.681   6.516  12.049 -0.2713 -1.9613 -0.9689
 7751TIP3   OH247447   0.287   4.487  12.650  0.3695 -0.3190  0.2900
 7751TIP3    H147448   0.366   4.535  12.673 -0.7547  1.5523  0.4405
 7751TIP3    H247449   0.275   4.502  12.556  0.7613 -1.5380  0.0179
 7752TIP3   OH247450   6.901   5.820  11.990  0.4247  0.2821  0.1831
 7752TIP3    H147451   6.947   5.820  12.074  1.4107  0.9214 -0.3283
 7752TIP3    H247452   6.824   5.874  12.005 -0.4536 -1.2126  1.1947
 7753TIP3   OH247453   6.866   0.790  12.888  0.3912 -0.0902  0.2859
 7753TIP3    H147454   6.925   0.716  12.900 -0.7480 -1.2979 -1.1640
 7753TIP3    H247455   6.834   0.810  12.976  1.3299 -0.7989  0.8005
 7754TIP3   OH247456   5.344   6.603  13.634 -0.4577  0.4137  0.0666
 7754TIP3    H147457   5.300   6.686  13.654 -0.2099  0.8940 -1.2811
 7754TIP3    H247458   5.276   6.536  13.645 -1.7289  1.1817 -2.4292
 7755TIP3   OH247459   8.780   7.757  11.843 -0.1463 -0.0954 -0.0127
 7755TIP3    H147460   8.705   7.757  11.783 -0.7639  2.4103  0.6416
 7755TIP3    H247461   8.854   7.727  11.790 -1.2355 -0.7645 -1.1953
 7756TIP3   OH247462   2.945   5.487  12.980 -0.1249 -0.4012  0.0024
 7756TIP3    H147463   2.998   5.412  13.006 -1.3398 -0.8861  1.1552
 7756TIP3    H247464   2.898   5.512  13.059 -1.7865 -0.1267 -1.0352
 7757TIP3   OH247465   3.251   4.071  11.921  0.0732 -0.3171  0.1802
 7757TIP3    H147466   3.215   4.005  11.863  0.2650  0.6124 -1.0381
 7757TIP3    H247467   3.176   4.122  11.950 -0.4615 -2.6225  3.2888
 7758TIP3   OH247468   7.884   4.422  13.020  0.1272  0.1187  0.6583
 7758TIP3    H147469   7.965   4.410  12.971  1.4543 -0.5582  2.8969
 7758TIP3    H247470   7.882   4.516  13.041 -0.1495  0.2988 -0.1162
 7759TIP3   OH247471   0.803   3.995  11.722  0.6826  0.4043  0.0116
 7759TIP3    H147472   0.831   3.912  11.761  0.0159  1.1700  2.2668
 7759TIP3    H247473   0.821   4.061  11.789 -2.2192  1.5626 -0.1690
 7760TIP3   OH247474   6.138   3.617  11.921 -0.1506 -0.3737 -0.9463
 7760TIP3    H147475   6.139   3.657  11.834  0.3073  0.1461 -0.7080
 7760TIP3    H247476   6.207   3.663  11.969 -0.9233 -0.1021 -0.0647
 7761TIP3   OH247477   2.925   8.644  13.410  0.5824 -0.2372 -0.9755
 7761TIP3    H147478   2.849   8.661  13.465  1.2498  0.0704 -0.1231
 7761TIP3    H247479   2.995   8.697  13.449  1.7363 -1.9681 -0.5763
 7762TIP3   OH247480   6.023   7.026  12.234  0.3396  0.6114  0.0350
 7762TIP3    H147481   6.088   7.024  12.163 -0.5128  0.2570 -0.7534
 7762TIP3    H247482   6.054   6.959  12.296  0.2176 -0.2495 -0.8070
 7763TIP3   OH247483   5.359   6.184  12.110  0.0790 -0.0734 -0.2755
 7763TIP3    H147484   5.325   6.258  12.160 -0.6859  0.0652 -0.9604
 7763TIP3    H247485   5.302   6.180  12.033 -0.3336 -1.7950  0.0800
 7764TIP3   OH247486   6.740   4.046  12.579  0.3710  0.2273  0.0392
 7764TIP3    H147487   6.799   4.024  12.507  0.4763 -1.2193  0.5251
 7764TIP3    H247488   6.658   4.069  12.536  0.7761  0.5276 -0.5826
 7765TIP3   OH247489   2.556   3.186  11.915  0.0075  0.6939 -0.4509
 7765TIP3    H147490   2.575   3.206  11.823  1.6439  3.0566  0.2983
 7765TIP3    H247491   2.545   3.091  11.917  2.1121  0.3009 -2.7500
 7766TIP3   OH247492   1.471   4.118  13.240  0.2526  0.0252  0.0376
 7766TIP3    H147493   1.417   4.038  13.244  0.4710 -0.1317 -0.1286
 7766TIP3    H247494   1.527   4.112  13.317  2.7773 -1.7959 -1.7656
 7767TIP3   OH247495   6.539   6.278  12.041 -0.6714 -0.2043 -0.0847
 7767TIP3    H147496   6.480   6.248  11.972 -3.2041  1.8305  1.0257
 7767TIP3    H247497   6.530   6.373  12.041  2.9665  0.2938 -0.0193
 7768TIP3   OH247498   8.716   1.949  12.423 -0.1755  0.4749  0.1808
 7768TIP3    H147499   8.675   1.925  12.340 -0.1384  1.0374 -0.0038
 7768TIP3    H247500   8.730   2.043  12.416 -0.3891  0.5668  0.9232
 7769TIP3   OH247501   1.026   5.352  12.329 -0.4858  0.4237  0.3238
 7769TIP3    H147502   1.088   5.364  12.401 -0.5078 -0.1027  0.4357
 7769TIP3    H247503   0.940   5.359  12.369 -0.5007  0.7757  0.2336
 7770TIP3   OH247504   9.176   1.864  12.172 -0.0175 -0.3762  0.2093
 7770TIP3    H147505   9.199   1.957  12.180 -1.1405 -0.0398 -0.3155
 7770TIP3    H247506   9.144   1.840  12.259 -0.1657 -0.1551  0.2156
 7771TIP3   OH247507   2.911   4.994  11.489 -0.3897 -0.0245 -0.0003
 7771TIP3    H147508   2.957   5.019  11.569  1.1614  1.1474 -1.1952
 7771TIP3    H247509   2.836   5.052  11.486 -0.4092 -0.0091  0.5427
 7772TIP3   OH247510   1.905   8.229  11.975 -0.1265  0.3719  0.2586
 7772TIP3    H147511   1.911   8.320  11.946  0.2991 -0.5314 -2.8711
 7772TIP3    H247512   1.992   8.194  11.961 -0.7415 -0.9674 -0.4240
 7773TIP3   OH247513   0.858   7.017  12.872 -0.0800  0.3220  0.2243
 7773TIP3    H147514   0.813   7.023  12.788 -0.0175 -1.0446  0.0693
 7773TIP3    H247515   0.899   7.102  12.883  1.8920 -0.1683 -2.2657
 7774TIP3   OH247516   2.562   5.064  11.902  0.2774  0.0203  0.3815
 7774TIP3    H147517   2.623   5.135  11.884 -0.1544  0.6115  1.1331
 7774TIP3    H247518   2.483   5.088  11.854  0.1494  0.0263  0.5916
 7775TIP3   OH247519   7.947   5.859  12.225  0.1471 -0.1063 -0.3916
 7775TIP3    H147520   7.984   5.851  12.137  0.6420  0.2599 -0.2255
 7775TIP3    H247521   7.971   5.778  12.269 -0.6407 -0.5619 -0.7829
 7776TIP3   OH247522   1.076   8.941  13.680  0.8647  0.2637  0.7506
 7776TIP3    H147523   1.013   8.870  13.666 -0.4464  1.8354 -2.2580
 7776TIP3    H247524   1.024   9.013  13.716  1.1028  1.2416 -0.7976
 7777TIP3   OH247525   5.691   7.631  11.970 -0.3697  0.0109 -0.4625
 7777TIP3    H147526   5.606   7.635  11.926 -0.8134 -0.8959  0.2736
 7777TIP3    H247527   5.699   7.715  12.014 -0.6147  0.3307 -1.0180
 7778TIP3   OH247528   0.189   9.055  13.201  0.0766  0.1805 -0.0538
 7778TIP3    H147529   0.108   9.057  13.150  1.1085  2.3435 -1.7893
 7778TIP3    H247530   0.174   8.988  13.268 -2.1800 -1.2159 -1.8300
 7779TIP3   OH247531   7.624   3.487  12.592  0.2726  0.1284 -0.2626
 7779TIP3    H147532   7.684   3.493  12.667  1.0090 -0.2982 -0.8052
 7779TIP3    H247533   7.651   3.408  12.546 -0.8519 -0.1863 -0.4133
 7780TIP3   OH247534   2.529   9.111  13.038  0.1321 -0.4840  0.3760
 7780TIP3    H147535   2.568   9.032  13.075 -1.2432 -1.2321  0.3137
 7780TIP3    H247536   2.576   9.125  12.956  0.4742 -1.1801  0.4440
 7781TIP3   OH247537   3.327   0.642  11.553 -0.3746 -0.0302  0.6421
 7781TIP3    H147538   3.407   0.683  11.586 -0.2044  0.0839  0.1002
 7781TIP3    H247539   3.268   0.716  11.534  0.5262  0.1297 -1.9072
 7782TIP3   OH247540   7.332   8.365  12.202 -0.2139 -0.2909 -0.2216
 7782TIP3    H147541   7.322   8.413  12.285 -0.3939  3.3604 -2.1473
 7782TIP3    H247542   7.399   8.299  12.220  0.2492  0.8129  2.6496
 7783TIP3   OH247543   6.736   1.900  12.191 -0.2613  0.1426  0.5082
 7783TIP3    H147544   6.782   1.971  12.236 -0.2104  0.2558  0.2784
 7783TIP3    H247545   6.657   1.942  12.156 -0.2323  0.0857  0.3751
 7784TIP3   OH247546   2.832   0.489  12.315  0.1200  0.0626  0.1508
 7784TIP3    H147547   2.842   0.569  12.367  0.1764  0.2172 -0.0926
 7784TIP3    H247548   2.797   0.424  12.376 -1.5698  0.7429 -0.0537
 7785TIP3   OH247549   5.660   1.216  12.616 -0.2544  0.3444 -0.2431
 7785TIP3    H147550   5.663   1.310  12.602  0.1841  0.0847 -2.0843
 7785TIP3    H247551   5.595   1.204  12.686 -2.1501  1.8422 -1.6469
 7786TIP3   OH247552   2.137   8.302  13.386 -0.5109  0.0788  0.2802
 7786TIP3    H147553   2.133   8.346  13.301 -0.6920  0.0275  0.2618
 7786TIP3    H247554   2.149   8.210  13.366  1.8032  0.3101  0.3336
 7787TIP3   OH247555   7.096   3.107  12.327 -0.4579  0.4434  0.3258
 7787TIP3    H147556   7.055   3.029  12.362 -0.6998  1.6814  3.0385
 7787TIP3    H247557   7.069   3.109  12.235 -1.5262 -1.9137  0.5208
 7788TIP3   OH247558   1.858   7.027  12.336 -0.1350  0.2267  0.1988
 7788TIP3    H147559   1.951   7.050  12.331  0.2182 -1.0581  0.4302
 7788TIP3    H247560   1.857   6.942  12.380 -1.4244  0.2047  0.1587
 7789TIP3   OH247561   4.992   5.954  12.450  0.1443  0.3945  0.1932
 7789TIP3    H147562   4.925   5.888  12.432  0.8189 -0.5059  0.9000
 7789TIP3    H247563   5.049   5.950  12.374  1.8119 -1.9308  1.4395
 7790TIP3   OH247564   6.784   8.132  12.275  0.6331  0.0344  0.0563
 7790TIP3    H147565   6.870   8.168  12.297  1.3920 -1.7060  0.1197
 7790TIP3    H247566   6.780   8.049  12.324 -0.4964 -0.5889 -1.0417
 7791TIP3   OH247567   8.986   0.708  12.494 -0.0844  0.4759  0.4158
 7791TIP3    H147568   8.997   0.741  12.583  0.4051  1.4902 -0.0043
 7791TIP3    H247569   8.996   0.613  12.502  1.2002  0.6596  1.2601
 7792TIP3   OH247570   6.655   8.273  11.557  0.0040 -0.0871 -0.7801
 7792TIP3    H147571   6.622   8.205  11.617 -1.5025  0.8653 -0.4580
 7792TIP3    H247572   6.750   8.261  11.557 -0.2076 -2.1387 -0.6872
 7793TIP3   OH247573   0.908   3.493  12.651 -0.3604  0.5245  0.5506
 7793TIP3    H147574   0.826   3.542  12.654 -0.1928  0.9294 -0.7084
 7793TIP3    H247575   0.898   3.424  12.716 -1.5862  0.7287  0.5962
 7794TIP3   OH247576   3.302   0.389  11.732 -0.2837 -0.2061  0.1852
 7794TIP3    H147577   3.295   0.432  11.646  0.8662 -0.1670  0.0999
 7794TIP3    H247578   3.254   0.447  11.791 -0.1895  0.3215 -0.2426
 7795TIP3   OH247579   7.474   2.756  12.435  0.1838 -0.3302 -0.4196
 7795TIP3    H147580   7.486   2.748  12.530 -0.4449 -0.3082 -0.3381
 7795TIP3    H247581   7.409   2.825  12.425 -1.0809 -1.5195 -0.7873
 7796TIP3   OH247582   5.611   4.560  11.661 -0.1127  0.0517 -0.1816
 7796TIP3    H147583   5.660   4.601  11.732 -0.3127  1.6696 -0.9469
 7796TIP3    H247584   5.523   4.596  11.668 -0.8184 -1.6398  0.2046
 7797TIP3   OH247585   6.725   2.879  12.624 -0.2135  0.3180  0.1745
 7797TIP3    H147586   6.678   2.846  12.701 -0.5710  0.4858  0.0325
 7797TIP3    H247587   6.657   2.888  12.557  0.3415 -1.2880 -0.6411
 7798TIP3   OH247588   6.262   6.587  12.775  0.0506  0.4127  0.0039
 7798TIP3    H147589   6.196   6.531  12.734  0.5360  1.0573 -1.7872
 7798TIP3    H247590   6.321   6.527  12.820 -1.6129 -0.1884  1.4704
 7799TIP3   OH247591   7.491   2.657  11.688 -0.4674  0.5015 -0.1556
 7799TIP3    H147592   7.526   2.702  11.766 -0.1366  0.0189 -0.0186
 7799TIP3    H247593   7.396   2.662  11.698 -0.4445 -0.5670  0.8854
 7800TIP3   OH247594   3.265   2.532  12.148  0.1466  0.1931 -0.5227
 7800TIP3    H147595   3.261   2.505  12.239  1.1531  1.3785 -0.0912
 7800TIP3    H247596   3.238   2.455  12.098  0.9265 -0.9129  0.7067
 7801TIP3   OH247597   0.047   4.581  11.670  0.8013  0.3213  0.0703
 7801TIP3    H147598   0.070   4.504  11.618  1.0860 -0.3799  1.2025
 7801TIP3    H247599   0.131   4.612  11.705  0.5301  0.3014  0.7529
 7802TIP3   OH247600   7.166   8.883  11.423  0.4472  0.1484  0.0522
 7802TIP3    H147601   7.112   8.804  11.414  0.2693  0.4961 -3.0421
 7802TIP3    H247602   7.226   8.879  11.350  0.6394  2.7330 -0.0087
 7803TIP3   OH247603   0.074   4.352  11.924  0.3556 -0.0789  0.4454
 7803TIP3    H147604   0.034   4.328  12.007  0.4423  1.3309  0.9165
 7803TIP3    H247605   0.019   4.422  11.890  0.0646 -0.9233 -0.9266
 7804TIP3   OH247606   2.503   1.347  13.498 -0.4143 -0.3015  0.2981
 7804TIP3    H147607   2.536   1.423  13.547 -0.5823  0.6515 -1.0125
 7804TIP3    H247608   2.464   1.291  13.565 -0.3709  0.8161  1.2991
 7805TIP3   OH247609   6.952   1.156  11.865  0.4763 -0.1378  0.0446
 7805TIP3    H147610   6.939   1.194  11.778  0.8577  0.6047  0.3101
 7805TIP3    H247611   7.047   1.150  11.874  0.4427  0.2087  0.5989
 7806TIP3   OH247612   4.579   1.212  11.613  0.3560  0.2772 -0.6014
 7806TIP3    H147613   4.630   1.209  11.532  1.7948  0.4970  0.2622
 7806TIP3    H247614   4.624   1.278  11.666 -0.0840 -0.4495  0.6908
 7807TIP3   OH247615   1.065   1.594  11.405 -0.0468  0.6902 -0.0616
 7807TIP3    H147616   0.985   1.637  11.436  0.6934  2.0658  0.0169
 7807TIP3    H247617   1.093   1.648  11.331  0.7282  0.1306 -0.1868
 7808TIP3   OH247618   2.455   7.048  13.715  0.0846 -0.1865 -0.4471
 7808TIP3    H147619   2.476   6.973  13.770  1.5705 -0.0407 -0.7925
 7808TIP3    H247620   2.539   7.078  13.680 -0.7931 -0.4170 -2.9985
 7809TIP3   OH247621   9.089   1.622  12.002  0.3057  0.8871  0.1887
 7809TIP3    H147622   9.097   1.713  11.973  3.2650  0.4242 -0.7989
 7809TIP3    H247623   9.112   1.570  11.925  0.7065 -0.6422  1.3028
 7810TIP3   OH247624   0.661   2.114  13.041 -0.3502  0.2090  0.7659
 7810TIP3    H147625   0.568   2.134  13.028 -0.0814  0.4635 -0.9917
 7810TIP3    H247626   0.693   2.189  13.092 -0.7077  1.1625 -0.3458
 7811TIP3   OH247627   3.153   6.813  12.516  0.2698 -0.0746  0.4649
 7811TIP3    H147628   3.138   6.906  12.502 -1.1814 -0.2365  0.7041
 7811TIP3    H247629   3.202   6.808  12.598  1.9697  0.5302 -0.4681
 7812TIP3   OH247630   7.262   1.426  13.325 -0.1343  0.2134 -0.2223
 7812TIP3    H147631   7.180   1.378  13.315 -0.6546  1.1835 -0.8028
 7812TIP3    H247632   7.235   1.517  13.336  0.8214  0.3866  0.9626
 7813TIP3   OH247633   3.047   2.387  12.896  0.2694  0.5337  1.1752
 7813TIP3    H147634   3.137   2.370  12.923  0.7917  3.9285  2.0955
 7813TIP3    H247635   3.001   2.412  12.976 -0.7004  1.6210  0.3274
 7814TIP3   OH247636   0.104   6.610  12.127 -0.3634 -0.5547  0.5415
 7814TIP3    H147637   0.180   6.552  12.118  0.9855  1.0621  0.9742
 7814TIP3    H247638   0.134   6.680  12.185 -0.8915  2.1984 -2.2670
 7815TIP3   OH247639   3.850   8.863  12.203  0.0011 -0.8424 -0.0129
 7815TIP3    H147640   3.889   8.884  12.288 -1.5881  2.0528  0.1054
 7815TIP3    H247641   3.796   8.786  12.220  1.7547 -1.9595  0.9040
 7816TIP3   OH247642   8.965   7.812  12.095 -0.4347 -0.4768  0.3416
 7816TIP3    H147643   8.903   7.808  12.023  0.5069  1.0014 -0.6204
 7816TIP3    H247644   8.951   7.731  12.144 -1.9752 -0.9236 -0.7597
 7817TIP3   OH247645   7.914   3.743  12.861  0.2369 -0.1016 -0.2897
 7817TIP3    H147646   7.979   3.695  12.810  1.6569  0.1924  1.1529
 7817TIP3    H247647   7.851   3.677  12.888  1.6365 -1.0387  0.8580
 7818TIP3   OH247648   0.345   4.761  13.066  0.0029 -0.7260 -0.2429
 7818TIP3    H147649   0.315   4.845  13.031 -0.8071 -0.8481  0.1517
 7818TIP3    H247650   0.290   4.745  13.142  2.1161 -0.1949  1.4835
 7819TIP3   OH247651   3.001   4.910  12.059 -0.4286 -0.5834  0.3234
 7819TIP3    H147652   3.010   4.833  12.003 -0.5489  0.7095 -1.5882
 7819TIP3    H247653   2.916   4.899  12.101 -1.2220 -0.6989 -1.2490
 7820TIP3   OH247654   4.024   1.027  12.074  0.5618 -0.2244  0.5703
 7820TIP3    H147655   4.038   0.933  12.071 -0.3185 -0.3665  0.7621
 7820TIP3    H247656   4.015   1.048  12.167 -0.4000 -0.1345  0.4667
 7821TIP3   OH247657   5.897   5.135  13.110 -0.0305 -0.2596  0.0879
 7821TIP3    H147658   5.990   5.155  13.100  0.2075 -0.4039  1.7364
 7821TIP3    H247659   5.887   5.113  13.203 -1.4734 -1.5258 -0.3336
 7822TIP3   OH247660   3.710   3.845  13.413  0.0775  0.9246  0.0267
 7822TIP3    H147661   3.699   3.884  13.326  0.9482  0.6018 -0.2369
 7822TIP3    H247662   3.702   3.919  13.473  2.9184  1.7990 -0.5194
 7823TIP3   OH247663   1.395   3.870  11.519 -0.3972  0.2705  0.2321
 7823TIP3    H147664   1.310   3.915  11.523 -0.4509  0.2079 -0.1649
 7823TIP3    H247665   1.405   3.847  11.427 -0.6855 -1.1568  0.5427
 7824TIP3   OH247666   4.405   5.773  12.658  0.0899 -0.3788  0.7945
 7824TIP3    H147667   4.375   5.864  12.652 -0.5638 -0.5998  0.5806
 7824TIP3    H247668   4.354   5.736  12.731  0.9511 -0.3559  1.4216
 7825TIP3   OH247669   8.152   8.841  12.520  0.1220 -0.2043 -0.5604
 7825TIP3    H147670   8.072   8.808  12.559 -0.1510 -1.1749 -1.8536
 7825TIP3    H247671   8.211   8.855  12.593 -0.6465 -1.1187  0.2570
 7826TIP3   OH247672   2.455   7.304  11.902  0.7573 -0.4311 -0.3908
 7826TIP3    H147673   2.389   7.349  11.850  0.3812 -1.3465 -0.7196
 7826TIP3    H247674   2.498   7.374  11.952  1.0780  0.4625 -1.8592
 7827TIP3   OH247675   1.606   2.986  12.215  0.0638  0.6223  0.4227
 7827TIP3    H147676   1.521   3.020  12.189  0.0474 -0.3684 -0.9138
 7827TIP3    H247677   1.589   2.897  12.245  0.6301  0.4181  0.1586
 7828TIP3   OH247678   1.427   6.505  11.632 -0.0502 -0.1835  0.0305
 7828TIP3    H147679   1.449   6.452  11.555  0.8997 -0.3879  0.4252
 7828TIP3    H247680   1.501   6.564  11.643  0.1520 -0.6111  1.1665
 7829TIP3   OH247681   1.452   3.729  12.585 -0.6139 -0.0852  0.1111
 7829TIP3    H147682   1.454   3.824  12.597  2.5454  0.0376 -0.4648
 7829TIP3    H247683   1.545   3.703  12.588 -1.4116 -3.2757  1.0989
 7830TIP3   OH247684   5.977   4.290  12.390  0.3315  0.1650 -0.6482
 7830TIP3    H147685   6.016   4.368  12.429  0.2216 -0.9922  2.0028
 7830TIP3    H247686   6.008   4.290  12.299  2.7344  1.7193  0.0817
 7831TIP3   OH247687   1.380   8.596  12.709  0.4284 -0.0107  0.3390
 7831TIP3    H147688   1.339   8.573  12.626 -0.0455 -1.1209  0.8570
 7831TIP3    H247689   1.346   8.532  12.771  1.0684  0.5642  1.3112
 7832TIP3   OH247690   0.757   8.255  12.908 -0.5694  0.1986 -0.1392
 7832TIP3    H147691   0.676   8.205  12.913 -1.0929  0.8391 -1.5247
 7832TIP3    H247692   0.810   8.224  12.981 -0.9548 -2.2114 -0.7971
 7833TIP3   OH247693   0.986   8.319  12.535  0.4428 -0.1994 -0.1161
 7833TIP3    H147694   1.030   8.353  12.457  0.8748 -1.4904 -0.4748
 7833TIP3    H247695   1.054   8.267  12.580 -0.0598 -0.2467  0.6111
 7834TIP3   OH247696   1.502   2.655  13.238 -0.2585 -0.7265  0.6658
 7834TIP3    H147697   1.585   2.609  13.223  0.3631  0.3757  0.6323
 7834TIP3    H247698   1.512   2.694  13.325  0.7457  2.3556 -0.6709
 7835TIP3   OH247699   5.818   5.683  11.639 -0.0985 -0.0866  0.3078
 7835TIP3    H147700   5.872   5.618  11.684 -0.6621 -1.3625 -0.8198
 7835TIP3    H247701   5.867   5.703  11.559 -0.8635 -0.5793 -0.2858
 7836TIP3   OH247702   3.698   0.469  12.567 -0.3663 -0.0483  1.2202
 7836TIP3    H147703   3.720   0.561  12.575 -0.9253  0.2626 -0.4197
 7836TIP3    H247704   3.708   0.434  12.656  0.7791  1.3617  1.6827
 7837TIP3   OH247705   7.399   8.264  11.724  0.1710  0.1681 -0.0989
 7837TIP3    H147706   7.353   8.259  11.807  2.7010 -0.1310  1.3783
 7837TIP3    H247707   7.400   8.174  11.692 -0.6836  0.2620 -0.4294
 7838TIP3   OH247708   0.111   0.842  12.674 -0.2196  0.3005  0.2051
 7838TIP3    H147709   0.085   0.765  12.623 -1.9518  1.3181 -0.5649
 7838TIP3    H247710   0.136   0.907  12.608 -0.1449  0.8618  0.7739
 7839TIP3   OH247711   0.977   5.317  12.793  0.0443 -0.1117 -0.2495
 7839TIP3    H147712   1.041   5.256  12.830 -0.5844 -1.0084 -0.6094
 7839TIP3    H247713   0.931   5.267  12.726 -1.5983  0.2446  0.5563
 7840TIP3   OH247714   2.514   1.594  13.631  0.4597  0.2083  0.0325
 7840TIP3    H147715   2.450   1.654  13.591  0.3510 -0.0216 -0.1415
 7840TIP3    H247716   2.545   1.641  13.709 -0.7596 -0.1454  0.7584
 7841TIP3   OH247717   2.278   7.801  12.998 -0.0278 -0.4546  0.3834
 7841TIP3    H147718   2.361   7.819  13.043  0.4661  0.3667 -0.7993
 7841TIP3    H247719   2.226   7.752  13.062  0.3343  1.3265  2.1596
 7842TIP3   OH247720   9.033   4.742  12.579  0.7425 -0.1061 -0.3607
 7842TIP3    H147721   9.017   4.654  12.545  1.3891 -0.8243  1.1078
 7842TIP3    H247722   8.990   4.743  12.664 -0.6232  1.5643 -1.0185
 7843TIP3   OH247723   1.504   0.276  12.497  0.1777 -0.1142 -0.0685
 7843TIP3    H147724   1.470   0.280  12.586  1.6374  1.6174  0.4589
 7843TIP3    H247725   1.431   0.241  12.445 -1.1025 -0.0090  1.5786
 7844TIP3   OH247726   1.485   6.340  11.420 -0.2192  0.5047 -0.1973
 7844TIP3    H147727   1.471   6.323  11.327 -0.9836  1.0825 -0.1958
 7844TIP3    H247728   1.578   6.360  11.427 -0.0793  0.0803 -0.7770
 7845TIP3   OH247729   4.546   5.904  11.980 -0.4641 -0.1190 -0.5055
 7845TIP3    H147730   4.534   5.837  11.912 -1.2111  0.2485 -0.7511
 7845TIP3    H247731   4.569   5.984  11.931  2.1631 -0.5507 -0.1149
 7846TIP3   OH247732   9.108   3.059  13.175 -0.4830  0.4271 -0.8494
 7846TIP3    H147733   9.058   3.099  13.246 -2.0014 -0.6418 -1.2672
 7846TIP3    H247734   9.188   3.027  13.217 -2.4790 -2.5891  1.0730
 7847TIP3   OH247735   5.641   4.396  13.144  0.4363  0.2962  0.1103
 7847TIP3    H147736   5.629   4.343  13.223  0.1414 -0.5340 -0.4831
 7847TIP3    H247737   5.555   4.432  13.126  0.3750  0.0181 -0.1586
 7848TIP3   OH247738   5.887   5.523  12.365 -0.3692 -0.4132 -0.3031
 7848TIP3    H147739   5.815   5.460  12.361 -0.9721  0.1589  0.9264
 7848TIP3    H247740   5.923   5.513  12.453 -1.3491  1.8736  0.4096
 7849TIP3   OH247741   4.425   1.578  11.660 -0.1815 -0.0280 -0.0269
 7849TIP3    H147742   4.379   1.656  11.630  0.8570  1.1883  1.3411
 7849TIP3    H247743   4.466   1.605  11.743  2.5204 -1.1485 -0.8804
 7850TIP3   OH247744   9.139   8.908  12.766 -0.1205  0.5027  0.2181
 7850TIP3    H147745   9.099   8.841  12.822  1.3399 -0.7056 -0.1017
 7850TIP3    H247746   9.085   8.986  12.778 -0.7768 -0.1917  2.0497
 7851TIP3   OH247747   2.780   2.721  13.322 -0.3928  0.3871  1.1310
 7851TIP3    H147748   2.715   2.688  13.261  1.2480  0.7112 -0.9279
 7851TIP3    H247749   2.780   2.658  13.394 -0.4809 -1.6184 -0.5288
 7852TIP3   OH247750   3.961   2.140  11.403 -0.1082  0.6990  0.1910
 7852TIP3    H147751   4.008   2.087  11.339  1.5107  1.9824  0.2401
 7852TIP3    H247752   3.897   2.081  11.442  0.6982 -0.8175 -0.7189
 7853TIP3   OH247753   4.465   7.607  12.562  0.0121 -0.5060 -0.3415
 7853TIP3    H147754   4.463   7.679  12.500 -0.9175 -0.3952 -0.1826
 7853TIP3    H247755   4.442   7.530  12.510 -0.5659 -0.4441 -0.1785
 7854TIP3   OH247756   3.221   4.256  12.841  0.0468 -0.3502 -0.1084
 7854TIP3    H147757   3.184   4.180  12.796 -1.9154  0.7498 -0.4797
 7854TIP3    H247758   3.255   4.311  12.771 -0.7390  0.2053 -0.0673
 7855TIP3   OH247759   5.295   0.285  11.973  0.6264 -0.0413 -0.4621
 7855TIP3    H147760   5.288   0.362  11.916  0.7353 -1.0446 -1.9049
 7855TIP3    H247761   5.374   0.300  12.025  1.2064  0.3848 -1.4369
 7856TIP3   OH247762   7.540   9.081  13.157 -0.1034  0.5131  0.4610
 7856TIP3    H147763   7.485   9.146  13.114 -1.0530 -0.0553  0.7893
 7856TIP3    H247764   7.630   9.106  13.133 -0.5954 -0.2268 -2.5330
 7857TIP3   OH247765   8.932   2.960  13.435  0.4115  0.2584 -0.4438
 7857TIP3    H147766   8.941   2.894  13.367  0.6579 -1.3465  1.0604
 7857TIP3    H247767   8.872   2.921  13.499 -1.4600  2.5511 -0.6601
 7858TIP3   OH247768   4.258   7.470  12.145  0.4757  0.3107 -0.3991
 7858TIP3    H147769   4.277   7.444  12.054 -0.2730  1.6568 -0.9716
 7858TIP3    H247770   4.344   7.475  12.186  0.7849 -0.9815 -0.8242
 7859TIP3   OH247771   4.341   7.366  12.435 -0.0247  0.2971  0.6505
 7859TIP3    H147772   4.413   7.304  12.439 -0.3970 -0.1081  1.1986
 7859TIP3    H247773   4.289   7.348  12.513  0.5645  2.1823  1.5284
 7860TIP3   OH247774   4.601   0.196  12.634 -0.1609  0.3103  0.1960
 7860TIP3    H147775   4.624   0.195  12.727 -0.5265 -2.7569  0.3527
 7860TIP3    H247776   4.681   0.224  12.590  0.3876  0.6201  1.3420
 7861TIP3   OH247777   8.346   5.617  12.884 -0.1874 -0.6455  0.4015
 7861TIP3    H147778   8.253   5.639  12.878 -0.1766 -0.5853  0.4598
 7861TIP3    H247779   8.388   5.674  12.819 -0.0663  0.0377  1.0641
 7862TIP3   OH247780   3.226   1.680  13.376 -0.1383  0.0271 -0.4804
 7862TIP3    H147781   3.294   1.696  13.441  0.4438  0.3533 -1.1616
 7862TIP3    H247782   3.202   1.767  13.345 -0.0990 -0.1524 -1.0170
 7863TIP3   OH247783   2.741   6.743  13.432  0.3877  0.2729 -0.2321
 7863TIP3    H147784   2.781   6.688  13.499 -0.0441  0.2424  0.0069
 7863TIP3    H247785   2.769   6.832  13.454 -0.4898  0.3746  0.5452
 7864TIP3   OH247786   7.800   5.435  12.553 -0.0014  0.8578  0.4827
 7864TIP3    H147787   7.746   5.440  12.632 -1.1559  1.5737 -0.3064
 7864TIP3    H247788   7.804   5.342  12.532 -3.3873  0.9078 -0.9986
 7865TIP3   OH247789   4.577   5.442  11.929 -0.4338 -0.0807 -0.2537
 7865TIP3    H147790   4.592   5.430  12.022 -0.8925 -2.7297 -0.4415
 7865TIP3    H247791   4.484   5.460  11.921 -0.5729 -0.7628 -0.2373
 7866TIP3   OH247792   1.118   4.998  13.854 -0.0437 -0.5122 -1.2379
 7866TIP3    H147793   1.178   5.063  13.891 -1.0057  0.8134 -1.9308
 7866TIP3    H247794   1.150   4.985  13.764 -1.4554  1.1132 -2.0165
 7867TIP3   OH247795   6.590   6.668  12.280 -0.1431  0.0363  0.1405
 7867TIP3    H147796   6.547   6.614  12.214 -0.4754 -0.2688  0.6024
 7867TIP3    H247797   6.615   6.607  12.349  0.3100  0.3341  0.2446
 7868TIP3   OH247798   6.612   0.197  11.412  0.3183 -0.0668 -0.5465
 7868TIP3    H147799   6.539   0.169  11.466 -0.0110 -1.3547 -1.6045
 7868TIP3    H247800   6.597   0.291  11.398 -1.9002 -0.5474 -1.8368
 7869TIP3   OH247801   2.868   8.165  13.310  0.3856  0.0266  0.7869
 7869TIP3    H147802   2.812   8.087  13.306 -0.1977  0.4680 -0.0358
 7869TIP3    H247803   2.829   8.219  13.379 -0.7747  0.7291 -0.3662
 7870TIP3   OH247804   2.886   4.079  13.028 -0.0935 -0.2298 -0.0060
 7870TIP3    H147805   2.969   4.032  13.028 -0.3808 -0.8161  1.2248
 7870TIP3    H247806   2.872   4.105  12.937  0.9227 -1.0435 -0.4175
 7871TIP3   OH247807   0.289   8.292  13.430  0.5607 -0.3237 -0.3191
 7871TIP3    H147808   0.288   8.205  13.470  0.2892 -0.6576 -1.0430
 7871TIP3    H247809   0.325   8.349  13.498  0.6326 -0.9789  0.2021
 7872TIP3   OH247810   5.349   3.672  13.640 -0.0407 -0.0053  0.0730
 7872TIP3    H147811   5.297   3.613  13.695  1.1193  0.0457  1.2728
 7872TIP3    H247812   5.316   3.657  13.551 -0.4518 -1.7353  0.4839
 7873TIP3   OH247813   0.232   0.995  12.480 -0.0394  0.2019 -0.3919
 7873TIP3    H147814   0.315   1.044  12.483  0.1788 -0.2123  0.5808
 7873TIP3    H247815   0.190   1.026  12.400  1.1697  0.2280 -1.0474
 7874TIP3   OH247816   1.338   0.646  13.451 -0.5151 -0.0737  0.0983
 7874TIP3    H147817   1.417   0.595  13.469 -0.9390 -0.2076  1.7127
 7874TIP3    H247818   1.355   0.689  13.367  0.7077 -1.1804 -0.2407
 7875TIP3   OH247819   7.365   8.451  12.448 -0.4862 -0.4426  0.1375
 7875TIP3    H147820   7.443   8.427  12.498 -0.2506 -1.8200 -0.8155
 7875TIP3    H247821   7.352   8.544  12.467  1.5822 -0.0759  0.0853
 7876TIP3   OH247822   1.766   3.380  12.131  0.0987 -0.6208  0.4563
 7876TIP3    H147823   1.674   3.356  12.120 -0.0629  0.2887 -0.3621
 7876TIP3    H247824   1.795   3.402  12.042  0.8237  0.0561  0.8481
 7877TIP3   OH247825   3.254   3.338  12.321  0.3156  0.0544 -0.2397
 7877TIP3    H147826   3.302   3.369  12.398 -0.5584 -0.5850  0.5947
 7877TIP3    H247827   3.254   3.243  12.330 -0.2451 -0.0005 -0.7589
 7878TIP3   OH247828   6.457   7.413  12.574 -0.1774  0.4017  0.5058
 7878TIP3    H147829   6.411   7.413  12.658 -1.0086 -0.6172  0.0608
 7878TIP3    H247830   6.404   7.469  12.517 -3.1531 -3.6844 -1.1580
 7879TIP3   OH247831   3.288   1.803  11.578 -0.0379  0.2384 -0.0325
 7879TIP3    H147832   3.247   1.889  11.580 -0.6452 -0.0584  1.0788
 7879TIP3    H247833   3.245   1.754  11.649  0.8842 -0.7071 -0.1026
 7880TIP3   OH247834   8.734   7.962  13.203 -0.1150  0.5090  0.0340
 7880TIP3    H147835   8.701   7.874  13.218 -1.3971  0.9957  0.1749
 7880TIP3    H247836   8.693   8.016  13.270  0.7496  1.2045  0.0320
 7881TIP3   OH247837   6.144   7.591  12.213 -0.0706  0.9706  0.0176
 7881TIP3    H147838   6.192   7.589  12.130 -0.6634 -1.7931 -0.3519
 7881TIP3    H247839   6.071   7.651  12.197 -0.1723  0.4842 -1.4822
 7882TIP3   OH247840   2.884   8.595  12.975 -0.4023  0.6821  0.1688
 7882TIP3    H147841   2.929   8.516  13.006 -1.3418  0.9661  2.4600
 7882TIP3    H247842   2.804   8.563  12.935 -0.4021  0.4185  0.3741
 7883TIP3   OH247843   4.496   0.889  12.209 -0.2919  0.2859 -0.1596
 7883TIP3    H147844   4.435   0.895  12.135  0.5398 -0.2907 -0.9092
 7883TIP3    H247845   4.580   0.919  12.174  0.9032 -2.9255 -0.4032
 7884TIP3   OH247846   7.155   1.915  11.293 -0.2346  0.2469 -0.1422
 7884TIP3    H147847   7.200   1.915  11.209 -0.7729 -1.7643 -0.4658
 7884TIP3    H247848   7.218   1.955  11.353  1.6356 -1.5368 -0.7812
 7885TIP3   OH247849   6.931   2.806  12.196  0.6801  0.4211 -0.6806
 7885TIP3    H147850   6.945   2.714  12.174 -1.3475  0.2979 -1.6349
 7885TIP3    H247851   6.961   2.854  12.118  1.9068  0.6079 -0.1132
 7886TIP3   OH247852   6.774   8.141  12.001  0.3530  0.2581 -0.6198
 7886TIP3    H147853   6.842   8.081  11.968 -0.4889 -0.4690 -1.0733
 7886TIP3    H247854   6.791   8.147  12.095  0.1461 -1.1022 -0.4768
 7887TIP3   OH247855   7.803   0.708  12.727 -0.7911  0.3968 -0.3946
 7887TIP3    H147856   7.879   0.762  12.750 -1.3746  0.8625  0.5312
 7887TIP3    H247857   7.728   0.761  12.753 -1.4336 -0.1317 -1.1346
 7888TIP3   OH247858   7.846   8.012  12.719 -0.5487 -0.3845 -0.3291
 7888TIP3    H147859   7.780   7.995  12.786  0.5981 -0.1782  0.9075
 7888TIP3    H247860   7.929   7.985  12.760  0.2942  0.5784 -1.3279
 7889TIP3   OH247861   6.312   3.782  12.068 -0.1260 -0.2575  0.3396
 7889TIP3    H147862   6.298   3.876  12.082  0.0686 -0.2214  0.2994
 7889TIP3    H247863   6.317   3.745  12.156  0.5107 -0.1201  0.3682
 7890TIP3   OH247864   2.293   8.756  13.286  0.1134 -0.1436 -0.5439
 7890TIP3    H147865   2.211   8.805  13.281  0.1280 -0.0145  0.3989
 7890TIP3    H247866   2.360   8.821  13.265 -0.0248 -0.2889 -1.4904
 7891TIP3   OH247867   1.413   3.674  12.017  0.4047  0.2437 -0.0191
 7891TIP3    H147868   1.456   3.756  12.041  0.0953  0.3444  0.1993
 7891TIP3    H247869   1.446   3.654  11.929  0.7354  0.4260  0.0610
 7892TIP3   OH247870   1.570   4.424  13.157  0.1407  0.3710 -0.0620
 7892TIP3    H147871   1.561   4.338  13.117  1.3113  0.0259  0.3731
 7892TIP3    H247872   1.480   4.458  13.163 -0.3336 -0.8390 -0.1773
 7893TIP3   OH247873   4.643   2.269  11.999  0.2954 -0.4109  0.0414
 7893TIP3    H147874   4.700   2.195  11.978 -0.1224 -0.2752 -1.7888
 7893TIP3    H247875   4.687   2.344  11.959  0.3126  0.2007  1.1955
 7894TIP3   OH247876   2.454   3.224  12.282 -0.5264  0.0324 -0.0253
 7894TIP3    H147877   2.428   3.216  12.190  0.2978 -0.3331 -0.2391
 7894TIP3    H247878   2.417   3.146  12.324  0.8997 -0.9428 -0.5029
 7895TIP3   OH247879   3.994   6.916  12.097  0.0294 -0.1323  0.1289
 7895TIP3    H147880   4.066   6.978  12.102  2.0791 -2.4477  2.2145
 7895TIP3    H247881   3.929   6.950  12.159 -0.4419  1.6236 -1.2691
 7896TIP3   OH247882   2.233   8.379  12.989  0.4663  0.1592  0.6475
 7896TIP3    H147883   2.325   8.381  12.965  0.8544 -2.9777  1.3067
 7896TIP3    H247884   2.230   8.420  13.075  1.2831  0.2099  0.6629
 7897TIP3   OH247885   1.169   0.776  13.018 -0.1092  0.2997 -0.1878
 7897TIP3    H147886   1.237   0.786  13.085  0.1243  0.2514 -0.4166
 7897TIP3    H247887   1.150   0.682  13.018 -1.1866  0.5007  0.8649
 7898TIP3   OH247888   7.412   1.610  12.344 -0.0960  0.5336  0.3274
 7898TIP3    H147889   7.356   1.576  12.414 -1.3004 -0.0285 -0.8718
 7898TIP3    H247890   7.354   1.621  12.269  1.4133 -0.2475 -1.0218
 7899TIP3   OH247891   6.297   9.135  11.689 -0.3202  0.0769 -0.3770
 7899TIP3    H147892   6.240   9.064  11.657 -1.2051 -0.3256  1.9005
 7899TIP3    H247893   6.239   9.189  11.743  1.4247 -0.3279  2.0073
 7900TIP3   OH247894   3.788   1.653  12.401 -0.2676  0.4142 -0.2470
 7900TIP3    H147895   3.849   1.632  12.331 -1.0871 -0.6014 -0.6911
 7900TIP3    H247896   3.704   1.619  12.371 -1.0145  1.5656  0.4484
 7901TIP3   OH247897   1.879   5.745  12.970  0.0478  0.3430  0.3387
 7901TIP3    H147898   1.801   5.765  12.919 -0.0216 -0.6033  0.0580
 7901TIP3    H247899   1.928   5.684  12.915  0.2465 -0.2522  1.1634
 7902TIP3   OH247900   9.138   6.352  13.420 -0.0889 -0.2440  0.3759
 7902TIP3    H147901   9.084   6.360  13.341  0.4607  0.4455  0.0593
 7902TIP3    H247902   9.090   6.291  13.476 -2.1190  1.6833  0.8621
 7903TIP3   OH247903   0.396   0.111  13.337 -0.2765 -0.5930  0.2184
 7903TIP3    H147904   0.301   0.113  13.340 -0.2558 -0.4083  1.5383
 7903TIP3    H247905   0.420   0.037  13.393  0.3557 -0.1915  0.4957
 7904TIP3   OH247906   4.508   7.519  12.246 -0.1512 -0.0300 -0.1100
 7904TIP3    H147907   4.546   7.477  12.323  1.1470  1.0316 -0.1391
 7904TIP3    H247908   4.583   7.550  12.196 -1.0206  0.9512 -0.8493
 7905TIP3   OH247909   5.310   0.015  11.861  0.5570 -0.3687  0.0726
 7905TIP3    H147910   5.280   0.104  11.881  0.4666 -0.5185  0.6289
 7905TIP3    H247911   5.338   0.019  11.770  1.0662  0.3755  0.2499
 7906TIP3   OH247912   0.356   1.631  11.586  0.4086 -0.2465  0.4884
 7906TIP3    H147913   0.272   1.671  11.564  2.0755  3.3430 -0.0716
 7906TIP3    H247914   0.361   1.636  11.682  0.6010  0.9825  0.4227
 7907TIP3   OH247915   7.628   4.218  17.315  0.4021  0.0789  0.6738
 7907TIP3    H147916   7.709   4.169  17.301 -0.3631 -0.8775 -0.7105
 7907TIP3    H247917   7.575   4.199  17.237 -0.9540  1.0812  1.3047
 7908TIP3   OH247918   1.170   2.536  12.014 -0.3826 -0.1386  0.4357
 7908TIP3    H147919   1.206   2.550  12.101 -0.3487  1.4118  0.2033
 7908TIP3    H247920   1.247   2.522  11.958 -0.1511  1.9097  0.1600
 7909TIP3   OH247921   0.855   2.738  12.121  0.2257  0.1520 -0.0430
 7909TIP3    H147922   0.824   2.796  12.190  1.4036 -0.4143  0.9904
 7909TIP3    H247923   0.872   2.655  12.165  0.3316 -0.4458 -1.1530
 7910TIP3   OH247924   0.610   3.000  13.003 -0.0346 -0.0589 -0.0621
 7910TIP3    H147925   0.704   3.002  13.019 -0.2199  0.0806  1.0613
 7910TIP3    H247926   0.578   3.086  13.031 -0.5219 -0.1585 -0.2866
 7911TIP3   OH247927   8.183   3.052  11.853 -0.2228 -0.2482  0.3612
 7911TIP3    H147928   8.246   3.014  11.792  0.8074  1.0544  0.5734
 7911TIP3    H247929   8.103   3.061  11.800  1.0239  2.1444 -1.3375
 7912TIP3   OH247930   0.603   1.534  13.014  0.1213  0.0269 -0.2693
 7912TIP3    H147931   0.638   1.564  13.098  1.0975 -0.7173 -0.3858
 7912TIP3    H247932   0.527   1.481  13.037  0.5822 -0.4509  0.1675
 7913TIP3   OH247933   3.057   1.065  11.986 -0.8769 -0.7076  0.3771
 7913TIP3    H147934   3.121   1.111  12.040 -0.3446 -0.6081 -0.3230
 7913TIP3    H247935   3.007   1.134  11.944 -2.0823 -0.7710  1.6112
 7914TIP3   OH247936   8.729   0.745  12.243 -0.4647 -0.2683  0.0415
 7914TIP3    H147937   8.707   0.835  12.219  0.4800 -0.1267 -0.3206
 7914TIP3    H247938   8.644   0.702  12.255 -0.9229  0.5701 -0.1497
 7915TIP3   OH247939   7.835   2.316  12.084 -0.3402  0.3060 -0.0305
 7915TIP3    H147940   7.843   2.227  12.119  0.5175  0.2869 -0.2613
 7915TIP3    H247941   7.912   2.328  12.029  0.1041  1.5616  0.8249
 7916TIP3   OH247942   6.180   4.901  12.564 -0.1408 -0.3680 -0.4515
 7916TIP3    H147943   6.216   4.864  12.483  1.6563  0.1037  0.0956
 7916TIP3    H247944   6.254   4.943  12.607 -0.6385 -2.0575  2.3071
 7917TIP3   OH247945   4.479   3.273  13.639 -0.0072 -0.5402  0.4905
 7917TIP3    H147946   4.554   3.325  13.610 -0.1177  1.6097  3.5824
 7917TIP3    H247947   4.403   3.317  13.600  0.1162 -0.6189  0.1558
 7918TIP3   OH247948   4.830   6.161  12.272  0.2040 -0.1326  0.6497
 7918TIP3    H147949   4.849   6.069  12.254  0.1225 -0.0114 -0.0702
 7918TIP3    H247950   4.748   6.159  12.322  0.0623 -0.4355  0.4044
 7919TIP3   OH247951   2.026   2.869  13.058  0.3011  0.5352 -0.2664
 7919TIP3    H147952   1.950   2.837  13.107  0.3477  0.8459  0.0167
 7919TIP3    H247953   2.039   2.805  12.988  0.6178 -0.2636  0.5025
 7920TIP3   OH247954   4.693   4.131  13.113 -0.5048  0.4986 -0.1771
 7920TIP3    H147955   4.604   4.166  13.114 -0.1698  1.3797  0.9079
 7920TIP3    H247956   4.749   4.208  13.105  0.1735 -0.0936 -1.5644
 7921TIP3   OH247957   7.648   6.106  12.137  0.1663 -0.6794  0.3154
 7921TIP3    H147958   7.625   6.193  12.104 -0.4703 -0.6400  0.8449
 7921TIP3    H247959   7.719   6.122  12.199 -0.0198 -0.5248  0.4899
 7922TIP3   OH247960   1.102   4.425  12.849  0.6197  0.3141  0.5037
 7922TIP3    H147961   1.072   4.455  12.935 -0.3512 -0.6149  0.5114
 7922TIP3    H247962   1.179   4.478  12.830  1.9032 -0.6443  2.7092
 7923TIP3   OH247963   9.022   3.267  11.664  0.2846 -0.4645  0.0425
 7923TIP3    H147964   9.041   3.238  11.574  1.2292  0.0173  0.0741
 7923TIP3    H247965   9.086   3.220  11.718  1.5908  1.3168  0.1408
 7924TIP3   OH247966   8.852   4.378  12.769 -0.3830 -0.6478  0.5438
 7924TIP3    H147967   8.877   4.319  12.841  0.0469  0.4024  1.2786
 7924TIP3    H247968   8.839   4.463  12.811 -0.0351  0.0084 -0.6332
 7925TIP3   OH247969   3.299   6.584  13.618 -0.3910 -0.3572 -0.1173
 7925TIP3    H147970   3.291   6.495  13.652  2.0718 -0.5561  0.1249
 7925TIP3    H247971   3.381   6.584  13.569  0.0778  1.9690  0.5420
 7926TIP3   OH247972   2.879   0.079  13.030 -0.5039  0.6380 -0.4741
 7926TIP3    H147973   2.849   0.106  13.117 -2.3952  0.8621 -1.1490
 7926TIP3    H247974   2.971   0.055  13.042 -1.0357 -0.4839  1.8184
 7927TIP3   OH247975   9.070   6.997  12.146  0.1505  0.0167  0.0470
 7927TIP3    H147976   8.999   6.988  12.211 -1.5810 -0.8388 -1.8469
 7927TIP3    H247977   9.028   7.040  12.071  2.0999  1.0412 -0.5255
 7928TIP3   OH247978   1.156   7.001  12.839  0.4808  0.2058 -0.4678
 7928TIP3    H147979   1.107   6.968  12.914  0.7741  1.2063  0.1883
 7928TIP3    H247980   1.090   7.012  12.771 -0.1831  1.2112  0.2913
 7929TIP3   OH247981   3.617   5.622  12.671  0.1712 -0.1680  0.0056
 7929TIP3    H147982   3.524   5.600  12.665  0.5370 -1.4098 -1.9320
 7929TIP3    H247983   3.653   5.555  12.729  0.5408 -2.3949 -2.6076
 7930TIP3   OH247984   8.275   0.866  11.360  0.3122  0.2472  0.2455
 7930TIP3    H147985   8.290   0.942  11.304  1.3112  1.5686  2.1861
 7930TIP3    H247986   8.350   0.808  11.344 -1.3515 -1.3458 -2.6075
 7931TIP3   OH247987   3.530   8.382  13.493 -0.4132 -0.2640  0.2729
 7931TIP3    H147988   3.596   8.390  13.425 -0.2606  1.0575  0.5509
 7931TIP3    H247989   3.511   8.289  13.497 -1.0712 -0.3171 -2.2025
 7932TIP3   OH247990   4.022   6.056  12.378 -0.0574 -0.1999 -0.0251
 7932TIP3    H147991   4.087   6.029  12.313  1.3911  1.2943  0.7097
 7932TIP3    H247992   4.072   6.111  12.439 -1.7918  0.0370  1.2424
 7933TIP3   OH247993   3.421   0.556  12.506  0.0425 -0.1500 -0.2200
 7933TIP3    H147994   3.455   0.645  12.507  2.0704 -0.8583  0.5284
 7933TIP3    H247995   3.499   0.501  12.513 -1.3057 -1.9327  2.5404
 7934TIP3   OH247996   8.167   7.116  11.731 -0.3171  0.2472 -0.4360
 7934TIP3    H147997   8.183   7.160  11.648 -2.1695  0.1270 -0.9010
 7934TIP3    H247998   8.226   7.041  11.730 -1.6173 -0.8557 -2.5673
 7935TIP3   OH247999   4.274   8.930  12.676  0.0204  0.1912  0.1479
 7935TIP3    H148000   4.344   8.995  12.684  1.1581 -0.9121 -0.5150
 7935TIP3    H248001   4.262   8.918  12.582 -0.9349  0.2100  0.2571
 7936TIP3   OH248002   5.796   2.423  12.042 -0.1845 -0.0745 -0.1192
 7936TIP3    H148003   5.857   2.367  12.089 -0.0900  0.0922 -0.0447
 7936TIP3    H248004   5.752   2.474  12.110  0.9591  1.1988 -0.2916
 7937TIP3   OH248005   6.271   6.736  13.074 -0.0069 -0.0222  0.3614
 7937TIP3    H148006   6.307   6.757  13.161  0.7886 -2.2682  0.6473
 7937TIP3    H248007   6.279   6.817  13.025  1.6665  0.7058  1.6987
 7938TIP3   OH248008   4.927   6.444  12.536 -0.2273 -0.0178 -0.6570
 7938TIP3    H148009   4.932   6.385  12.611 -1.9677 -0.5154 -0.8794
 7938TIP3    H248010   4.957   6.391  12.462 -4.5607 -1.8543 -1.4278
 7939TIP3   OH248011   0.809   9.076  13.525  0.2766  0.0624 -0.0578
 7939TIP3    H148012   0.730   9.060  13.473 -0.1063 -0.9212  0.8129
 7939TIP3    H248013   0.796   9.026  13.605  1.7359 -0.0167  0.1495
 7940TIP3   OH248014   7.126   4.060  12.383  1.0977  0.0029 -0.4775
 7940TIP3    H148015   7.131   3.999  12.457 -2.6315  0.7834  0.6358
 7940TIP3    H248016   7.181   4.134  12.409  3.3456 -1.5287 -0.5710
 7941TIP3   OH248017   8.545   5.714  13.610 -0.4087 -0.4476 -0.1112
 7941TIP3    H148018   8.503   5.715  13.696 -0.5283 -1.9943 -0.1144
 7941TIP3    H248019   8.567   5.805  13.592 -2.6678  0.2721  0.4187
 7942TIP3   OH248020   9.204   6.194  12.715  0.6005 -0.8772 -0.0691
 7942TIP3    H148021   9.176   6.279  12.681 -0.4341 -0.6058  1.3827
 7942TIP3    H248022   9.272   6.166  12.654 -0.0570  0.3071 -1.4271
 7943TIP3   OH248023   0.357   5.380  11.850 -0.0768  0.2131 -0.2243
 7943TIP3    H148024   0.388   5.299  11.808 -0.4039 -0.9036  1.5655
 7943TIP3    H248025   0.417   5.393  11.923 -1.4352  0.1968  0.9534
 7944TIP3   OH248026   4.891   6.708  12.530 -0.4914  0.1780  0.6239
 7944TIP3    H148027   4.832   6.724  12.604 -1.3299  1.3441 -0.2625
 7944TIP3    H248028   4.891   6.613  12.520 -3.8651  0.1904 -0.6140
 7945TIP3   OH248029   2.679   6.432  11.787 -0.0980 -0.2252  0.2551
 7945TIP3    H148030   2.747   6.373  11.819 -1.0860 -0.5477  1.8911
 7945TIP3    H248031   2.726   6.514  11.769  0.9594 -0.8938 -0.1134
 7946TIP3   OH248032   8.886   1.414  12.007  0.0833 -0.1695  0.7206
 7946TIP3    H148033   8.931   1.347  12.059  0.7346 -0.8363 -0.6341
 7946TIP3    H248034   8.938   1.493  12.020  0.5296 -0.4525  0.6921
 7947TIP3   OH248035   3.568   1.617  12.640 -0.5216 -0.5375 -0.0336
 7947TIP3    H148036   3.595   1.550  12.576  1.6949  0.1124  0.1468
 7947TIP3    H248037   3.535   1.689  12.586 -1.0530 -0.9705 -0.3071
 7948TIP3   OH248038   1.377   7.729  12.417  0.0741  0.3430  0.0293
 7948TIP3    H148039   1.366   7.660  12.352 -0.3886  0.5364 -0.1042
 7948TIP3    H248040   1.468   7.757  12.408  0.0697  0.2302 -0.3929
 7949TIP3   OH248041   6.670   2.459  11.391  0.0016  0.3616  0.0981
 7949TIP3    H148042   6.623   2.536  11.421 -1.1759  0.2399 -1.3168
 7949TIP3    H248043   6.608   2.386  11.401  0.5146 -0.1134 -0.0994
 7950TIP3   OH248044   1.676   2.702  12.321 -0.1563  0.1729 -0.3142
 7950TIP3    H148045   1.737   2.633  12.297  0.0300  0.4274 -0.5803
 7950TIP3    H248046   1.710   2.736  12.405 -0.8773 -0.7983  0.3908
 7951TIP3   OH248047   2.568   4.522  12.895  0.3531  0.3404  0.4696
 7951TIP3    H148048   2.485   4.537  12.851  0.8602  0.8413 -0.3283
 7951TIP3    H248049   2.557   4.436  12.937 -0.9543  0.8876  1.3193
 7952TIP3   OH248050   6.848   4.466  13.089 -0.4545  0.0026  0.4378
 7952TIP3    H148051   6.821   4.555  13.065 -0.9822 -0.2913 -0.0822
 7952TIP3    H248052   6.851   4.419  13.006 -0.5365 -0.5635  0.7522
 7953TIP3   OH248053   1.307   2.206  13.313  0.4153  0.2644  0.5606
 7953TIP3    H148054   1.287   2.118  13.343  1.0896  0.1934  0.8219
 7953TIP3    H248055   1.343   2.251  13.390 -1.1226  1.1797  0.7766
 7954TIP3   OH248056   5.917   7.658  11.818 -0.2142  0.3943 -0.1532
 7954TIP3    H148057   5.912   7.575  11.771  0.6945 -0.3220  0.9819
 7954TIP3    H248058   5.828   7.672  11.852 -0.2400 -0.3963  0.1260
 7955TIP3   OH248059   1.148   5.209  13.179  0.6838  0.3256 -0.2267
 7955TIP3    H148060   1.087   5.279  13.154  0.7198  0.0654 -1.0533
 7955TIP3    H248061   1.091   5.141  13.215  0.5367  0.3030 -0.4986
 7956TIP3   OH248062   6.796   7.958  11.681 -0.1022  0.4366 -0.2029
 7956TIP3    H148063   6.707   7.992  11.671  0.1823  1.4856  0.6531
 7956TIP3    H248064   6.853   8.030  11.652  0.5245  0.8303  1.8537
 7957TIP3   OH248065   8.809   0.515  12.806  0.4857  0.2526 -0.0492
 7957TIP3    H148066   8.859   0.553  12.878  1.1298  2.3661 -1.5271
 7957TIP3    H248067   8.718   0.534  12.828  0.6926  1.1288  0.0694
 7958TIP3   OH248068   8.586   1.714  12.467  0.2875 -0.0812 -0.1086
 7958TIP3    H148069   8.639   1.793  12.478  0.7096 -0.2778 -0.6922
 7958TIP3    H248070   8.542   1.727  12.382  2.4628 -1.6687 -1.5686
 7959TIP3   OH248071   8.079   8.209  11.616 -0.1116 -0.5526  0.6678
 7959TIP3    H148072   8.094   8.280  11.679  0.7555 -0.3887  0.2965
 7959TIP3    H248073   8.104   8.129  11.664  0.7393 -0.4077  0.4717
 7960TIP3   OH248074   3.055   0.492  12.093 -0.1444  0.1841 -0.0749
 7960TIP3    H148075   2.982   0.471  12.152  0.6710 -1.6530  0.3441
 7960TIP3    H248076   3.114   0.545  12.145 -0.7686  0.9745 -0.1539
 7961TIP3   OH248077   8.497   0.667  12.883  0.2881  0.6580  0.4198
 7961TIP3    H148078   8.418   0.692  12.929 -0.6547  0.6046 -1.0856
 7961TIP3    H248079   8.534   0.749  12.851  0.9098  0.6916  1.1941
 7962TIP3   OH248080   8.754   1.000  12.051  0.5144 -0.1152 -0.0911
 7962TIP3    H148081   8.784   1.046  12.129 -0.0715 -0.8405  0.5719
 7962TIP3    H248082   8.815   0.927  12.041 -0.1686 -0.7676  0.4384
 7963TIP3   OH248083   8.405   0.857  12.543 -0.0555 -0.2296 -0.0106
 7963TIP3    H148084   8.380   0.767  12.561  0.1523 -0.2842  0.0074
 7963TIP3    H248085   8.501   0.858  12.552 -0.0049 -0.1243 -0.5204
 7964TIP3   OH248086   7.000   2.561  11.822 -0.1712  0.0507 -0.2841
 7964TIP3    H148087   6.950   2.500  11.876 -0.6155  1.9590  1.5786
 7964TIP3    H248088   6.934   2.610  11.772  0.1434 -0.5006 -1.2728
 7965TIP3   OH248089   0.869   3.400  13.460  0.3982  0.4814  0.2532
 7965TIP3    H148090   0.913   3.335  13.515  0.2810  0.6374  0.5376
 7965TIP3    H248091   0.934   3.426  13.395  0.5670  0.3577  0.3724
 7966TIP3   OH248092   8.441   2.424  13.089 -0.3933  0.0209 -0.0821
 7966TIP3    H148093   8.515   2.475  13.121 -1.8225  2.7831 -0.7992
 7966TIP3    H248094   8.389   2.406  13.168  0.8520 -1.7105  0.3859
 7967TIP3   OH248095   3.841   0.757  13.681 -0.2240  0.1188  0.1289
 7967TIP3    H148096   3.831   0.833  13.739 -2.1528  1.2071 -1.5250
 7967TIP3    H248097   3.930   0.763  13.648  0.2187  0.6362  1.3658
 7968TIP3   OH248098   3.934   0.705  13.198  0.0580  0.1161 -0.4819
 7968TIP3    H148099   3.850   0.715  13.243  0.0197  0.1936 -0.5725
 7968TIP3    H248100   3.932   0.768  13.127  0.6600  0.9166  0.1972
 7969TIP3   OH248101   2.793   5.230  11.897 -0.6085 -0.0487  0.4523
 7969TIP3    H148102   2.809   5.324  11.902 -0.8600  0.0107  0.1526
 7969TIP3    H248103   2.840   5.194  11.972 -0.5723  0.3245  0.6118
 7970TIP3   OH248104   3.208   9.184  13.318  0.5315  0.2011  0.2216
 7970TIP3    H148105   3.214   9.225  13.404  0.0065  0.0267  0.3402
 7970TIP3    H248106   3.121   9.144  13.315  0.9522 -0.7308  0.0234
 7971TIP3   OH248107   0.278   6.468  12.366 -0.0014  0.4498 -0.2518
 7971TIP3    H148108   0.318   6.456  12.280 -0.1871  1.7937 -0.5473
 7971TIP3    H248109   0.308   6.393  12.417  1.4658  0.5002 -0.9821
 7972TIP3   OH248110   0.762   1.895  11.569 -0.1479  0.5831 -0.0267
 7972TIP3    H148111   0.668   1.904  11.584 -0.2177 -1.2224  0.8361
 7972TIP3    H248112   0.803   1.944  11.641 -0.4739 -1.1470  1.3914
 7973TIP3   OH248113   5.613   4.468  11.930 -0.2069  0.3159 -0.0110
 7973TIP3    H148114   5.571   4.406  11.989 -0.0312  0.4698  0.2815
 7973TIP3    H248115   5.704   4.472  11.960 -0.1432  0.4814 -0.2213
 7974TIP3   OH248116   5.926   4.801  12.421 -0.2899 -0.0905  0.2258
 7974TIP3    H148117   5.860   4.793  12.490 -0.3274 -0.5813  0.1348
 7974TIP3    H248118   5.976   4.880  12.444 -0.8472  0.2305  0.3439
 7975TIP3   OH248119   4.289   0.300  12.705 -0.2029 -0.0502 -0.2516
 7975TIP3    H148120   4.274   0.227  12.764  1.0013 -0.4854 -0.4689
 7975TIP3    H248121   4.241   0.276  12.625 -1.1278  0.1569  0.2186
 7976TIP3   OH248122   5.598   2.887  13.238 -0.1309 -0.6489 -0.2271
 7976TIP3    H148123   5.615   2.812  13.295  0.1846  0.2626  0.8929
 7976TIP3    H248124   5.671   2.887  13.176 -0.0172 -1.1388 -0.0996
 7977TIP3   OH248125   2.254   2.475  12.883 -0.1179  0.1716  0.3984
 7977TIP3    H148126   2.289   2.491  12.971  0.5010  1.6795 -0.0819
 7977TIP3    H248127   2.290   2.390  12.858  0.2098  0.0166  1.3448
 7978TIP3   OH248128   8.260   0.609  12.632 -0.2842  0.0373 -0.1999
 7978TIP3    H148129   8.317   0.541  12.668  1.8764  0.1398 -3.0589
 7978TIP3    H248130   8.211   0.565  12.562 -3.2397  0.1777  1.5958
 7979TIP3   OH248131   0.558   1.143  12.046 -0.5883  0.1781 -0.1056
 7979TIP3    H148132   0.601   1.208  11.991 -3.0972  2.2427  0.1591
 7979TIP3    H248133   0.614   1.136  12.123 -0.1848  2.0104 -0.1843
 7980TIP3   OH248134   2.018   8.640  13.577  0.4692  0.1628  0.0612
 7980TIP3    H148135   2.019   8.719  13.523 -1.8689  0.2432  0.0088
 7980TIP3    H248136   2.031   8.673  13.666  1.0732  0.4110 -0.1115
 7981TIP3   OH248137   3.154   7.985  12.888  0.1284 -0.2416 -0.4847
 7981TIP3    H148138   3.083   8.049  12.881 -1.7433 -2.1787 -0.2415
 7981TIP3    H248139   3.180   7.988  12.980 -0.6697 -0.5257 -0.2392
 7982TIP3   OH248140   3.813   1.359  12.273  0.4971 -0.6260 -0.3143
 7982TIP3    H148141   3.826   1.286  12.211  0.0881  0.1862 -1.3918
 7982TIP3    H248142   3.883   1.420  12.254  0.2646 -0.2854 -0.0890
 7983TIP3   OH248143   2.410   1.100  12.098 -0.0664 -0.4529 -0.3492
 7983TIP3    H148144   2.504   1.084  12.108  0.0127 -0.5324 -1.1322
 7983TIP3    H248145   2.390   1.167  12.163  0.8033  0.5175 -1.0520
 7984TIP3   OH248146   2.470   5.439  12.558 -0.0951  0.0679 -0.1392
 7984TIP3    H148147   2.471   5.422  12.464  0.6445  0.8845 -0.2942
 7984TIP3    H248148   2.497   5.531  12.566 -0.1123 -0.0047  0.8675
 7985TIP3   OH248149   0.491   0.334  12.107  0.4560 -1.2708 -0.1030
 7985TIP3    H148150   0.522   0.398  12.042  1.7115 -0.3185  1.3744
 7985TIP3    H248151   0.396   0.337  12.100  0.4746  0.7104 -0.1588
 7986TIP3   OH248152   8.845   5.580  12.331 -0.0146 -0.1910 -0.3539
 7986TIP3    H148153   8.802   5.587  12.417 -1.8728 -0.2891 -1.2304
 7986TIP3    H248154   8.837   5.487  12.309  0.4825 -0.1687 -0.6213
 7987TIP3   OH248155   6.826   8.837  11.923 -0.2853  0.2264  0.5731
 7987TIP3    H148156   6.888   8.888  11.975  0.6214  1.1590 -1.3441
 7987TIP3    H248157   6.768   8.901  11.883  0.8228 -0.1412 -1.8125
 7988TIP3   OH248158   7.517   3.973  13.212 -0.7489  0.1830  0.2705
 7988TIP3    H148159   7.539   3.997  13.122 -0.8033 -2.4488 -0.5190
 7988TIP3    H248160   7.436   4.020  13.230 -1.2215  0.0759 -1.4089
 7989TIP3   OH248161   7.003   6.883  12.506  0.0171 -0.1487  1.1030
 7989TIP3    H148162   7.045   6.960  12.545 -0.2333  0.2884  0.5065
 7989TIP3    H248163   6.949   6.847  12.577  2.0089 -1.2372  2.1996
 7990TIP3   OH248164   7.471   5.380  13.134 -0.2592  0.4315  0.0091
 7990TIP3    H148165   7.521   5.460  13.149 -0.7174  0.7280 -0.0123
 7990TIP3    H248166   7.393   5.390  13.188 -1.3262  0.9457 -1.5575
 7991TIP3   OH248167   4.790   2.239  12.260 -0.0168 -0.1361  0.0544
 7991TIP3    H148168   4.768   2.285  12.341  0.3148 -0.0076  0.0727
 7991TIP3    H248169   4.725   2.271  12.197  0.7916  1.1201 -0.1891
 7992TIP3   OH248170   0.155   4.179  13.314 -0.0087  0.1323 -0.1826
 7992TIP3    H148171   0.191   4.264  13.338  0.6811 -0.3449  0.5220
 7992TIP3    H248172   0.062   4.186  13.335  0.4851 -0.1369  2.4807
 7993TIP3   OH248173   4.081   3.419  12.535 -0.0999 -0.6658 -0.1282
 7993TIP3    H148174   4.175   3.413  12.551  0.3397  0.7306 -1.8033
 7993TIP3    H248175   4.074   3.435  12.441 -1.7373  3.6120  0.5237
 7994TIP3   OH248176   1.886   3.901  13.132  0.2843 -0.3488 -0.1802
 7994TIP3    H148177   1.851   3.935  13.214 -0.6915  1.1427 -1.1748
 7994TIP3    H248178   1.978   3.883  13.151 -0.4555 -2.4020  1.9097
 7995TIP3   OH248179   3.559   5.897  12.796 -0.2860  0.0809  0.2962
 7995TIP3    H148180   3.531   5.891  12.887  0.5360  1.0598  0.6365
 7995TIP3    H248181   3.574   5.807  12.768 -0.5052 -0.2189  1.1481
 7996TIP3   OH248182   1.774   1.893  13.282 -0.2041 -0.9275 -0.6349
 7996TIP3    H148183   1.778   1.798  13.271 -1.2614 -0.9837 -0.6240
 7996TIP3    H248184   1.714   1.922  13.213 -0.8096 -0.4078  0.0939
 7997TIP3   OH248185   7.396   2.291  11.953  0.5569 -0.1948 -0.1526
 7997TIP3    H148186   7.304   2.298  11.979  0.6065  0.4056 -0.1220
 7997TIP3    H248187   7.394   2.299  11.858  0.5985  0.1118 -0.1300
 7998TIP3   OH248188   1.783   1.098  13.568 -0.6085 -0.0350 -0.1929
 7998TIP3    H148189   1.700   1.080  13.525 -0.3351 -2.1002  0.0619
 7998TIP3    H248190   1.813   1.013  13.600  1.6665  0.6176 -0.3976
 7999TIP3   OH248191   6.943   7.522  12.058  0.0662 -0.3785 -0.5252
 7999TIP3    H148192   6.871   7.571  12.099 -0.8773 -2.0769 -0.0734
 7999TIP3    H248193   6.926   7.530  11.964  1.2120  2.0027 -0.6103
 8000TIP3   OH248194   2.793   7.622  12.653  0.4098  0.0483 -0.2975
 8000TIP3    H148195   2.820   7.681  12.583 -3.7526  1.7391 -0.8057
 8000TIP3    H248196   2.759   7.679  12.721  0.3258 -1.6905  1.1904
 8001TIP3   OH248197   2.825   5.874  12.240  0.3722 -0.0119 -0.0443
 8001TIP3    H148198   2.839   5.788  12.279 -0.1502 -0.0135  0.1460
 8001TIP3    H248199   2.729   5.883  12.236  0.4259  0.6284  0.0843
 8002TIP3   OH248200   0.419   7.233  12.797 -0.2076  0.0726  0.2264
 8002TIP3    H148201   0.356   7.184  12.850 -0.3821  0.2460  0.1761
 8002TIP3    H248202   0.493   7.248  12.856 -0.2506 -0.0500  0.3115
 8003TIP3   OH248203   5.967   0.588  11.998 -0.3410 -0.5692  0.2503
 8003TIP3    H148204   6.029   0.584  11.925  0.3538 -0.4249  0.8229
 8003TIP3    H248205   5.944   0.497  12.015 -0.4614 -0.6085 -0.1122
 8004TIP3   OH248206   5.444   1.979  12.348  0.4363 -0.1673  0.4591
 8004TIP3    H148207   5.474   2.033  12.275 -2.7911 -0.9673 -1.6337
 8004TIP3    H248208   5.359   2.015  12.371 -1.3489 -3.5519 -0.2931
 8005TIP3   OH248209   0.125   8.811  11.646 -0.1594 -0.2943 -0.5055
 8005TIP3    H148210   0.143   8.742  11.710  1.9347  0.5303 -0.1044
 8005TIP3    H248211   0.210   8.851  11.629 -1.0221  1.0120 -2.1072
 8006TIP3   OH248212   7.487   2.856  11.490  0.4623 -0.5725  0.5107
 8006TIP3    H148213   7.504   2.790  11.557  2.6423 -1.6581 -0.9902
 8006TIP3    H248214   7.474   2.806  11.409 -0.5994  0.7461 -0.1759
 8007TIP3   OH248215   9.124   2.802  13.061 -0.7042  0.5961 -0.0854
 8007TIP3    H148216   9.084   2.876  13.108  0.0848  0.2518  1.1591
 8007TIP3    H248217   9.177   2.757  13.126  1.0752  0.5383 -1.4818
 8008TIP3   OH248218   7.577   1.585  11.734  0.0618  0.2888  0.3885
 8008TIP3    H148219   7.639   1.657  11.721  0.8163 -0.0889  1.6809
 8008TIP3    H248220   7.517   1.617  11.801  0.0373 -0.0484  0.5314
 8009TIP3   OH248221   6.040   5.457  12.169 -0.2599 -0.0526  0.1082
 8009TIP3    H148222   5.985   5.400  12.116 -0.5457  0.2338  0.0912
 8009TIP3    H248223   5.992   5.469  12.251  0.3154 -0.7314  0.5642
 8010TIP3   OH248224   3.812   5.932  12.557  0.1611  0.3427  0.2528
 8010TIP3    H148225   3.854   5.862  12.607  0.3936  1.3561  1.5209
 8010TIP3    H248226   3.884   5.970  12.505  0.2832  0.4172  0.4755
 8011TIP3   OH248227   4.844   2.416  11.891 -0.2622  0.0904 -0.0895
 8011TIP3    H148228   4.908   2.442  11.957  0.5090 -0.1546 -0.7257
 8011TIP3    H248229   4.890   2.424  11.807 -1.2954  0.6275 -0.6309
 8012TIP3   OH248230   8.683   5.928  12.648  0.1056  0.6585  0.0817
 8012TIP3    H148231   8.742   5.860  12.680  0.3999 -0.5575 -2.6913
 8012TIP3    H248232   8.727   6.010  12.666  1.6152 -0.1152  0.0378
 8013TIP3   OH248233   4.270   7.738  12.789 -0.2078  0.7390  0.2100
 8013TIP3    H148234   4.337   7.793  12.830  1.0927 -0.5586 -0.1011
 8013TIP3    H248235   4.317   7.691  12.719 -1.5054  0.0041 -0.1920
 8014TIP3   OH248236   2.622   2.894  12.227 -0.2260  0.0822 -0.0019
 8014TIP3    H148237   2.547   2.901  12.169 -0.2746 -0.3061  0.0124
 8014TIP3    H248238   2.636   2.983  12.260 -1.1886  0.0084  0.6442
 8015TIP3   OH248239   1.014   6.386  13.170  0.1835  0.3932  1.0559
 8015TIP3    H148240   1.102   6.423  13.175  0.8794 -0.9767 -0.0604
 8015TIP3    H248241   1.028   6.291  13.174 -1.1155  0.0981 -0.2593
 8016TIP3   OH248242   1.710   2.629  13.673 -0.2127 -0.0217 -0.3409
 8016TIP3    H148243   1.789   2.684  13.672 -0.2694  0.0682 -0.0519
 8016TIP3    H248244   1.737   2.549  13.716 -0.7614  0.7690  1.5829
 8017TIP3   OH248245   4.439   3.604  12.925  0.2476 -0.2958 -0.1577
 8017TIP3    H148246   4.480   3.680  12.883 -0.5867  0.9702  1.2408
 8017TIP3    H248247   4.496   3.585  12.999  0.2919 -0.8810 -0.3364
 8018TIP3   OH248248   2.927   4.282  12.304  0.3691 -0.1032  0.0056
 8018TIP3    H148249   3.004   4.247  12.350  0.5154  0.2845  0.0550
 8018TIP3    H248250   2.866   4.208  12.302  0.7043 -0.3855  0.0496
 8019TIP3   OH248251   6.613   8.791  11.703 -0.0225 -0.2936 -0.0361
 8019TIP3    H148252   6.639   8.883  11.698 -0.3152 -0.1145  1.4039
 8019TIP3    H248253   6.566   8.775  11.621  2.4682  0.0200 -1.6249
 8020TIP3   OH248254   1.011   0.831  12.597  0.4082 -0.1840 -0.7188
 8020TIP3    H148255   1.084   0.862  12.652 -0.7625  1.6763 -0.1505
 8020TIP3    H248256   0.986   0.747  12.636  0.0028  0.8105  1.2686
 8021TIP3   OH248257   5.779   7.176  12.222 -0.1311 -0.0981 -0.1678
 8021TIP3    H148258   5.794   7.270  12.224 -1.2124  0.0755  1.7410
 8021TIP3    H248259   5.862   7.138  12.250  0.2107  0.2802 -0.6413
 8022TIP3   OH248260   4.385   6.726  11.869 -0.0148  0.2687 -0.3266
 8022TIP3    H148261   4.325   6.790  11.831 -1.3819 -1.3035 -0.9922
 8022TIP3    H248262   4.352   6.712  11.957  1.5600  1.9617  0.5970
 8023TIP3   OH248263   3.722   7.899  12.297  0.2245  0.0676  0.0520
 8023TIP3    H148264   3.739   7.988  12.329 -1.0304 -0.0405  1.1035
 8023TIP3    H248265   3.778   7.891  12.220  1.0302  1.4527  0.4411
 8024TIP3   OH248266   6.796   7.723  12.242 -0.2292  0.1239  0.1278
 8024TIP3    H148267   6.713   7.721  12.289  0.4174 -1.7771  1.3110
 8024TIP3    H248268   6.853   7.778  12.295 -0.5024  0.8281 -0.2979
 8025TIP3   OH248269   4.937   7.780  12.366 -0.1206  0.1178  0.3008
 8025TIP3    H148270   4.957   7.746  12.453 -0.6083  0.9658  0.7524
 8025TIP3    H248271   4.855   7.829  12.377 -0.6213 -0.4381 -0.8006
 8026TIP3   OH248272   5.386   0.429  13.394 -0.6020  0.2508  0.6699
 8026TIP3    H148273   5.464   0.477  13.365 -0.6514  0.9457  1.6680
 8026TIP3    H248274   5.316   0.459  13.336  0.0978 -1.3892 -1.1553
 8027TIP3   OH248275   2.499   1.667  11.923  0.6902  0.0246 -0.2200
 8027TIP3    H148276   2.447   1.741  11.957 -0.3207 -1.1687  0.9330
 8027TIP3    H248277   2.477   1.594  11.981  0.3096 -1.6565 -2.3645
 8028TIP3   OH248278   1.049   4.753  13.349  0.8038  0.6980  0.3255
 8028TIP3    H148279   1.075   4.772  13.439  0.3311  1.5255  0.3009
 8028TIP3    H248280   0.978   4.688  13.358  1.1209  0.3766  0.5196
 8029TIP3   OH248281   5.352   1.812  12.830  0.2688 -0.4845 -0.8604
 8029TIP3    H148282   5.285   1.760  12.875 -1.9539  2.6463 -0.2537
 8029TIP3    H248283   5.433   1.789  12.876 -1.3661  0.1253  2.7235
 8030TIP3   OH248284   1.487   4.112  11.805 -0.9849 -0.0372  0.0213
 8030TIP3    H148285   1.421   4.115  11.736 -0.7227 -1.5081 -0.3334
 8030TIP3    H248286   1.550   4.179  11.781 -0.4996 -1.0364 -1.6168
 8031TIP3   OH248287   2.909   5.349  12.489 -0.2039 -0.1210  0.2537
 8031TIP3    H148288   2.992   5.386  12.458 -0.2426 -0.5653 -0.4068
 8031TIP3    H248289   2.897   5.386  12.576  0.8341 -0.2749  0.4745
 8032TIP3   OH248290   4.385   1.216  11.881  0.0031 -0.1894 -0.2212
 8032TIP3    H148291   4.451   1.193  11.816 -0.5783 -1.0514 -0.5285
 8032TIP3    H248292   4.309   1.162  11.858 -0.7705  0.6996  0.1917
 8033TIP3   OH248293   8.382   8.027  12.764 -0.1143 -0.1049 -0.0553
 8033TIP3    H148294   8.338   8.087  12.823 -1.1187  1.3972 -2.2026
 8033TIP3    H248295   8.434   8.083  12.707  0.6411 -1.4635 -0.7595
 8034TIP3   OH248296   8.357   3.216  13.551 -0.4826  0.0192 -0.0104
 8034TIP3    H148297   8.309   3.178  13.477  1.2865  0.7933 -1.6345
 8034TIP3    H248298   8.395   3.141  13.596  0.2106 -0.3750 -1.2019
 8035TIP3   OH248299   0.513   5.624  12.346 -0.0861 -0.2072  0.0143
 8035TIP3    H148300   0.598   5.651  12.380 -0.0122 -1.6715  1.0756
 8035TIP3    H248301   0.524   5.532  12.324 -1.3365 -0.3670 -0.0231
 8036TIP3   OH248302   2.017   6.407  12.446  0.5847 -0.3620  0.5314
 8036TIP3    H148303   1.987   6.331  12.397  0.4914  0.7180 -1.1704
 8036TIP3    H248304   1.939   6.461  12.457  1.1601  0.8089 -0.8193
 8037TIP3   OH248305   4.221   7.306  12.713  0.0173 -0.1538  0.1660
 8037TIP3    H148306   4.207   7.337  12.803  0.2018 -0.0077  0.1468
 8037TIP3    H248307   4.262   7.220  12.723  1.0267  0.3228  0.2287
 8038TIP3   OH248308   8.631   3.943  12.221 -0.4175  0.2051  0.0343
 8038TIP3    H148309   8.683   3.910  12.294 -3.1391 -0.9134  1.6304
 8038TIP3    H248310   8.671   3.904  12.143  0.0089 -2.1886  1.3458
 8039TIP3   OH248311   8.103   2.864  12.293  0.1390  0.4961 -0.4764
 8039TIP3    H148312   8.126   2.924  12.222  0.9221  0.9008  0.0942
 8039TIP3    H248313   8.172   2.878  12.359  1.2270 -2.0861 -0.9299
 8040TIP3   OH248314   8.090   2.420  12.932  0.0413  0.4686 -0.0250
 8040TIP3    H148315   8.099   2.515  12.932 -0.0877  0.4878 -0.9046
 8040TIP3    H248316   8.130   2.392  12.850  0.7935 -0.3124  0.5902
 8041TIP3   OH248317   0.810   1.358  12.993  0.0265  0.1209 -0.5145
 8041TIP3    H148318   0.736   1.416  12.976 -0.1061 -0.3313 -1.5317
 8041TIP3    H248319   0.846   1.389  13.077 -1.2582  0.3840 -0.0492
 8042TIP3   OH248320   1.314   4.090  12.331 -0.1110 -0.5142  0.1341
 8042TIP3    H148321   1.309   4.000  12.363 -0.5036 -0.6379 -0.2670
 8042TIP3    H248322   1.225   4.124  12.341 -0.1738 -0.4681 -0.5618
 8043TIP3   OH248323   3.109   2.439  11.713  0.1226 -0.1315  0.4839
 8043TIP3    H148324   3.063   2.361  11.683 -0.0253  0.0152  0.3189
 8043TIP3    H248325   3.102   2.500  11.639  0.7446 -0.1742  0.3865
 8044TIP3   OH248326   0.261   6.037  13.135  0.4313  0.4234 -0.1086
 8044TIP3    H148327   0.242   6.111  13.194  1.2097  0.7905 -0.3031
 8044TIP3    H248328   0.222   6.062  13.052 -1.9614 -0.7377  0.5746
 8045TIP3   OH248329   1.728   7.244  12.436  0.4398 -0.4703  0.4238
 8045TIP3    H148330   1.767   7.166  12.396 -0.7604 -0.3854 -1.0014
 8045TIP3    H248331   1.635   7.221  12.444  0.2476  0.4569  0.9150
 8046TIP3   OH248332   2.425   6.740  11.651 -0.1097  0.3644 -0.4880
 8046TIP3    H148333   2.333   6.716  11.645  0.2417 -0.8498 -2.0403
 8046TIP3    H248334   2.448   6.728  11.743 -1.5835  1.1201  0.0018
 8047TIP3   OH248335   1.636   0.899  11.728 -0.7492 -0.5072 -0.2732
 8047TIP3    H148336   1.638   0.914  11.823 -0.1261  0.7075 -0.4471
 8047TIP3    H248337   1.684   0.817  11.715 -2.1650 -1.5077  0.5722
 8048TIP3   OH248338   2.721   5.157  11.587  0.0905  0.0495  0.0341
 8048TIP3    H148339   2.628   5.171  11.572  0.2807  1.0217 -0.3170
 8048TIP3    H248340   2.749   5.235  11.635  0.9608  0.3134 -0.8786
 8049TIP3   OH248341   7.565   2.109  11.541  0.2310 -0.2244 -0.2527
 8049TIP3    H148342   7.655   2.087  11.518  0.6855 -2.2030  2.7325
 8049TIP3    H248343   7.567   2.201  11.566  1.7056 -0.5074  0.7660
 8050TIP3   OH248344   5.144   5.122  12.810  0.4565  0.0016  0.3573
 8050TIP3    H148345   5.069   5.122  12.750  2.2911  0.0980 -2.0566
 8050TIP3    H248346   5.182   5.209  12.800  0.0334  0.5384  2.8028
 8051TIP3   OH248347   2.827   4.614  12.485 -0.2366  0.8664 -0.3648
 8051TIP3    H148348   2.785   4.535  12.521  1.4743 -0.1578 -0.4812
 8051TIP3    H248349   2.841   4.670  12.561  1.8059 -0.5513  0.4101
 8052TIP3   OH248350   2.393   2.551  11.783 -0.1219 -0.0913 -0.0194
 8052TIP3    H148351   2.442   2.504  11.851 -0.5115 -0.8238 -0.2380
 8052TIP3    H248352   2.346   2.619  11.831  0.0429 -0.2506  0.3737
 8053TIP3   OH248353   0.544   1.449  11.462 -0.2235  0.1451 -0.0940
 8053TIP3    H148354   0.489   1.517  11.501  0.5021  0.0982  1.0562
 8053TIP3    H248355   0.598   1.496  11.398  0.1040  0.6247  0.5228
 8054TIP3   OH248356   1.219   7.337  12.342  0.3041 -0.3547  0.2098
 8054TIP3    H148357   1.234   7.273  12.272 -1.0390 -0.4822  0.0184
 8054TIP3    H248358   1.124   7.342  12.350  0.4192  0.6434  1.1351
 8055TIP3   OH248359   2.497   1.268  11.780  0.3373 -0.0631 -0.6637
 8055TIP3    H148360   2.540   1.185  11.797 -2.0475 -1.2894 -0.1272
 8055TIP3    H248361   2.536   1.329  11.843 -1.0410 -1.9881  2.3263
 8056TIP3   OH248362   5.111   6.123  12.008 -0.5526 -0.3301  0.5077
 8056TIP3    H148363   5.021   6.099  12.030  0.0240 -0.5186  2.9651
 8056TIP3    H248364   5.139   6.055  11.947 -2.4005  0.3948 -1.2601
 8057TIP3   OH248365   2.729   2.050  12.036 -0.6739 -0.2617  0.2614
 8057TIP3    H148366   2.644   2.005  12.034 -0.0882 -1.5569  1.9179
 8057TIP3    H248367   2.719   2.115  12.106 -1.2183  1.6786 -1.5228
 8058TIP3   OH248368   0.944   0.363  12.853  0.5325 -0.0810 -0.3251
 8058TIP3    H148369   0.862   0.357  12.902  1.2658 -0.3255  0.9118
 8058TIP3    H248370   0.918   0.351  12.761 -0.7556 -0.5716  0.0819
 8059TIP3   OH248371   1.746   6.996  12.660  0.9885 -0.6698  0.5042
 8059TIP3    H148372   1.782   7.084  12.676  1.1883 -0.6105 -0.2279
 8059TIP3    H248373   1.816   6.950  12.613  0.7667 -1.1244  0.6178
 8060TIP3   OH248374   7.691   4.377  11.911  0.4102  0.0320 -0.1475
 8060TIP3    H148375   7.644   4.308  11.865  2.6060 -0.7146 -1.4169
 8060TIP3    H248376   7.660   4.458  11.872 -0.7660 -0.3251  0.0015
 8061TIP3   OH248377   2.555   2.882  12.772 -0.0220  0.0762 -0.0269
 8061TIP3    H148378   2.484   2.879  12.836 -0.6105 -0.1798 -0.6737
 8061TIP3    H248379   2.614   2.811  12.797  0.1803  0.4842  0.6958
 8062TIP3   OH248380   2.114   6.657  12.511  0.0480  0.1722 -0.3933
 8062TIP3    H148381   2.088   6.566  12.498  1.0807 -0.0720 -0.8943
 8062TIP3    H248382   2.210   6.654  12.511  0.1106  1.0414  1.1425
 8063TIP3   OH248383   0.045   0.847  12.938 -0.0518 -0.0674  0.4204
 8063TIP3    H148384   0.061   0.842  12.844 -0.5262 -0.1352  0.3443
 8063TIP3    H248385   0.014   0.760  12.963 -1.1404  0.3098  0.4113
 8064TIP3   OH248386   7.483   4.424  11.675 -0.2569  0.0857 -0.5608
 8064TIP3    H148387   7.449   4.458  11.757 -0.3488  0.9965 -0.9550
 8064TIP3    H248388   7.490   4.502  11.619 -0.2749 -0.5289 -1.4335
 8065TIP3   OH248389   8.205   8.105  12.123  0.3573 -0.5638  0.0687
 8065TIP3    H148390   8.221   8.142  12.036  1.3547 -0.5181  0.2592
 8065TIP3    H248391   8.238   8.172  12.183 -0.1885 -0.6615  0.4847
 8066TIP3   OH248392   4.239   0.584  11.702 -0.2965 -0.0980  0.0801
 8066TIP3    H148393   4.318   0.538  11.672 -0.9299 -1.7293  0.7899
 8066TIP3    H248394   4.263   0.677  11.699  2.0692 -0.5866  1.4122
 8067TIP3   OH248395   7.409   6.082  12.617  0.5014  0.1934  0.3000
 8067TIP3    H148396   7.443   6.131  12.691 -0.0717  2.0600 -0.6237
 8067TIP3    H248397   7.452   6.120  12.540 -0.7015 -0.0532 -0.5308
 8068TIP3   OH248398   0.691   6.648  12.442 -0.1845 -0.6626 -0.2549
 8068TIP3    H148399   0.728   6.669  12.527  1.1229 -0.0767 -0.9451
 8068TIP3    H248400   0.644   6.727  12.416 -1.2408 -1.1052  0.2337
 8069TIP3   OH248401   5.111   8.153  13.280 -0.2957 -0.4066  0.3132
 8069TIP3    H148402   5.117   8.103  13.199 -0.1712 -0.6689  0.4841
 8069TIP3    H248403   5.025   8.196  13.275  0.4718  1.1031 -0.8197
 8070TIP3   OH248404   0.362   2.307  11.537 -0.4352  0.5638  0.5627
 8070TIP3    H148405   0.444   2.355  11.539 -1.0710  1.7803 -0.5958
 8070TIP3    H248406   0.325   2.317  11.624  2.1648 -2.9312  2.3056
 8071TIP3   OH248407   5.194   3.492  13.149 -0.5014  0.4330 -0.0596
 8071TIP3    H148408   5.179   3.432  13.076 -2.0123  2.1641 -1.2581
 8071TIP3    H248409   5.282   3.527  13.133 -0.5774  0.3416 -0.7235
 8072TIP3   OH248410   4.137   8.639  12.732  0.0043 -0.0248  0.5215
 8072TIP3    H148411   4.160   8.713  12.676 -1.3623 -0.3571 -0.5395
 8072TIP3    H248412   4.221   8.598  12.753  0.6806  1.1416  0.1650
 8073TIP3   OH248413   3.403   0.153  13.187 -0.4651 -0.0624  0.6045
 8073TIP3    H148414   3.393   0.242  13.219  2.5908  0.8612 -0.5942
 8073TIP3    H248415   3.330   0.105  13.225 -1.5337  2.6584  2.2760
 8074TIP3   OH248416   4.965   3.173  11.930 -0.0988  0.2773 -0.3511
 8074TIP3    H148417   5.051   3.137  11.912 -0.3270  0.6095 -2.2633
 8074TIP3    H248418   4.933   3.123  12.005  1.6223 -0.0378  0.2066
 8075TIP3   OH248419   8.950   6.821  12.541 -0.2092 -0.2803 -0.3345
 8075TIP3    H148420   8.879   6.792  12.597 -0.2424  1.0060  0.3305
 8075TIP3    H248421   9.028   6.777  12.575 -0.3605 -0.1236  0.2247
 8076TIP3   OH248422   2.151   7.490  12.515 -0.1910 -0.9554 -0.0613
 8076TIP3    H148423   2.078   7.543  12.546  1.4369  1.7423 -0.5346
 8076TIP3    H248424   2.123   7.460  12.428 -0.7832 -0.0646 -0.1907
 8077TIP3   OH248425   5.142   5.816  11.973  0.0078  0.2673  0.5211
 8077TIP3    H148426   5.147   5.735  11.922 -0.8718  0.5187  0.0005
 8077TIP3    H248427   5.051   5.818  12.005  0.6487 -0.0868  2.4680
 8078TIP3   OH248428   6.353   6.273  11.813  0.2665 -0.5366  0.0221
 8078TIP3    H148429   6.284   6.210  11.791 -0.5449  1.0829 -2.5320
 8078TIP3    H248430   6.424   6.253  11.752  0.1043  0.7894 -0.6324
 8079TIP3   OH248431   4.312   2.399  12.028 -0.2173  0.6741 -0.2809
 8079TIP3    H148432   4.320   2.394  12.124 -0.1977 -1.8369 -0.3455
 8079TIP3    H248433   4.240   2.340  12.007  0.8295 -0.0723 -1.9414
 8080TIP3   OH248434   5.690   4.058  11.581  0.3562 -0.0653 -0.0390
 8080TIP3    H148435   5.778   4.044  11.618  0.9622 -0.2328 -1.4811
 8080TIP3    H248436   5.675   4.151  11.592  0.8350  0.0157 -0.0268
 8081TIP3   OH248437   5.422   4.955  12.320 -0.2504 -0.6009  0.2674
 8081TIP3    H148438   5.503   4.917  12.354 -1.1594 -2.5565  0.3751
 8081TIP3    H248439   5.395   4.894  12.250 -1.1106  0.5588 -0.4426
 8082TIP3   OH248440   2.302   2.423  12.578  0.9486  0.6883 -0.1357
 8082TIP3    H148441   2.301   2.376  12.661  0.0991  2.1359  0.7140
 8082TIP3    H248442   2.376   2.483  12.585  3.9837 -2.4464 -2.4269
 8083TIP3   OH248443   6.200   2.377  13.256 -0.6961 -0.3296  0.4010
 8083TIP3    H148444   6.160   2.397  13.171 -1.3480  0.3552  0.8543
 8083TIP3    H248445   6.278   2.431  13.260  1.4441 -3.0266 -1.2858
 8084TIP3   OH248446   6.862   3.992  12.332  0.5284  0.1596 -0.4961
 8084TIP3    H148447   6.866   3.994  12.236  1.8458  1.6287 -0.4458
 8084TIP3    H248448   6.937   4.043  12.360 -1.2988  2.0265  1.3142
 8085TIP3   OH248449   7.801   1.593  12.048 -0.0917  0.5606  0.3124
 8085TIP3    H148450   7.733   1.638  12.099  0.6796  2.1208  0.0057
 8085TIP3    H248451   7.858   1.553  12.114 -1.3034 -0.8363  0.5760
 8086TIP3   OH248452   7.122   2.625  11.402 -0.2362 -0.0410  0.0223
 8086TIP3    H148453   7.187   2.586  11.344 -0.7529 -1.2967  0.2501
 8086TIP3    H248454   7.101   2.710  11.362  1.4582  0.3510 -0.0966
 8087TIP3   OH248455   2.056   5.306  12.433 -0.3705  0.4931 -0.6277
 8087TIP3    H148456   1.969   5.266  12.439  0.2828 -0.7881  0.7413
 8087TIP3    H248457   2.068   5.321  12.339 -2.7181  2.2355 -0.7607
 8088TIP3   OH248458   4.832   8.245  13.252  0.6864  0.0400  0.3766
 8088TIP3    H148459   4.831   8.299  13.173  0.0288  0.8658  0.9314
 8088TIP3    H248460   4.751   8.268  13.298  0.1582 -1.7376  0.4397
 8089TIP3   OH248461   2.378   7.987  12.018  0.3456  0.4571 -0.5493
 8089TIP3    H148462   2.317   8.000  12.090 -0.2585  1.1471 -1.1729
 8089TIP3    H248463   2.450   7.937  12.056 -0.4134 -0.0227  0.2940
 8090TIP3   OH248464   3.749   3.654  12.824 -0.2245  0.4014  0.2466
 8090TIP3    H148465   3.768   3.745  12.847 -0.3961  1.4717 -3.2981
 8090TIP3    H248466   3.654   3.650  12.819 -0.1800  0.4364 -0.8736
 8091TIP3   OH248467   2.374   5.216  12.165  0.3307 -0.3428 -0.0773
 8091TIP3    H148468   2.412   5.287  12.217  0.5984 -0.7653  0.3164
 8091TIP3    H248469   2.449   5.162  12.139  0.4282  0.8888 -2.5378
 8092TIP3   OH248470   0.947   5.528  12.622  0.6434 -0.3410 -0.1669
 8092TIP3    H148471   0.937   5.433  12.623  1.6746 -0.4940 -1.8753
 8092TIP3    H248472   0.873   5.559  12.570  0.5308 -0.2296  0.0574
 8093TIP3   OH248473   8.330   0.458  11.856  0.1209 -0.0050  0.4829
 8093TIP3    H148474   8.250   0.415  11.887 -0.2901  1.1996  1.1559
 8093TIP3    H248475   8.300   0.542  11.822  1.1139  0.4728  0.7702
 8094TIP3   OH248476   3.596   1.364  13.123  0.2050 -0.0399  0.7826
 8094TIP3    H148477   3.538   1.437  13.145 -0.3189  0.0074 -0.6554
 8094TIP3    H248478   3.609   1.372  13.029  0.9887 -1.2035  0.7789
 8095TIP3   OH248479   6.045   5.484  12.585 -0.4482 -0.4473  0.1911
 8095TIP3    H148480   6.019   5.448  12.670  1.6348  0.2480  1.1867
 8095TIP3    H248481   6.098   5.415  12.545 -0.6893 -0.4331 -0.1529
 8096TIP3   OH248482   2.961   2.611  11.888 -0.3926  0.6050  0.4216
 8096TIP3    H148483   2.980   2.525  11.851 -1.2252  1.1203 -1.2977
 8096TIP3    H248484   3.046   2.644  11.917  0.2360  0.0274 -0.7226
 8097TIP3   OH248485   3.403   3.823  12.352 -0.2633 -0.5705  0.5583
 8097TIP3    H148486   3.405   3.884  12.278  1.7995  0.2634  1.2366
 8097TIP3    H248487   3.432   3.740  12.315  2.3802  0.2274  0.6811
 8098TIP3   OH248488   0.526   6.427  11.718  0.1298  0.4446 -0.3689
 8098TIP3    H148489   0.576   6.353  11.753  0.2606 -0.8374 -2.9866
 8098TIP3    H248490   0.435   6.396  11.718 -0.1056  1.1233  0.4859
 8099TIP3   OH248491   8.407   7.020  12.817  0.9346  0.0248 -0.0014
 8099TIP3    H148492   8.413   7.002  12.910 -0.1576  1.4465  0.3705
 8099TIP3    H248493   8.485   7.073  12.798  0.2540  1.2250  0.4917
 8100TIP3   OH248494   4.837   5.760  12.378  0.0686 -0.3476 -0.4211
 8100TIP3    H148495   4.743   5.745  12.381  0.2718 -1.6871  1.0619
 8100TIP3    H248496   4.862   5.736  12.288 -0.7247 -2.1700 -0.2142
 8101TIP3   OH248497   2.219   1.032  11.882  0.0039 -0.3297  0.4410
 8101TIP3    H148498   2.141   1.084  11.859 -0.4853 -1.1565  0.2128
 8101TIP3    H248499   2.271   1.091  11.937 -1.1581 -0.0405  1.2600
 8102TIP3   OH248500   7.942   5.785  13.160 -0.1609 -0.0028  0.3436
 8102TIP3    H148501   7.951   5.697  13.196  0.5321  0.0047  0.2122
 8102TIP3    H248502   8.032   5.811  13.140 -0.2749  1.0651  1.1538
 8103TIP3   OH248503   5.674   5.102  13.402  0.0930 -0.1615 -0.3363
 8103TIP3    H148504   5.653   5.194  13.415 -0.9514 -0.5500  1.0680
 8103TIP3    H248505   5.765   5.093  13.432  0.1474  0.3748 -0.3386
 8104TIP3   OH248506   3.669   7.125  12.645 -0.0374  0.4244  0.3860
 8104TIP3    H148507   3.653   7.169  12.562  0.8035 -0.3769 -0.2177
 8104TIP3    H248508   3.674   7.032  12.622  2.9927  0.3725  0.8289
 8105TIP3   OH248509   6.202   8.816  12.307  0.0443 -0.2487  0.6083
 8105TIP3    H148510   6.122   8.841  12.353  0.6017 -0.6804  1.8394
 8105TIP3    H248511   6.271   8.822  12.373  0.9505 -0.3897 -0.3031
 8106TIP3   OH248512   3.789   2.618  11.559  0.1199 -0.7178 -0.2621
 8106TIP3    H148513   3.866   2.646  11.509  0.6125 -1.3010  0.1605
 8106TIP3    H248514   3.718   2.672  11.525  0.9537  0.7595  0.2563
 8107TIP3   OH248515   8.464   3.051  13.211 -0.2266 -0.1497 -0.1815
 8107TIP3    H148516   8.428   3.139  13.206 -1.6603 -0.7495 -0.9083
 8107TIP3    H248517   8.540   3.059  13.270 -0.1775  1.5947 -0.4452
 8108TIP3   OH248518   2.054   9.052  12.660  0.0219 -0.1457  0.2017
 8108TIP3    H148519   2.092   8.970  12.691 -1.4728 -0.7833  0.3901
 8108TIP3    H248520   1.976   9.065  12.713 -0.7926  0.4160 -1.0851
 8109TIP3   OH248521   7.261   7.950  11.943 -0.1788  0.0951 -0.0187
 8109TIP3    H148522   7.212   7.878  11.981 -0.4194  0.2682  0.0032
 8109TIP3    H248523   7.243   7.945  11.849  0.3530 -0.2852 -0.1061
 8110TIP3   OH248524   2.451   7.577  13.000  0.0109  1.0390 -0.0395
 8110TIP3    H148525   2.408   7.653  13.038 -2.7666 -0.5385  0.2237
 8110TIP3    H248526   2.399   7.557  12.922  1.1754 -0.1253 -0.5538
 8111TIP3   OH248527   1.281   4.942  12.318  0.1106  0.4158  0.7794
 8111TIP3    H148528   1.295   5.035  12.337 -0.7097  1.1935 -1.9172
 8111TIP3    H248529   1.363   4.913  12.279 -0.2917  0.5802 -0.2151
 8112TIP3   OH248530   0.113   1.129  12.987  0.5566  0.0216 -0.5155
 8112TIP3    H148531   0.201   1.103  13.015  0.3043  0.8518  1.1816
 8112TIP3    H248532   0.071   1.047  12.960  1.6372 -0.4740 -0.7396
 8113TIP3   OH248533   4.243   6.283  12.591  0.2068  0.0020 -0.5872
 8113TIP3    H148534   4.292   6.359  12.558  0.9271  0.1136  0.6273
 8113TIP3    H248535   4.302   6.209  12.576  0.2635 -0.0393 -0.1783
 8114TIP3   OH248536   4.551   1.732  12.236 -0.2860  0.1110 -0.2014
 8114TIP3    H148537   4.606   1.786  12.292 -1.4615  0.4969  0.6303
 8114TIP3    H248538   4.486   1.694  12.295 -0.5225 -0.8479 -1.0418
 8115TIP3   OH248539   8.536   3.023  13.635  0.1608  0.2410  0.2040
 8115TIP3    H148540   8.569   3.038  13.546 -0.8407 -0.5440 -0.3196
 8115TIP3    H248541   8.608   2.978  13.679  0.5737  0.3990 -0.2916
 8116TIP3   OH248542   3.124   2.432  12.392 -0.1763 -0.7448  0.2614
 8116TIP3    H148543   3.054   2.367  12.387 -0.4490 -0.4058 -0.4052
 8116TIP3    H248544   3.148   2.433  12.485 -1.9850  0.0888  0.7720
 8117TIP3   OH248545   1.929   4.238  11.884  0.0025  0.6528  0.0168
 8117TIP3    H148546   1.978   4.195  11.814 -0.8655 -1.1693  0.4673
 8117TIP3    H248547   1.972   4.211  11.965 -0.9809  0.0157  0.3469
 8118TIP3   OH248548   8.495   7.629  11.571 -0.2195  0.4410  0.3167
 8118TIP3    H148549   8.495   7.674  11.656  0.7943 -0.0085  0.5680
 8118TIP3    H248550   8.500   7.700  11.507  2.3411  0.7341  0.7352
 8119TIP3   OH248551   5.760   5.921  11.787 -0.2616 -0.6293  0.0943
 8119TIP3    H148552   5.739   5.864  11.861  0.1226 -1.1680 -0.2013
 8119TIP3    H248553   5.778   5.861  11.715  1.8696 -0.2191  0.2156
 8120TIP3   OH248554   6.259   5.701  11.725  0.8649  0.5780 -0.0378
 8120TIP3    H148555   6.260   5.762  11.651  0.6219 -0.2222 -0.7179
 8120TIP3    H248556   6.270   5.757  11.802  2.1586  1.3386 -0.7364
 8121TIP3   OH248557   8.376   1.550  12.800  0.1652  0.0504 -0.4687
 8121TIP3    H148558   8.320   1.544  12.877  0.5163  3.0298  0.1450
 8121TIP3    H248559   8.316   1.546  12.726 -0.7129  1.4753  0.1304
 8122TIP3   OH248560   3.110   0.453  16.862 -0.0542 -0.6761  0.6488
 8122TIP3    H148561   3.205   0.455  16.857 -0.0583 -1.0875  0.3744
 8122TIP3    H248562   3.088   0.360  16.862 -0.5999 -0.6066 -2.0882
 8123TIP3   OH248563   7.183   5.502  13.022 -0.4875 -0.4503 -0.4285
 8123TIP3    H148564   7.097   5.544  13.017  0.5691  2.2246  1.5447
 8123TIP3    H248565   7.167   5.421  13.071 -2.1716 -1.1559 -2.0212
 8124TIP3   OH248566   1.377   3.410  13.724  1.2759  0.1641  0.0370
 8124TIP3    H148567   1.326   3.329  13.714  0.3841  0.7292 -0.0587
 8124TIP3    H248568   1.325   3.477  13.680  1.5422  0.9868  0.9506
 8125TIP3   OH248569   3.696   8.203  11.960 -0.4617 -0.5384 -0.0459
 8125TIP3    H148570   3.723   8.186  11.870 -0.3609 -0.6703  0.0079
 8125TIP3    H248571   3.739   8.286  11.983  0.1900 -0.9270  0.1555
 8126TIP3   OH248572   2.090   8.730  12.625 -0.1279 -0.1828  0.2317
 8126TIP3    H148573   2.177   8.706  12.594  0.8973  2.6191  0.6344
 8126TIP3    H248574   2.046   8.647  12.642  1.8513 -1.7064 -1.5643
 8127TIP3   OH248575   7.878   3.551  12.397  0.8098  0.3752  0.2617
 8127TIP3    H148576   7.829   3.487  12.449 -2.1245  1.9683 -0.3412
 8127TIP3    H248577   7.812   3.612  12.365  2.7932  0.9227 -3.3108
 8128TIP3   OH248578   0.020   3.472  11.688  0.4064  0.4935  0.5118
 8128TIP3    H148579  -0.072   3.452  11.670  0.7729  0.0501 -0.9894
 8128TIP3    H248580   0.025   3.568  11.681  0.3116  0.4214 -0.7769
 8129TIP3   OH248581   4.150   8.327  12.066  0.1236  0.0715 -0.3046
 8129TIP3    H148582   4.225   8.322  12.125  0.1013  1.0785 -0.1791
 8129TIP3    H248583   4.084   8.375  12.115 -1.3766 -2.4557  0.3531
 8130TIP3   OH248584   8.397   2.919  11.698 -0.3696  0.2780 -0.3784
 8130TIP3    H148585   8.330   2.879  11.643 -0.6397  0.5866 -0.2770
 8130TIP3    H248586   8.475   2.865  11.684  0.2577  1.6374 -2.8478
 8131TIP3   OH248587   8.820   0.250  12.215 -0.5448 -0.5135 -0.4541
 8131TIP3    H148588   8.770   0.214  12.142 -0.7273 -1.8935  0.3220
 8131TIP3    H248589   8.911   0.236  12.191 -0.6085 -1.1595 -0.3329
 8132TIP3   OH248590   6.657   1.911  11.655 -0.0697  0.3587 -0.7238
 8132TIP3    H148591   6.579   1.861  11.678  1.2293 -0.9118  1.1670
 8132TIP3    H248592   6.644   1.997  11.695  0.7213 -0.7936  2.2580
 8133TIP3   OH248593   5.733   6.845  11.781  0.5222 -0.0235 -0.2608
 8133TIP3    H148594   5.798   6.854  11.712 -0.1379 -0.0193 -0.8974
 8133TIP3    H248595   5.759   6.766  11.828  0.5385 -0.4652 -0.9990
 8134TIP3   OH248596   7.555   8.367  16.649 -0.1297 -0.7389 -0.3484
 8134TIP3    H148597   7.588   8.394  16.563  1.4514 -0.4488  0.3269
 8134TIP3    H248598   7.633   8.356  16.703 -1.1425  1.9902  1.9146
 8135TIP3   OH248599   8.985   1.031  12.565 -0.8001  0.1134 -0.6656
 8135TIP3    H148600   9.025   0.944  12.577 -1.1684 -0.0836 -0.8546
 8135TIP3    H248601   8.953   1.055  12.651  0.7397  0.7892 -0.2331
 8136TIP3   OH248602   4.559   5.686  12.312 -0.2168 -0.6327  0.4863
 8136TIP3    H148603   4.570   5.644  12.226  1.4329  0.9352 -0.1363
 8136TIP3    H248604   4.554   5.613  12.373 -2.1309 -1.8158 -0.9753
 8137TIP3   OH248605   3.860   2.474  12.585  0.0127  0.1514 -0.3511
 8137TIP3    H148606   3.865   2.552  12.531 -1.1337  0.5093  0.0357
 8137TIP3    H248607   3.835   2.506  12.672 -1.3810 -0.7183 -0.4038
 8138TIP3   OH248608   1.049   3.062  12.398 -0.2083 -0.1513 -0.1562
 8138TIP3    H148609   1.021   3.085  12.309 -0.7777 -0.0960  0.0293
 8138TIP3    H248610   0.978   3.095  12.454  0.1064 -0.2612  0.3107
 8139TIP3   OH248611   5.306   6.170  12.521  0.8994 -0.2515 -0.0823
 8139TIP3    H148612   5.342   6.253  12.488 -1.0863  0.9401  0.5748
 8139TIP3    H248613   5.317   6.175  12.616 -1.0516  0.2473  0.1650
 8140TIP3   OH248614   8.579   8.590  11.819  0.4004  0.8730  0.1126
 8140TIP3    H148615   8.519   8.654  11.779 -0.6063 -0.1328 -0.0326
 8140TIP3    H248616   8.560   8.596  11.913  1.1806  1.6461  0.2319
 8141TIP3   OH248617   0.741   2.680  11.867 -0.2676  0.3704  0.0638
 8141TIP3    H148618   0.814   2.661  11.806 -0.6715 -2.4090  0.2976
 8141TIP3    H248619   0.784   2.694  11.951  0.0765 -0.9586  0.1414
 8142TIP3   OH248620   1.681   4.788  12.709 -0.1108  0.0237  0.3226
 8142TIP3    H148621   1.676   4.841  12.629 -0.5891  0.5594  0.6965
 8142TIP3    H248622   1.762   4.738  12.700  0.9447  1.6222  0.4149
 8143TIP3   OH248623   4.419   7.816  12.370  0.5271 -0.1303 -0.0358
 8143TIP3    H148624   4.485   7.831  12.302  0.9088  0.3138  0.4267
 8143TIP3    H248625   4.353   7.762  12.327 -0.8352  2.6566 -1.7016
 8144TIP3   OH248626   1.831   4.883  12.992  0.5734 -0.2818  0.3349
 8144TIP3    H148627   1.794   4.901  12.906 -1.1837  1.9846  1.4553
 8144TIP3    H248628   1.755   4.873  13.049  1.6844  0.2055  1.9652
 8145TIP3   OH248629   8.033   4.779  12.672 -0.1447  0.5483 -0.3283
 8145TIP3    H148630   7.940   4.773  12.696  0.0266 -1.2633 -0.0089
 8145TIP3    H248631   8.052   4.698  12.626  0.9677  1.5138 -1.6494
 8146TIP3   OH248632   1.186   8.981  12.201 -0.1066 -0.0903  0.2844
 8146TIP3    H148633   1.172   8.941  12.287 -0.6135 -0.6063 -0.0294
 8146TIP3    H248634   1.108   8.958  12.151 -0.2387  0.9944 -0.0259
 8147TIP3   OH248635   8.938   8.912  11.909  0.2042 -0.0607 -0.5443
 8147TIP3    H148636   8.862   8.914  11.967  0.0443 -1.8535 -0.6365
 8147TIP3    H248637   8.994   8.844  11.945  1.8877  1.3158 -0.3923
 8148TIP3   OH248638   6.752   0.360  11.610  0.4873 -0.3174  0.3146
 8148TIP3    H148639   6.771   0.448  11.575 -1.1167 -0.1562 -0.2053
 8148TIP3    H248640   6.692   0.322  11.546 -0.2637 -1.1147  1.4835
 8149TIP3   OH248641   0.804   8.915  12.479  0.6586  0.0584 -0.2180
 8149TIP3    H148642   0.773   8.842  12.427  1.0848  1.0999 -2.0124
 8149TIP3    H248643   0.899   8.907  12.478  0.7368  0.8974 -0.8667
 8150TIP3   OH248644   7.977   2.453  12.503 -0.2815 -0.6656 -0.3029
 8150TIP3    H148645   7.981   2.505  12.423  0.5161 -0.3470 -0.0648
 8150TIP3    H248646   8.069   2.439  12.528 -0.5200 -0.3541  0.8072
 8151TIP3   OH248647   3.470   4.320  12.961  0.0874 -1.2989  0.5759
 8151TIP3    H148648   3.383   4.290  12.987 -0.4643  0.3100  0.6738
 8151TIP3    H248649   3.454   4.400  12.911  1.4226 -1.7919 -0.7099
 8152TIP3   OH248650   7.879   3.318  12.067  0.2931  0.2477  0.1027
 8152TIP3    H148651   7.899   3.301  11.975  0.2605 -0.2113  0.1758
 8152TIP3    H248652   7.946   3.380  12.095  0.1979  0.5243 -0.2754
 8153TIP3   OH248653   0.471   7.137  12.552  0.1077 -0.0584  1.1293
 8153TIP3    H148654   0.455   7.188  12.632 -0.8458  0.4738  0.6267
 8153TIP3    H248655   0.384   7.108  12.525  0.3999 -0.0943  0.1968
 8154TIP3   OH248656   0.373   8.478  11.995 -0.0493 -0.0569  0.3505
 8154TIP3    H148657   0.392   8.427  11.916  1.6521 -0.2818  0.8559
 8154TIP3    H248658   0.321   8.552  11.964  2.1434  0.8816 -1.3665
 8155TIP3   OH248659   2.122   0.296  13.330 -0.2310  0.1383 -0.0020
 8155TIP3    H148660   2.183   0.348  13.383  0.0853 -1.1929  1.0063
 8155TIP3    H248661   2.079   0.238  13.394  0.2696 -1.6433 -1.2113
 8156TIP3   OH248662   6.164   2.729  11.811  0.3903 -0.1732  0.0709
 8156TIP3    H148663   6.108   2.758  11.740 -1.4927  0.0461  1.5604
 8156TIP3    H248664   6.197   2.810  11.850  0.7724 -0.2710 -0.0405
 8157TIP3   OH248665   9.118   4.795  11.774 -0.4220 -0.2628 -0.5884
 8157TIP3    H148666   9.185   4.852  11.811  0.2638 -2.2235  1.3945
 8157TIP3    H248667   9.167   4.737  11.715 -0.7207 -0.3860 -0.7155
 8158TIP3   OH248668   0.569   9.008  12.881 -0.0124  0.3953  0.0315
 8158TIP3    H148669   0.522   9.043  12.957  0.2425  0.7808  0.0138
 8158TIP3    H248670   0.627   9.079  12.854  0.3433  0.0382 -0.1506
 8159TIP3   OH248671   2.282   8.904  12.290  0.1175 -0.1646 -0.5234
 8159TIP3    H148672   2.297   8.951  12.372 -1.5732 -0.5411  0.0388
 8159TIP3    H248673   2.324   8.819  12.304 -0.2616 -0.2691 -0.0038
 8160TIP3   OH248674   4.584   1.971  13.222  0.0791  0.3856  0.1154
 8160TIP3    H148675   4.598   2.030  13.296 -1.2814  0.9843 -0.0826
 8160TIP3    H248676   4.648   1.998  13.157 -0.0413  1.1601  0.3121
 8161TIP3   OH248677   1.027   1.146  12.615 -0.3445  0.4303 -0.5263
 8161TIP3    H148678   0.994   1.059  12.636  2.4897 -0.6605 -0.1501
 8161TIP3    H248679   1.118   1.132  12.588  0.1957  3.2598 -0.5502
 8162TIP3   OH248680   6.340   7.122  12.459 -0.2721 -0.4630  0.4006
 8162TIP3    H148681   6.286   7.190  12.417 -0.2731 -0.3117  0.6435
 8162TIP3    H248682   6.362   7.062  12.388  0.9154  0.5366 -0.1193
 8163TIP3   OH248683   2.875   6.249  11.853 -0.4988  0.5272  0.0014
 8163TIP3    H148684   2.938   6.319  11.834  0.6595 -0.5603 -0.3485
 8163TIP3    H248685   2.922   6.191  11.914 -0.5066 -1.1502 -1.4886
 8164TIP3   OH248686   6.213   4.143  11.619 -0.0833 -0.2556  0.3734
 8164TIP3    H148687   6.296   4.166  11.662 -0.0098  0.0798  0.0544
 8164TIP3    H248688   6.234   4.064  11.569  0.1893  0.1436 -0.1480
 8165TIP3   OH248689   0.356   8.899  12.039 -0.5742  0.4664 -0.0329
 8165TIP3    H148690   0.388   8.823  12.088 -0.4936  0.5957  0.1168
 8165TIP3    H248691   0.290   8.938  12.097  0.2338  1.1986  0.4122
 8166TIP3   OH248692   9.078   0.042  11.724  0.0191  0.1590 -0.2998
 8166TIP3    H148693   8.999  -0.004  11.751  0.4464 -0.6132 -0.3434
 8166TIP3    H248694   9.106   0.089  11.802  0.7230 -1.3076  0.3666
 8167TIP3   OH248695   3.359   8.261  12.761 -0.0356  0.4698  0.7790
 8167TIP3    H148696   3.398   8.345  12.736  1.5214 -0.4496  0.0391
 8167TIP3    H248697   3.432   8.208  12.792 -1.0704 -0.4800  1.7154
 8168TIP3   OH248698   6.977   0.558  11.782  0.5620  0.4579 -0.4521
 8168TIP3    H148699   7.018   0.644  11.791 -2.3406  1.8909  0.4354
 8168TIP3    H248700   6.955   0.550  11.689  1.9946  0.0398 -0.7772
 8169TIP3   OH248701   1.431   5.399  12.941  0.3289 -0.8483  0.0276
 8169TIP3    H148702   1.396   5.377  13.027 -1.8958 -0.8824 -0.8295
 8169TIP3    H248703   1.512   5.448  12.960 -0.2109 -0.6733  2.1194
 8170TIP3   OH248704   7.408   7.146  12.397 -0.6463 -0.6679 -0.8520
 8170TIP3    H148705   7.498   7.163  12.367 -0.1762 -0.3879  0.6307
 8170TIP3    H248706   7.383   7.064  12.355  1.5673 -2.5747  1.2676
 8171TIP3   OH248707   8.509   3.194  11.734  0.6645 -0.2140 -0.3287
 8171TIP3    H148708   8.580   3.232  11.683  1.6487  0.3204  1.3660
 8171TIP3    H248709   8.497   3.106  11.697  0.6190  0.5088 -2.1160
 8172TIP3   OH248710   0.593   4.702  13.321  0.1343  0.2617 -0.1586
 8172TIP3    H148711   0.620   4.716  13.411  0.0673  1.4774 -0.3085
 8172TIP3    H248712   0.513   4.754  13.311  1.0375  1.5114 -1.3525
 8173TIP3   OH248713   7.400   1.877  13.062 -0.1600 -0.2515  0.6530
 8173TIP3    H148714   7.387   1.967  13.094  0.8143 -0.1869  0.8922
 8173TIP3    H248715   7.375   1.881  12.970  0.4159  0.4004  0.5186
 8174TIP3   OH248716   5.248   6.711  12.546 -0.2489  0.6978 -0.0805
 8174TIP3    H148717   5.176   6.745  12.598  0.2082  1.4070  0.0977
 8174TIP3    H248718   5.239   6.753  12.461 -0.7145 -0.0961 -0.4371
 8175TIP3   OH248719   2.674   9.148  12.594  0.0166 -0.0556 -0.2677
 8175TIP3    H148720   2.767   9.169  12.594  0.2345 -0.9029 -1.6174
 8175TIP3    H248721   2.661   9.097  12.674  0.8704 -0.5213 -0.4175
 8176TIP3   OH248722   3.207   2.323  13.220 -0.8267  0.3875 -0.4477
 8176TIP3    H148723   3.247   2.317  13.133 -2.2159  0.5018 -1.1214
 8176TIP3    H248724   3.221   2.414  13.246  0.1707  0.1898 -0.2438
 8177TIP3   OH248725   4.448   8.088  12.207 -0.3571  0.1861 -0.4336
 8177TIP3    H148726   4.372   8.045  12.168  0.2135 -2.9551  1.5895
 8177TIP3    H248727   4.421   8.109  12.296  0.3843  1.3889 -0.4660
 8178TIP3   OH248728   6.070   2.401  13.016 -0.2809  0.5060  0.1181
 8178TIP3    H148729   6.118   2.479  12.989  0.9810 -0.9550 -2.1307
 8178TIP3    H248730   6.018   2.377  12.940 -0.2702 -1.1330  0.5893
 8179TIP3   OH248731   3.245   0.540  12.295 -0.2846 -0.1616  0.1433
 8179TIP3    H148732   3.284   0.618  12.256  0.6838 -0.9649 -0.5365
 8179TIP3    H248733   3.267   0.546  12.388 -2.0585  1.4362  0.5283
 8180TIP3   OH248734   8.893   1.324  13.815  0.3994 -0.4009 -0.0492
 8180TIP3    H148735   8.871   1.270  13.739  2.0708 -1.3577  0.1097
 8180TIP3    H248736   8.925   1.406  13.777  0.4487 -0.5569 -0.3544
 8181TIP3   OH248737   3.488   4.196  12.497  0.4021 -0.3505 -0.1337
 8181TIP3    H148738   3.457   4.246  12.572  1.3534 -0.7004  0.5086
 8181TIP3    H248739   3.552   4.136  12.533  1.0041 -0.4055 -1.2576
 8182TIP3   OH248740   6.750   7.320  12.577 -1.0392  0.0488  0.5993
 8182TIP3    H148741   6.673   7.377  12.579 -1.3453 -0.3266 -0.0442
 8182TIP3    H248742   6.731   7.257  12.507 -0.1895 -0.1101  0.5041
 8183TIP3   OH248743   1.378   0.307  11.868  0.0532  0.0575  0.2717
 8183TIP3    H148744   1.363   0.298  11.773  0.0643  0.4601  0.2301
 8183TIP3    H248745   1.343   0.226  11.905 -1.4450  0.5832  0.0775
 8184TIP3   OH248746   8.619   1.635  13.845  0.8615 -0.1296 -0.2284
 8184TIP3    H148747   8.679   1.571  13.885  3.3511  1.3869 -1.2502
 8184TIP3    H248748   8.620   1.709  13.905 -2.0230 -0.9188  0.9583
 8185TIP3   OH248749   0.484   2.644  11.796 -0.0439  0.1803 -0.2294
 8185TIP3    H148750   0.518   2.573  11.743  0.5819 -0.3164  0.7976
 8185TIP3    H248751   0.560   2.676  11.845 -0.7277  0.0990  0.9368
 8186TIP3   OH248752   1.302   6.729  12.246 -0.3677  0.2699  0.4151
 8186TIP3    H148753   1.241   6.672  12.293 -0.4975  0.3909  0.3928
 8186TIP3    H248754   1.276   6.817  12.271 -0.4874  0.3384  0.0495
 8187TIP3   OH248755   0.473   8.072  11.993 -0.5686 -0.2429  0.4258
 8187TIP3    H148756   0.514   7.985  11.994  0.6015  0.2907  0.0815
 8187TIP3    H248757   0.454   8.090  12.085 -0.9399 -0.9058  0.4916
 8188TIP3   OH248758   8.250   7.854  13.032  0.2039  0.0520  0.2723
 8188TIP3    H148759   8.320   7.794  13.005 -0.0721  0.2803 -1.0176
 8188TIP3    H248760   8.277   7.886  13.118  1.4663 -0.1787 -0.0282
 8189TIP3   OH248761   8.742   3.091  12.213  0.0010 -0.8530  1.1405
 8189TIP3    H148762   8.744   2.997  12.230 -0.7109 -1.8565 -3.1096
 8189TIP3    H248763   8.693   3.099  12.131  1.5980  3.0395  0.3637
 8190TIP3   OH248764   3.255   4.788  13.470 -0.3343  0.3871  0.0319
 8190TIP3    H148765   3.245   4.693  13.473  0.3264  0.3256  0.6967
 8190TIP3    H248766   3.191   4.821  13.533  0.0855  0.3205  0.4958
 8191TIP3   OH248767   0.190   2.676  12.633  0.1703 -0.0211  0.3318
 8191TIP3    H148768   0.108   2.627  12.638  0.8874 -1.4641 -1.1766
 8191TIP3    H248769   0.163   2.767  12.621 -1.1980 -0.3169  0.9647
 8192TIP3   OH248770   2.497   0.034  13.272 -0.3073  0.4478  0.5368
 8192TIP3    H148771   2.501  -0.012  13.188 -1.7771 -0.4684  0.9270
 8192TIP3    H248772   2.405   0.059  13.281 -0.1206  0.7447  1.7641
 8193TIP3   OH248773   7.220   9.065  13.020  0.0692 -0.5318  0.0437
 8193TIP3    H148774   7.239   9.025  13.105  0.1938 -2.1861 -0.7175
 8193TIP3    H248775   7.136   9.026  12.994 -0.0531  0.0929 -0.5162
 8194TIP3   OH248776   5.446   1.005  13.078  0.3027 -0.1116  0.1947
 8194TIP3    H148777   5.357   0.987  13.048  0.5505 -0.2152 -0.4956
 8194TIP3    H248778   5.461   1.097  13.056 -0.1438  0.3188  1.6324
 8195TIP3   OH248779   8.665   7.838  12.498  0.1667 -0.0738  0.1678
 8195TIP3    H148780   8.595   7.894  12.463  0.4877  0.2646  0.0566
 8195TIP3    H248781   8.671   7.765  12.436  1.5402  1.1205 -1.2032
 8196TIP3   OH248782   4.782   0.728  12.217  0.4496 -0.4424 -0.0718
 8196TIP3    H148783   4.755   0.819  12.231 -0.7035 -0.6793 -0.5980
 8196TIP3    H248784   4.786   0.719  12.122  1.0603 -0.8120 -0.0175
 8197TIP3   OH248785   4.000   6.812  12.419  0.5198  0.3906  0.6059
 8197TIP3    H148786   3.998   6.887  12.359  1.5983  1.8706  2.3008
 8197TIP3    H248787   4.093   6.789  12.424  0.2953 -0.5008  0.7831
 8198TIP3   OH248788   1.753   0.096  12.585 -0.1469 -0.4273  0.6947
 8198TIP3    H148789   1.778   0.048  12.506 -0.1993 -0.0340  0.4394
 8198TIP3    H248790   1.676   0.147  12.559  0.3218  0.3214  0.7788
 8199TIP3   OH248791   8.261   8.762  13.026  0.7383 -0.6042  0.6168
 8199TIP3    H148792   8.196   8.828  13.047 -0.2432 -0.9701 -1.0908
 8199TIP3    H248793   8.338   8.786  13.077 -0.4702  0.2802  2.0852
 8200TIP3   OH248794   1.051   6.141  12.893  0.4527  0.4046  0.4382
 8200TIP3    H148795   1.012   6.222  12.859 -0.2032 -0.0794 -0.0100
 8200TIP3    H248796   1.084   6.165  12.979  0.2883  1.1559  0.3067
 8201TIP3   OH248797   4.483   2.527  11.869 -0.0213  0.5626  0.2749
 8201TIP3    H148798   4.426   2.474  11.926 -0.0522  0.0244 -0.2446
 8201TIP3    H248799   4.507   2.467  11.798  1.1730  0.7970  0.4727
 8202TIP3   OH248800   3.245   1.568  13.126  0.0399  0.0166  0.5790
 8202TIP3    H148801   3.178   1.500  13.125  0.6565 -0.6094 -0.4370
 8202TIP3    H248802   3.287   1.559  13.212  1.1943 -2.0295 -0.1146
 8203TIP3   OH248803   8.204   4.899  12.877 -0.0241  0.0761 -0.0916
 8203TIP3    H148804   8.136   4.967  12.884 -0.3705 -0.1619 -0.9902
 8203TIP3    H248805   8.164   4.831  12.822  1.3579  0.4449 -1.6145
 8204TIP3   OH248806   2.519   6.692  13.284 -0.0982  0.2601 -0.0001
 8204TIP3    H148807   2.443   6.716  13.337  0.5967  1.3214  0.5493
 8204TIP3    H248808   2.594   6.718  13.337  0.8077 -3.5607  0.8709
 8205TIP3   OH248809   1.775   4.491  13.314  0.0627  0.0007  0.3996
 8205TIP3    H148810   1.709   4.487  13.244 -0.9311  0.2893  1.3017
 8205TIP3    H248811   1.769   4.406  13.357 -0.5364  0.4390  1.2007
 8206TIP3   OH248812   4.714   1.521  12.135  1.1812  0.0677 -0.0355
 8206TIP3    H148813   4.646   1.571  12.180  1.9473  1.6000 -0.5220
 8206TIP3    H248814   4.666   1.460  12.079  0.1887  1.4720 -0.7706
 8207TIP3   OH248815   5.433   2.770  11.744 -0.4025 -0.0145 -0.3529
 8207TIP3    H148816   5.448   2.715  11.667  1.9261 -0.1599  0.1120
 8207TIP3    H248817   5.455   2.858  11.715 -2.0515  0.3642 -0.5200
 8208TIP3   OH248818   3.073   3.731  13.058  0.3153  0.1253 -0.2912
 8208TIP3    H148819   3.041   3.733  12.968 -2.2851 -3.0057  0.3766
 8208TIP3    H248820   3.138   3.660  13.058  0.0993 -0.0783  0.3364
 8209TIP3   OH248821   0.740   6.303  13.292 -0.1654 -0.0566 -0.1787
 8209TIP3    H148822   0.780   6.231  13.340  1.0882  1.8121  1.7552
 8209TIP3    H248823   0.804   6.324  13.224 -0.6488 -0.8922 -0.9091
 8210TIP3   OH248824   2.293   4.079  11.894  0.3442  0.0178 -0.1825
 8210TIP3    H148825   2.309   3.985  11.902 -0.3691 -0.1482 -0.6649
 8210TIP3    H248826   2.249   4.102  11.976  0.0492 -0.1668 -0.2902
 8211TIP3   OH248827   5.053   8.484  12.015 -0.3247 -0.2108  0.6906
 8211TIP3    H148828   5.015   8.572  12.013  0.5530  0.1788  0.1515
 8211TIP3    H248829   5.048   8.458  12.107 -0.0382  0.6710  0.9680
 8212TIP3   OH248830   1.828   6.903  11.570 -0.5159  0.4461 -0.0219
 8212TIP3    H148831   1.763   6.959  11.613  0.6361  1.3821  0.5404
 8212TIP3    H248832   1.912   6.945  11.587  0.1384 -0.0095 -1.8967
 8213TIP3   OH248833   1.416   7.164  12.754 -0.1577  0.4483  0.2479
 8213TIP3    H148834   1.424   7.214  12.672  1.9365  0.3195  0.3151
 8213TIP3    H248835   1.379   7.080  12.727 -0.6130  0.8368 -0.3707
 8214TIP3   OH248836   7.031   8.781  12.335  0.3232  0.7222  0.1550
 8214TIP3    H148837   7.088   8.759  12.262  1.4117  1.8301  0.6404
 8214TIP3    H248838   7.027   8.701  12.387  2.3099  0.9190  0.6705
 8215TIP3   OH248839   5.604   5.968  12.453 -0.5832 -0.0440  0.4190
 8215TIP3    H148840   5.665   5.895  12.440 -1.0002 -0.2586 -0.3973
 8215TIP3    H248841   5.562   5.979  12.368 -0.3032  1.3536  0.4332
 8216TIP3   OH248842   8.580   7.120  11.893 -0.0004 -0.3676  0.4023
 8216TIP3    H148843   8.573   7.047  11.831 -0.7704 -0.3742  0.4804
 8216TIP3    H248844   8.495   7.164  11.888 -1.3068 -2.1389  3.6213
 8217TIP3   OH248845   9.210   5.811  12.105 -0.3811 -0.0129 -0.5085
 8217TIP3    H148846   9.298   5.794  12.139 -0.4670 -0.0642 -0.3116
 8217TIP3    H248847   9.214   5.902  12.074 -0.2450 -0.0312 -0.5469
 8218TIP3   OH248848   6.262   6.000  12.502 -0.1783  0.2487 -0.5538
 8218TIP3    H148849   6.299   6.080  12.464 -1.3240  1.9425  1.6954
 8218TIP3    H248850   6.286   6.004  12.595 -0.3859 -1.9964 -0.3416
 8219TIP3   OH248851   8.762   1.661  12.680 -0.5708  0.2290 -0.1892
 8219TIP3    H148852   8.762   1.748  12.720 -4.3358  0.4796 -0.3324
 8219TIP3    H248853   8.687   1.662  12.621 -0.0857 -2.7921 -1.0103
 8220TIP3   OH248854   9.205   5.388  12.181  0.3066  0.3843 -0.1146
 8220TIP3    H148855   9.233   5.440  12.105 -1.1888  1.4372  0.0048
 8220TIP3    H248856   9.272   5.321  12.190  2.8786  2.8012  0.2813
 8221TIP3   OH248857   7.020   1.443  12.486 -0.5583  0.0708  0.3663
 8221TIP3    H148858   7.110   1.474  12.491 -0.5310  0.5981 -2.3087
 8221TIP3    H248859   6.968   1.522  12.471 -1.6704 -0.0878  2.7802
 8222TIP3   OH248860   8.547   5.789  13.021 -0.9208  0.2836 -0.2053
 8222TIP3    H148861   8.586   5.702  13.011 -0.5042  0.3965  0.3490
 8222TIP3    H248862   8.454   5.772  13.031 -0.6207 -0.3490  2.4282
 8223TIP3   OH248863   0.432   5.751  12.687  0.8765 -0.1435 -0.1332
 8223TIP3    H148864   0.503   5.814  12.702  1.3590 -0.8235  0.5138
 8223TIP3    H248865   0.401   5.730  12.775  0.6911 -0.7787 -0.3479
 8224TIP3   OH248866   2.236   4.350  12.174  0.2999 -0.2121  0.0215
 8224TIP3    H148867   2.177   4.283  12.139  1.4302 -2.6713  2.4304
 8224TIP3    H248868   2.193   4.379  12.254  1.8774 -1.4420  1.3715
 8225TIP3   OH248869   1.671   0.899  13.332  0.6762 -0.6535 -0.0601
 8225TIP3    H148870   1.647   0.813  13.367  3.2183 -1.4870 -0.1490
 8225TIP3    H248871   1.637   0.961  13.395  0.3251 -1.8328  0.9540
 8226TIP3   OH248872   5.428   6.326  13.260 -0.3466 -0.2868 -0.2790
 8226TIP3    H148873   5.499   6.267  13.233  1.2894  0.9606  1.0393
 8226TIP3    H248874   5.463   6.370  13.337 -2.4859  0.6154  0.2278
 8227TIP3   OH248875   1.052   5.826  12.342  0.1263  0.5840  0.0092
 8227TIP3    H148876   0.959   5.807  12.357  0.5312 -1.2822  0.5418
 8227TIP3    H248877   1.054   5.878  12.262 -1.3174 -0.2242 -0.5932
 8228TIP3   OH248878   1.515   4.829  12.209  0.1147 -0.2406  0.1866
 8228TIP3    H148879   1.556   4.748  12.238  1.8655  0.4941 -0.1378
 8228TIP3    H248880   1.511   4.821  12.113 -0.2711 -0.2019  0.1983
 8229TIP3   OH248881   5.125   8.146  12.422 -0.9520  0.1450  0.4014
 8229TIP3    H148882   5.119   8.094  12.502 -0.0556  0.5725  0.7563
 8229TIP3    H248883   5.047   8.121  12.371 -0.3674 -1.8283  0.3875
 8230TIP3   OH248884   8.312   3.418  12.326  0.2869  0.4151  0.3542
 8230TIP3    H148885   8.404   3.439  12.314  0.2026  0.9019  0.5006
 8230TIP3    H248886   8.302   3.408  12.421  0.5350 -1.3743  0.2169
 8231TIP3   OH248887   8.884   5.300  12.249 -0.2568 -0.1270 -0.2739
 8231TIP3    H148888   8.963   5.341  12.215 -1.6490  1.2715 -2.0531
 8231TIP3    H248889   8.897   5.206  12.234  1.5446 -0.0578  0.6397
 8232TIP3   OH248890   4.221   5.775  12.181 -0.1869  0.1822 -0.2238
 8232TIP3    H148891   4.137   5.736  12.205  0.4788 -1.5485 -0.5610
 8232TIP3    H248892   4.232   5.752  12.089  0.3282  1.0401 -0.3850
 8233TIP3   OH248893   5.380   7.484  13.489  0.1916 -0.7231 -0.1369
 8233TIP3    H148894   5.431   7.565  13.487 -0.7792 -0.0695  0.5524
 8233TIP3    H248895   5.289   7.513  13.492 -0.1418 -1.7796  1.8070
 8234TIP3   OH248896   7.910   7.618  12.424  0.1586 -0.0864  0.2085
 8234TIP3    H148897   7.847   7.547  12.436  1.2549 -1.0666  0.4241
 8234TIP3    H248898   7.916   7.660  12.510  0.9522 -1.0079  0.6207
 8235TIP3   OH248899   1.204   1.133  11.437  0.7310  0.3240 -0.0943
 8235TIP3    H148900   1.180   1.051  11.479 -0.9337 -0.4981 -2.4348
 8235TIP3    H248901   1.222   1.109  11.346 -0.6033  2.6447 -1.0484
 8236TIP3   OH248902   5.000   7.246  12.363  0.3332  0.5753 -0.0517
 8236TIP3    H148903   4.921   7.237  12.415  0.3995 -0.5502 -0.1218
 8236TIP3    H248904   4.982   7.197  12.282  1.2180 -0.0106  0.0878
 8237TIP3   OH248905   1.997   3.851  11.652 -0.4299  0.1990  0.0099
 8237TIP3    H148906   1.981   3.882  11.741  1.6837  0.2490  0.4432
 8237TIP3    H248907   1.964   3.921  11.595 -0.9706  0.5851  0.7948
 8238TIP3   OH248908   4.194   4.658  12.400  0.0070 -0.5478 -0.1289
 8238TIP3    H148909   4.244   4.736  12.423 -0.7374 -0.8248  2.8002
 8238TIP3    H248910   4.257   4.586  12.410 -0.3971 -0.7040  1.6828
 8239TIP3   OH248911   4.921   7.886  13.308  0.0752 -0.2720  0.4686
 8239TIP3    H148912   4.854   7.942  13.269  0.2163 -1.3457 -1.4411
 8239TIP3    H248913   5.004   7.923  13.277  0.2378 -0.6046  0.5029
 8240TIP3   OH248914   4.250   7.763  11.749 -0.1591  0.6488 -0.4727
 8240TIP3    H148915   4.294   7.701  11.690 -0.3961 -2.0261  1.9372
 8240TIP3    H248916   4.317   7.829  11.769  0.5134  0.5254 -2.1343
 8241TIP3   OH248917   4.543   4.634  11.971 -0.0842 -0.4031  0.9751
 8241TIP3    H148918   4.509   4.717  12.004  0.6221  0.3199 -0.0429
 8241TIP3    H248919   4.482   4.568  12.004 -0.4349  0.4688  2.1327
 8242TIP3   OH248920   7.160   8.528  11.980  0.2201  0.0523 -0.3528
 8242TIP3    H148921   7.152   8.569  11.894 -1.9845  0.7762  0.1073
 8242TIP3    H248922   7.231   8.464  11.971 -0.0334  0.0237 -2.7236
 8243TIP3   OH248923   4.707   5.146  13.043  0.0488 -0.3719 -0.4633
 8243TIP3    H148924   4.625   5.113  13.078  1.2063 -2.5290  0.4218
 8243TIP3    H248925   4.719   5.231  13.086 -0.8606 -0.8300  0.7589
 8244TIP3   OH248926   5.478   2.501  11.635  0.5504  0.4451 -0.3986
 8244TIP3    H148927   5.559   2.510  11.585  1.2398 -2.0751  0.1348
 8244TIP3    H248928   5.505   2.462  11.718 -1.1762 -0.1936 -0.0920
 8245TIP3   OH248929   4.220   5.275  11.656  0.2875 -0.5613 -0.0986
 8245TIP3    H148930   4.220   5.179  11.654  1.0290 -0.5419 -1.6401
 8245TIP3    H248931   4.305   5.300  11.622  0.2777  0.6697  0.7191
 8246TIP3   OH248932   1.826   6.588  12.280  0.2777  0.0579  0.2090
 8246TIP3    H148933   1.859   6.677  12.273 -0.8526  0.3949 -1.7293
 8246TIP3    H248934   1.791   6.581  12.369  0.0038  1.7014  0.2503
 8247TIP3   OH248935   4.978   0.042  13.115 -0.3209 -0.0232  0.4605
 8247TIP3    H148936   4.994  -0.035  13.061 -0.4209  0.6759 -0.6010
 8247TIP3    H248937   5.056   0.049  13.170 -0.7334 -1.4245  1.2655
 8248TIP3   OH248938   3.866   4.492  13.046 -0.0013  0.3718  0.0092
 8248TIP3    H148939   3.858   4.406  13.004 -0.1293 -0.2060  1.1740
 8248TIP3    H248940   3.941   4.532  13.004 -1.0508  0.4836 -1.8775
 8249TIP3   OH248941   5.801   8.897  12.969  1.1762  0.4240 -0.0175
 8249TIP3    H148942   5.742   8.971  12.951 -1.4433 -1.8268 -1.4637
 8249TIP3    H248943   5.755   8.846  13.036  1.8776 -0.9650 -0.5585
 8250TIP3   OH248944   5.272   6.700  12.966  0.3237 -0.6258 -0.6286
 8250TIP3    H148945   5.216   6.751  12.908 -1.4071 -1.1730  0.5007
 8250TIP3    H248946   5.249   6.609  12.947 -2.4848 -0.8422  2.8086
 8251TIP3   OH248947   3.178   3.962  13.197  0.6360 -0.1836  0.0775
 8251TIP3    H148948   3.143   3.970  13.286 -1.2541  2.0967 -0.7733
 8251TIP3    H248949   3.137   3.882  13.163 -1.4002  0.7604  0.1651
 8252TIP3   OH248950   4.317   4.912  12.429 -0.1481 -0.3962  0.3927
 8252TIP3    H148951   4.292   5.002  12.407  0.8251 -0.1053  0.4237
 8252TIP3    H248952   4.406   4.903  12.394  1.2932 -0.0861  3.6088
 8253TIP3   OH248953   2.227   6.119  12.683  0.4872  0.2917 -0.2092
 8253TIP3    H148954   2.167   6.181  12.723  1.0803 -0.6423  2.3798
 8253TIP3    H248955   2.311   6.137  12.725  1.5257  0.0704 -2.0709
 8254TIP3   OH248956   7.383   6.196  12.242 -0.4041 -0.0659  0.7707
 8254TIP3    H148957   7.462   6.160  12.282 -0.0765  0.3625  0.5299
 8254TIP3    H248958   7.331   6.120  12.219 -0.0195 -0.3609  0.8569
 8255TIP3   OH248959   5.781   4.910  11.721  0.6861 -0.8727 -0.4702
 8255TIP3    H148960   5.743   4.863  11.795 -0.1792 -0.4878 -0.6703
 8255TIP3    H248961   5.796   4.842  11.655 -0.3260 -0.9242 -0.6623
 8256TIP3   OH248962   2.726   2.718  11.976 -0.2719 -0.3334  0.5317
 8256TIP3    H148963   2.803   2.675  11.936 -0.0948  0.4070  0.0516
 8256TIP3    H248964   2.763   2.779  12.039 -0.2397  2.1082 -1.6629
 8257TIP3   OH248965   7.382   5.495  12.832 -0.0933 -0.1033  0.1717
 8257TIP3    H148966   7.312   5.487  12.897 -0.7581 -1.0349 -0.6102
 8257TIP3    H248967   7.361   5.427  12.767  1.1885  0.0383 -0.4124
 8258TIP3   OH248968   1.221   8.826  12.698 -0.5379 -0.2393  0.1977
 8258TIP3    H148969   1.297   8.772  12.721 -0.7818 -1.2861 -1.2335
 8258TIP3    H248970   1.145   8.774  12.727 -0.7402  0.2196  0.5002
 8259TIP3   OH248971   1.111   6.631  11.662 -0.2162  0.2491  0.2391
 8259TIP3    H148972   1.140   6.722  11.659 -1.9414  0.8456  0.4283
 8259TIP3    H248973   1.178   6.582  11.614  0.1802  1.7727 -0.8106
 8260TIP3   OH248974   3.866   1.603  12.666 -0.3166  0.3085 -0.1716
 8260TIP3    H148975   3.845   1.602  12.573 -1.8207 -1.9127  0.1142
 8260TIP3    H248976   3.786   1.572  12.709  1.4395 -2.3045  1.5307
 8261TIP3   OH248977   1.949   7.541  12.825 -0.1116 -0.6025 -0.3167
 8261TIP3    H148978   1.901   7.547  12.907  1.4138  1.1085  0.5186
 8261TIP3    H248979   1.991   7.455  12.827 -0.9137 -0.9969  0.1778
 8262TIP3   OH248980   8.596   6.979  13.425  0.8954 -0.5414 -0.0333
 8262TIP3    H148981   8.636   6.920  13.361  0.2134 -2.3808  1.1672
 8262TIP3    H248982   8.511   6.940  13.444  1.2904 -0.3578  2.3899
 8263TIP3   OH248983   1.903   6.763  11.815 -0.0799  0.7564  0.1136
 8263TIP3    H148984   1.934   6.852  11.804  0.1793  0.4750 -1.5843
 8263TIP3    H248985   1.851   6.745  11.737  0.9523 -1.0201 -0.2182
 8264TIP3   OH248986   0.483   3.871  12.327  0.6924 -0.5406 -0.3565
 8264TIP3    H148987   0.492   3.906  12.238 -0.9134 -0.7652 -0.6343
 8264TIP3    H248988   0.542   3.926  12.379 -0.0527  1.1158 -1.1684
 8265TIP3   OH248989   2.591   0.656  13.490 -0.7563 -0.5189 -0.3368
 8265TIP3    H148990   2.541   0.612  13.559 -1.5873  0.3490 -0.3639
 8265TIP3    H248991   2.665   0.697  13.536 -2.9986  2.8251  0.7052
 8266TIP3   OH248992   7.487   8.158  12.222  0.3391  0.4158  0.5819
 8266TIP3    H148993   7.556   8.152  12.287  0.1923  0.4616  0.7416
 8266TIP3    H248994   7.453   8.068  12.215  1.1840  0.1498 -0.3355
 8267TIP3   OH248995   5.438   8.087  12.846  0.2432  0.1421  0.2009
 8267TIP3    H148996   5.381   8.029  12.796  0.2508 -0.5848  1.0192
 8267TIP3    H248997   5.515   8.034  12.867  0.0452  0.2731  1.3577
 8268TIP3   OH248998   1.698   1.319  12.643 -0.1550  0.2066 -0.0051
 8268TIP3    H148999   1.773   1.303  12.585  1.8896 -1.4087  2.8181
 8268TIP3    H249000   1.720   1.401  12.688 -1.5194  1.2127 -1.0651
 8269TIP3   OH249001   2.050   6.466  11.513 -0.1221  0.2911 -0.3451
 8269TIP3    H149002   2.126   6.407  11.517  0.3874  0.9375 -0.3329
 8269TIP3    H249003   2.070   6.535  11.577 -0.2841  0.9742 -1.0238
 8270TIP3   OH249004   2.784   5.444  13.272  0.3209 -0.0789 -0.1323
 8270TIP3    H149005   2.804   5.350  13.266 -0.6068 -0.3247  0.3019
 8270TIP3    H249006   2.712   5.456  13.210 -0.1056  0.1722  0.4052
 8271TIP3   OH249007   2.043   7.016  11.759  0.3483 -0.1460 -0.1176
 8271TIP3    H149008   2.138   7.005  11.766  0.0701 -2.3316  1.5792
 8271TIP3    H249009   2.017   7.050  11.844 -0.4528 -0.0582 -0.3957
 8272TIP3   OH249010   0.539   3.779  11.698 -0.1039  0.3068  0.3302
 8272TIP3    H149011   0.444   3.780  11.691 -0.0703  0.8532 -0.1261
 8272TIP3    H249012   0.569   3.843  11.634  0.5480  0.5799  0.8884
 8273TIP3   OH249013   7.339   6.896  12.603  0.0666  0.2238  0.0644
 8273TIP3    H149014   7.310   6.884  12.694 -2.2888 -0.3526 -0.7053
 8273TIP3    H249015   7.348   6.807  12.569  0.2653  0.4508 -0.4858
 8274TIP3   OH249016   6.566   0.468  12.347 -0.0990 -0.1569 -0.7025
 8274TIP3    H149017   6.537   0.444  12.435 -0.2214  0.2962 -0.6158
 8274TIP3    H249018   6.579   0.385  12.303  1.5588 -0.4392  0.2557
 8275TIP3   OH249019   1.771   7.558  13.062  0.3157 -0.0576 -0.6166
 8275TIP3    H149020   1.714   7.518  13.128  1.6334 -0.2825  0.4422
 8275TIP3    H249021   1.844   7.595  13.113  1.2163  0.0319 -1.9199
 8276TIP3   OH249022   0.003   0.168  11.917 -0.2484 -0.2602 -0.3107
 8276TIP3    H149023  -0.041   0.249  11.892 -0.4802 -0.1887  0.2901
 8276TIP3    H249024   0.074   0.158  11.854  0.7337  1.2176  0.4990
 8277TIP3   OH249025   0.656   8.874  11.757  0.4282  0.7321 -0.3922
 8277TIP3    H149026   0.615   8.885  11.672  0.6454 -0.2617 -0.6356
 8277TIP3    H249027   0.627   8.788  11.787 -0.1067  1.3080  0.7963
 8278TIP3   OH249028   8.405   0.646  12.224 -0.3564  0.4240  0.2232
 8278TIP3    H149029   8.316   0.614  12.210 -1.2132  2.5847  0.3713
 8278TIP3    H249030   8.433   0.607  12.306 -2.0280  1.4070  1.3008
 8279TIP3   OH249031   2.240   8.077  13.303  0.4574  0.7150  0.6463
 8279TIP3    H149032   2.196   8.004  13.260  0.4700  1.4645 -0.7213
 8279TIP3    H249033   2.287   8.038  13.376 -0.2423 -0.5036  0.4696
 8280TIP3   OH249034   2.453   2.289  12.765  0.5651  0.0332 -0.4397
 8280TIP3    H149035   2.526   2.345  12.740  1.2837 -0.1059  1.2199
 8280TIP3    H249036   2.489   2.200  12.766  0.7026  0.0592  1.3419
 8281TIP3   OH249037   6.539   7.767  11.926  0.1742  0.3313 -0.2081
 8281TIP3    H149038   6.631   7.776  11.903  1.0812  0.0161  2.8325
 8281TIP3    H249039   6.532   7.677  11.960 -1.3528  0.2391 -0.6948
 8282TIP3   OH249040   1.792   6.552  12.571  0.1316 -0.6885  0.5924
 8282TIP3    H149041   1.854   6.615  12.608  0.6253  0.1409 -1.4810
 8282TIP3    H249042   1.740   6.522  12.646  0.8327  1.1076  1.8704
 8283TIP3   OH249043   0.299   4.543  13.733 -0.2634  0.2960 -0.3523
 8283TIP3    H149044   0.222   4.516  13.783  0.5149 -1.0626  0.1655
 8283TIP3    H249045   0.263   4.583  13.653 -1.5062  1.3184  0.6841
 8284TIP3   OH249046   0.617   1.179  12.689 -0.3681  1.1103  0.2299
 8284TIP3    H149047   0.546   1.167  12.753  0.6808  0.7694  1.3784
 8284TIP3    H249048   0.679   1.109  12.710  0.0465  1.0513 -1.1316
 8285TIP3   OH249049   3.942   7.210  12.499  0.1010  0.0808  0.3025
 8285TIP3    H149050   3.909   7.292  12.536 -0.5318  0.0713 -0.2338
 8285TIP3    H249051   3.969   7.160  12.576 -0.9201  0.1844  0.7522
 8286TIP3   OH249052   3.783   1.478  11.336 -0.1662  0.0211 -0.2847
 8286TIP3    H149053   3.831   1.430  11.268 -0.7728  0.9300 -1.3849
 8286TIP3    H249054   3.852   1.519  11.389  0.3193 -0.7740 -0.2775
 8287TIP3   OH249055   7.096   7.796  13.174 -0.3771  0.0917 -0.0706
 8287TIP3    H149056   7.007   7.820  13.200 -0.4424 -0.1500 -0.0642
 8287TIP3    H249057   7.147   7.877  13.183 -1.2939  1.1763 -3.4025
 8288TIP3   OH249058   1.676   1.617  12.371  0.4261 -0.0933 -0.0322
 8288TIP3    H149059   1.642   1.613  12.282 -0.4601 -1.5295  0.3265
 8288TIP3    H249060   1.685   1.710  12.390 -1.4504  0.3004 -0.8650
 8289TIP3   OH249061   2.511   3.459  12.399 -0.3524  0.4796 -0.1848
 8289TIP3    H149062   2.483   3.526  12.336 -2.1814  0.0523  0.1054
 8289TIP3    H249063   2.481   3.376  12.360  0.8079 -0.0514  0.0343
 8290TIP3   OH249064   1.929   5.196  12.975 -0.7691 -0.0019  0.3838
 8290TIP3    H149065   1.887   5.165  12.895 -2.9409 -0.2106  1.5201
 8290TIP3    H249066   1.914   5.125  13.039  1.8127 -0.3019  0.7596
 8291TIP3   OH249067   2.217   2.951  12.765  0.1545  0.4571  0.0744
 8291TIP3    H149068   2.133   2.972  12.804 -0.0114  0.8545 -0.4857
 8291TIP3    H249069   2.272   2.925  12.839 -0.3857  0.4343  0.4712
 8292TIP3   OH249070   8.129   8.714  11.622  0.3009 -0.1335  0.2023
 8292TIP3    H149071   8.086   8.647  11.570 -0.4354 -0.9958  1.8428
 8292TIP3    H249072   8.072   8.791  11.617  0.5629  0.0091 -0.7454
 8293TIP3   OH249073   1.253   3.941  13.327 -0.0251  0.8470 -0.1081
 8293TIP3    H149074   1.292   3.859  13.298  0.6930  0.3477  2.0583
 8293TIP3    H249075   1.188   3.915  13.392  2.0054  2.0035  2.5676
 8294TIP3   OH249076   9.110   3.922  12.291  0.1092 -0.3992 -0.2659
 8294TIP3    H149077   9.118   3.874  12.209  0.9053 -2.7084  1.0593
 8294TIP3    H249078   9.061   3.862  12.349 -0.7338  1.2904  0.8552
 8295TIP3   OH249079   7.496   3.159  12.280 -0.4028  0.2234 -0.4057
 8295TIP3    H149080   7.504   3.129  12.189 -3.7287 -2.2060 -0.0615
 8295TIP3    H249081   7.436   3.233  12.275 -0.8368 -0.1084 -0.1923
 8296TIP3   OH249082   6.921   9.033  12.115 -0.2226  0.0683 -0.5659
 8296TIP3    H149083   6.872   9.115  12.123  0.1922  0.1945  0.9480
 8296TIP3    H249084   7.001   9.058  12.069  0.4748  0.7994  0.9824
 8297TIP3   OH249085   3.360   8.155  13.482  0.3279 -0.0549 -0.3734
 8297TIP3    H149086   3.402   8.152  13.396  1.7422 -2.6097  0.3028
 8297TIP3    H249087   3.271   8.123  13.466 -0.4310  2.3501 -1.3066
 8298TIP3   OH249088   7.937   6.803  12.278  0.2518 -0.1736 -0.3724
 8298TIP3    H149089   7.980   6.826  12.360  0.5909  0.3683 -0.6931
 8298TIP3    H249090   8.005   6.818  12.211 -0.1392 -0.2358 -0.7858
 8299TIP3   OH249091   5.234   5.857  12.904 -0.2159  0.4865 -0.1491
 8299TIP3    H149092   5.252   5.847  12.997 -1.1464 -2.3964 -0.1928
 8299TIP3    H249093   5.157   5.914  12.900  0.1115  1.0030  0.8027
 8300TIP3   OH249094   2.519   0.450  12.048 -0.5448  0.6726  0.0382
 8300TIP3    H149095   2.479   0.534  12.070 -1.4797  0.3905 -0.4945
 8300TIP3    H249096   2.562   0.465  11.964 -0.2664  0.7540  0.1953
 8301TIP3   OH249097   0.905   5.161  13.806 -1.1901  0.0494  0.0442
 8301TIP3    H149098   0.868   5.217  13.874 -0.8456  2.2137 -1.4358
 8301TIP3    H249099   0.967   5.104  13.852  0.0887  2.3804  1.4189
 8302TIP3   OH249100   4.153   7.567  12.389 -0.1511  0.4920  0.1707
 8302TIP3    H149101   4.170   7.561  12.295  0.2951  3.1527  0.0185
 8302TIP3    H249102   4.200   7.493  12.427  1.9371  0.9160 -1.4438
 8303TIP3   OH249103   0.141   2.253  13.155  0.5312  0.3622 -0.3810
 8303TIP3    H149104   0.104   2.307  13.225  0.2292  0.7670 -0.8479
 8303TIP3    H249105   0.067   2.205  13.119  0.0128  2.5763 -2.5834
 8304TIP3   OH249106   4.553   7.206  12.440  0.3360  0.0305  0.5717
 8304TIP3    H149107   4.631   7.221  12.493  0.5662  1.3014 -0.0965
 8304TIP3    H249108   4.576   7.132  12.384  0.8669  0.0713  0.7345
 8305TIP3   OH249109   3.616   6.979  12.147 -0.1718  0.2915  0.0366
 8305TIP3    H149110   3.538   6.997  12.094 -0.5049  0.4199  0.5692
 8305TIP3    H249111   3.622   6.883  12.148 -0.8855  0.2488  0.8016
 8306TIP3   OH249112   5.069   3.188  12.716 -0.2450  0.2490  0.3439
 8306TIP3    H149113   5.085   3.134  12.794 -2.2520 -1.8615 -0.6014
 8306TIP3    H249114   5.154   3.192  12.672  0.1430 -1.4685  0.8768
 8307TIP3   OH249115   1.086   8.428  12.295  0.1739  0.6492 -0.3798
 8307TIP3    H149116   1.012   8.388  12.251  1.2587  0.7990 -2.4336
 8307TIP3    H249117   1.154   8.361  12.295  0.2809  0.7134  0.9715
 8308TIP3   OH249118   8.002   0.087  11.893 -0.8872 -0.4411  0.0175
 8308TIP3    H149119   8.010   0.042  11.977  2.1743 -0.0690  0.0412
 8308TIP3    H249120   7.974   0.018  11.832  0.3824 -1.5905  0.6855
 8309TIP3   OH249121   3.227   4.489  12.058 -0.3035  0.0420  0.0850
 8309TIP3    H149122   3.262   4.490  12.147  0.5288 -1.6521 -0.1950
 8309TIP3    H249123   3.291   4.439  12.008 -0.4637  1.4548 -1.6129
 8310TIP3   OH249124   6.653   4.388  12.229 -0.3226  0.7016 -0.2583
 8310TIP3    H149125   6.571   4.388  12.178 -0.6781 -0.3704  0.2947
 8310TIP3    H249126   6.647   4.311  12.285  0.5025  1.3301  0.7276
 8311TIP3   OH249127   8.403   2.548  12.840 -0.2876 -0.2861 -0.9171
 8311TIP3    H149128   8.398   2.507  12.927  1.6091  0.2165 -0.5133
 8311TIP3    H249129   8.328   2.608  12.837 -0.3783 -0.3038  0.3885
 8312TIP3   OH249130   1.711   3.672  12.289  0.4807 -0.6256 -0.6719
 8312TIP3    H149131   1.774   3.702  12.354 -0.7611 -0.6222  0.5966
 8312TIP3    H249132   1.723   3.577  12.286  1.3207 -0.5123 -1.3176
 8313TIP3   OH249133   2.670   0.451  13.218  0.1023  0.1104 -0.3233
 8313TIP3    H149134   2.664   0.431  13.312 -0.5403 -0.2547 -0.4370
 8313TIP3    H249135   2.613   0.527  13.206 -0.0749 -0.0449 -0.4728
 8314TIP3   OH249136   6.693   6.346  12.930  0.5789 -0.2194 -0.8265
 8314TIP3    H149137   6.723   6.266  12.887  2.7692  0.9897 -1.7334
 8314TIP3    H249138   6.694   6.412  12.860 -0.5395  0.7464  0.0379
 8315TIP3   OH249139   7.068   7.192  11.906  0.1398  0.5692 -1.0102
 8315TIP3    H149140   7.145   7.136  11.894  0.5165  0.7834  0.2518
 8315TIP3    H249141   6.994   7.131  11.908  0.4887  0.1446 -0.2597
 8316TIP3   OH249142   7.051   0.817  11.648  0.4697 -0.7297 -0.3750
 8316TIP3    H149143   6.979   0.875  11.622 -2.2605 -3.0074  1.4122
 8316TIP3    H249144   7.090   0.860  11.724 -0.2869 -0.3765 -0.1761
 8317TIP3   OH249145   3.444   7.127  13.220  0.3589  0.9963  0.3855
 8317TIP3    H149146   3.423   7.160  13.133  0.2956  0.7002  0.2867
 8317TIP3    H249147   3.420   7.198  13.279 -0.7314  0.7578  0.2520
 8318TIP3   OH249148   6.901   6.343  12.608  0.3088  0.6050  0.0400
 8318TIP3    H149149   6.918   6.249  12.608  1.4629  0.7923  1.2006
 8318TIP3    H249150   6.966   6.380  12.667 -1.5903  1.8925  1.4693
 8319TIP3   OH249151   2.414   7.499  12.727 -0.8655 -0.2832 -0.5352
 8319TIP3    H149152   2.485   7.444  12.693  1.1699  1.4737  0.6311
 8319TIP3    H249153   2.386   7.550  12.651  1.8176  1.7152 -0.3379
 8320TIP3   OH249154   4.224   5.425  12.724  0.1180  0.1830  0.0465
 8320TIP3    H149155   4.255   5.426  12.634  2.7791 -2.1034  0.7804
 8320TIP3    H249156   4.156   5.358  12.726  0.2992 -0.0113 -0.2248
 8321TIP3   OH249157   6.081   4.349  11.789  0.1490 -0.5066  0.4594
 8321TIP3    H149158   6.004   4.300  11.820 -0.2403  0.0967  0.4699
 8321TIP3    H249159   6.098   4.315  11.702 -0.9168  0.2331 -0.0545
 8322TIP3   OH249160   6.439   8.764  12.513  0.0825  0.0230 -0.0992
 8322TIP3    H149161   6.531   8.740  12.521 -0.4233 -1.7020  1.6183
 8322TIP3    H249162   6.413   8.788  12.602 -1.2716 -0.1762 -0.4150
 8323TIP3   OH249163   6.356   8.494  12.850 -0.3577  0.2176  0.0455
 8323TIP3    H149164   6.348   8.528  12.938  0.8930  0.5156  0.0631
 8323TIP3    H249165   6.328   8.566  12.793  0.7986  0.7469  0.1355
 8324TIP3   OH249166   1.208   0.218  12.940 -0.5174 -0.4689 -0.2122
 8324TIP3    H149167   1.113   0.223  12.933 -0.4761 -0.1709 -0.5946
 8324TIP3    H249168   1.231   0.279  13.011 -0.5714 -0.1434 -0.4697
 8325TIP3   OH249169   7.533   4.694  12.367 -0.2740  0.1319  0.3694
 8325TIP3    H149170   7.518   4.713  12.460  0.6281  2.2313  0.1303
 8325TIP3    H249171   7.628   4.703  12.355 -0.1945 -1.3941 -0.5351
 8326TIP3   OH249172   0.202   5.434  12.458 -0.0976  0.1732 -0.0723
 8326TIP3    H149173   0.216   5.384  12.377  1.1444 -0.3052  0.4185
 8326TIP3    H249174   0.146   5.507  12.431 -0.8574 -0.7377 -1.0750
 8327TIP3   OH249175   1.559   8.942  12.742  0.2447  0.1996 -0.0636
 8327TIP3    H149176   1.536   8.915  12.653  0.6812 -1.2547  0.2419
 8327TIP3    H249177   1.485   8.913  12.795  0.3862  0.2714  0.1734
 8328TIP3   OH249178   2.926   0.526  13.615 -0.1915  0.3616  0.4028
 8328TIP3    H149179   3.008   0.485  13.641 -0.8181 -0.6572  0.8236
 8328TIP3    H249180   2.952   0.607  13.571  1.1329 -0.9393 -1.3641
 8329TIP3   OH249181   5.453   5.010  13.078  0.1028  0.1283  0.2409
 8329TIP3    H149182   5.364   5.034  13.052 -0.2019 -0.2193  0.9319
 8329TIP3    H249183   5.507   5.084  13.051 -0.5022  0.6428  0.4148
 8330TIP3   OH249184   1.321   3.364  13.208  0.4369 -0.0955 -0.0225
 8330TIP3    H149185   1.323   3.366  13.112  0.2575 -3.5996 -0.2048
 8330TIP3    H249186   1.327   3.272  13.231  0.0316  0.5871  3.3815
 8331TIP3   OH249187   2.775   0.605  12.887  1.0178 -0.5889 -0.0170
 8331TIP3    H149188   2.853   0.560  12.919  2.4087 -1.0103 -3.4506
 8331TIP3    H249189   2.787   0.607  12.792 -1.5270  2.4407 -0.4380
 8332TIP3   OH249190   2.261   6.753  12.947  0.8094  0.5249  0.6530
 8332TIP3    H149191   2.255   6.674  12.893  0.0002  0.7082  0.4551
 8332TIP3    H249192   2.212   6.732  13.026  1.7832  0.3459  1.2231
 8333TIP3   OH249193   0.182   2.223  11.814 -0.0986  0.1944 -0.3348
 8333TIP3    H149194   0.236   2.146  11.833  1.2362  1.6227  2.2211
 8333TIP3    H249195   0.157   2.257  11.900  0.0053  3.0401 -1.3223
 8334TIP3   OH249196   6.138   1.845  12.052  0.0302  0.6001  0.3494
 8334TIP3    H149197   6.069   1.791  12.090 -1.4253  2.3765  0.3970
 8334TIP3    H249198   6.166   1.798  11.974 -1.2527 -0.1626  0.3269
 8335TIP3   OH249199   7.671   4.883  12.020 -0.2560 -0.3493 -0.1308
 8335TIP3    H149200   7.596   4.909  12.074  0.9504  0.3952  1.2520
 8335TIP3    H249201   7.739   4.859  12.083  1.2099  0.5543 -1.3119
 8336TIP3   OH249202   6.015   5.340  16.601  0.5241 -0.3754 -0.4129
 8336TIP3    H149203   6.055   5.278  16.540 -1.6011 -2.3879  0.1153
 8336TIP3    H249204   6.076   5.345  16.675  0.6209 -2.0545 -0.3625
 8337TIP3   OH249205   2.527   5.512  11.829  0.3607  0.1420  0.2520
 8337TIP3    H149206   2.558   5.473  11.747 -0.8754 -1.6785  0.5919
 8337TIP3    H249207   2.453   5.457  11.855  0.3453  1.0475  2.2787
 8338TIP3   OH249208   2.695   7.172  12.850 -0.3530 -0.0044  0.1847
 8338TIP3    H149209   2.723   7.255  12.886 -0.5632 -0.2996  1.0426
 8338TIP3    H249210   2.756   7.108  12.886  0.1892 -0.1540 -0.9545
 8339TIP3   OH249211   8.939   3.517  11.925 -0.0009 -0.2563 -0.2241
 8339TIP3    H149212   9.007   3.483  11.982  0.1293 -1.3987 -1.0148
 8339TIP3    H249213   8.873   3.447  11.922 -0.2742  0.0173 -0.9889
 8340TIP3   OH249214   0.613   6.639  12.186 -0.3766  0.2582  0.3534
 8340TIP3    H149215   0.684   6.702  12.175 -0.3398  0.1303 -0.1531
 8340TIP3    H249216   0.617   6.614  12.278 -0.1172  0.6678  0.4567
 8341TIP3   OH249217   4.313   6.855  13.372  0.3968 -0.1900  0.3891
 8341TIP3    H149218   4.330   6.949  13.368  1.2544 -0.3693 -0.7839
 8341TIP3    H249219   4.292   6.838  13.464 -1.7146  1.4471  0.3052
 8342TIP3   OH249220   0.446   2.359  12.240  0.2417 -0.0003 -0.1222
 8342TIP3    H149221   0.525   2.373  12.189  0.5056 -1.5730 -0.1790
 8342TIP3    H249222   0.377   2.404  12.191  0.6136 -0.8900 -1.4836
 8343TIP3   OH249223   0.021   5.281  12.644  0.1967 -0.3622  0.2870
 8343TIP3    H149224   0.051   5.315  12.560  0.2992 -1.0396  0.0462
 8343TIP3    H249225   0.097   5.288  12.702 -0.7890  3.5302  1.4351
 8344TIP3   OH249226   0.396   7.041  13.040  0.1726  0.4091 -0.2224
 8344TIP3    H149227   0.489   7.053  13.060  0.0387  0.8289  0.1650
 8344TIP3    H249228   0.365   6.981  13.109 -0.0572  1.0401  0.2368
 8345TIP3   OH249229   2.730   7.818  12.018  0.3565 -0.5425 -0.3309
 8345TIP3    H149230   2.746   7.888  11.954 -0.5368 -1.0997 -1.1927
 8345TIP3    H249231   2.663   7.854  12.076 -0.5107 -0.8707 -1.1097
 8346TIP3   OH249232   3.370   3.101  11.541  0.1418  0.8281 -0.5849
 8346TIP3    H149233   3.279   3.102  11.570 -0.2633  1.5773 -1.7833
 8346TIP3    H249234   3.396   3.193  11.544  0.8767  0.6135 -0.2264
 8347TIP3   OH249235   7.368   4.238  12.993 -0.0543  0.0780 -0.1662
 8347TIP3    H149236   7.449   4.289  12.988 -0.2254  0.2452 -2.2141
 8347TIP3    H249237   7.357   4.204  12.904 -3.3455  1.7920 -0.5449
 8348TIP3   OH249238   5.878   7.710  17.426  0.4802 -0.7486  0.0833
 8348TIP3    H149239   5.965   7.702  17.388  0.9854 -1.9608  1.3977
 8348TIP3    H249240   5.823   7.654  17.372  0.1463  1.1068 -1.6260
 8349TIP3   OH249241   8.313   7.099  11.458 -0.1755 -0.6057 -0.2384
 8349TIP3    H149242   8.404   7.127  11.461 -0.1277 -0.1667 -3.1295
 8349TIP3    H249243   8.313   7.013  11.501  2.0799 -1.6407 -2.0593
 8350TIP3   OH249244   6.604   1.161  12.663  0.6322  0.1744 -0.2128
 8350TIP3    H149245   6.541   1.230  12.641  0.9853  0.6680  0.3194
 8350TIP3    H249246   6.686   1.207  12.678  0.6230 -0.2325  1.2281
 8351TIP3   OH249247   4.902   5.184  12.655 -0.2038  0.3906  0.1128
 8351TIP3    H149248   4.877   5.275  12.641 -2.3064 -0.2888 -1.0637
 8351TIP3    H249249   4.913   5.148  12.567 -0.8027 -0.8267  0.5124
 8352TIP3   OH249250   0.578   7.383  13.460  0.3546  0.0458 -0.0725
 8352TIP3    H149251   0.651   7.359  13.516 -0.2888  0.3829  0.9543
 8352TIP3    H249252   0.609   7.367  13.371  0.8828 -1.9708  0.4159
 8353TIP3   OH249253   4.201   3.648  13.296  0.5989  0.6456 -0.2637
 8353TIP3    H149254   4.195   3.722  13.357 -1.0377 -0.2591  0.7419
 8353TIP3    H249255   4.150   3.676  13.220 -0.7850  0.2509  0.4869
 8354TIP3   OH249256   7.216   1.670  12.180 -0.0362  0.3632 -0.3913
 8354TIP3    H149257   7.172   1.753  12.165  0.3319  0.7088  0.3927
 8354TIP3    H249258   7.145   1.609  12.200 -0.2975  0.4994 -0.8616
 8355TIP3   OH249259   0.571   9.021  13.403 -0.7845  0.2814  0.6006
 8355TIP3    H149260   0.491   8.987  13.444 -0.1726 -0.4472  1.2223
 8355TIP3    H249261   0.546   9.037  13.312 -1.7404  0.4334  0.8787
 8356TIP3   OH249262   5.274   3.930  12.100  0.4930  0.0059 -0.1494
 8356TIP3    H149263   5.220   3.854  12.122  0.7091 -0.2793 -0.5763
 8356TIP3    H249264   5.297   3.969  12.184 -0.9219  0.5264  0.0277
 8357TIP3   OH249265   2.545   5.816  12.922  0.3430 -0.1648  0.4736
 8357TIP3    H149266   2.611   5.841  12.987  0.0876  1.4954  0.1455
 8357TIP3    H249267   2.591   5.758  12.861  1.0891 -0.2194  1.0762
 8358TIP3   OH249268   6.701   5.123  12.935 -0.1111  0.0574 -0.4320
 8358TIP3    H149269   6.715   5.138  12.842  0.1274 -1.6323 -0.7070
 8358TIP3    H249270   6.697   5.210  12.974  1.4261  0.7723 -1.7759
 8359TIP3   OH249271   2.762   0.260  12.832 -0.4310  0.2278 -0.1889
 8359TIP3    H149272   2.794   0.174  12.859  0.6669  0.3830 -0.9076
 8359TIP3    H249273   2.831   0.321  12.860 -0.4980  0.6878 -0.9832
 8360TIP3   OH249274   2.313   8.491  13.217 -0.1300  0.0075 -0.0002
 8360TIP3    H149275   2.325   8.584  13.231 -1.3780  0.0820  0.7431
 8360TIP3    H249276   2.401   8.455  13.217  0.4753  1.3648 -1.7660
 8361TIP3   OH249277   8.777   2.842  13.624 -0.5194 -0.4115 -0.0478
 8361TIP3    H149278   8.825   2.840  13.707  0.9904 -1.3051 -0.8804
 8361TIP3    H249279   8.737   2.755  13.618 -0.1110 -0.5771 -0.5093
 8362TIP3   OH249280   1.088   6.881  13.142  0.5472 -0.2319 -0.6967
 8362TIP3    H149281   1.090   6.973  13.168  2.7584  0.0505 -1.6645
 8362TIP3    H249282   1.058   6.834  13.220  1.5942  1.1063  0.5420
 8363TIP3   OH249283   3.694   7.943  13.568 -0.2275  0.4581 -0.0210
 8363TIP3    H149284   3.622   7.897  13.610 -0.6182  2.0894  1.2195
 8363TIP3    H249285   3.672   7.942  13.475 -0.0214 -2.0880 -0.0978
 8364TIP3   OH249286   0.452   5.732  12.032 -0.3365 -0.0004 -0.2740
 8364TIP3    H149287   0.531   5.787  12.031 -0.3224 -0.0261 -0.5371
 8364TIP3    H249288   0.485   5.643  12.023 -0.3246 -0.0959  0.6612
 8365TIP3   OH249289   8.836   4.897  11.813 -0.7559 -0.3998  0.1781
 8365TIP3    H149290   8.924   4.914  11.778 -0.5984 -0.6915  0.4262
 8365TIP3    H249291   8.795   4.840  11.748  0.3775 -2.9313  1.5444
 8366TIP3   OH249292   2.989   4.553  11.240 -0.6727  0.5073 -0.0454
 8366TIP3    H149293   2.953   4.577  11.154 -2.2868  2.4344  1.0697
 8366TIP3    H249294   2.938   4.605  11.302  0.4628 -0.8139  2.1011
 8367TIP3   OH249295   0.970   3.392  11.634 -0.4852 -0.3021  0.4890
 8367TIP3    H149296   0.931   3.383  11.547 -0.9168  2.1758  0.3612
 8367TIP3    H249297   0.900   3.431  11.687  0.3640 -0.0736  1.4551
 8368TIP3   OH249298   3.335   6.958  12.083  0.2033  0.1259 -0.8150
 8368TIP3    H149299   3.293   6.898  12.021 -0.1601  0.6107 -1.0465
 8368TIP3    H249300   3.265   6.982  12.144  0.2802  0.5223 -0.8831
 8369TIP3   OH249301   3.836   4.841  12.835 -0.2033  0.1697  0.1048
 8369TIP3    H149302   3.892   4.778  12.790  0.3634  0.7794 -0.0425
 8369TIP3    H249303   3.840   4.920  12.783 -1.7897  0.0171 -0.3167
 8370TIP3   OH249304   3.350   6.173  11.994  0.0424  0.3192  0.0784
 8370TIP3    H149305   3.337   6.194  11.902 -1.9800 -0.0650  0.2187
 8370TIP3    H249306   3.284   6.225  12.040  1.8939  1.5617  1.4925
 8371TIP3   OH249307   1.239   7.956  11.948  0.2330  0.2748  0.0232
 8371TIP3    H149308   1.332   7.939  11.962  0.3976  0.8250 -0.3249
 8371TIP3    H249309   1.202   7.963  12.036  0.2632 -1.2114  0.1688
 8372TIP3   OH249310   3.932   1.921  11.798 -0.1143  0.4991 -0.1493
 8372TIP3    H149311   3.930   1.837  11.844 -1.5732 -0.5017 -1.8937
 8372TIP3    H249312   3.871   1.976  11.846 -1.9175 -0.6557 -0.9827
 8373TIP3   OH249313   0.178   3.785  12.433 -0.3578  0.2077 -0.3951
 8373TIP3    H149314   0.163   3.879  12.442 -1.3798  0.1097 -0.9564
 8373TIP3    H249315   0.248   3.778  12.368  0.5309  0.5931  0.4773
 8374TIP3   OH249316   3.554   1.294  13.528  0.0989 -0.5971 -0.0950
 8374TIP3    H149317   3.526   1.369  13.580  0.4732  0.3566 -1.2116
 8374TIP3    H249318   3.644   1.278  13.555 -0.5020 -1.7501  1.3470
 8375TIP3   OH249319   8.843   6.981  11.614  0.3926 -0.2028  0.2484
 8375TIP3    H149320   8.871   6.991  11.705 -0.2803 -1.8895  0.6876
 8375TIP3    H249321   8.898   6.911  11.579 -1.2331 -1.5391  0.2511
 8376TIP3   OH249322   9.207   1.079  11.512  0.2680 -0.0985 -0.0160
 8376TIP3    H149323   9.146   1.040  11.574  0.3530  0.4078  0.3969
 8376TIP3    H249324   9.164   1.070  11.427  0.5088 -1.5182 -0.0138
 8377TIP3   OH249325   2.802   4.857  12.658 -0.4150 -0.1248 -0.6084
 8377TIP3    H149326   2.711   4.878  12.678 -0.5090 -1.6366  0.7258
 8377TIP3    H249327   2.848   4.873  12.740  0.5134  0.4129 -1.2133
 8378TIP3   OH249328   2.698   1.431  11.904  0.4239  0.2401 -0.0633
 8378TIP3    H149329   2.668   1.522  11.898  0.9238  0.4017 -0.1572
 8378TIP3    H249330   2.786   1.437  11.942 -0.3058 -0.3381  1.8620
 8379TIP3   OH249331   6.232   4.543  11.903 -0.0580 -0.1311  0.3888
 8379TIP3    H149332   6.210   4.621  11.852 -0.8726 -1.6466 -1.7180
 8379TIP3    H249333   6.180   4.473  11.864  1.5321 -1.9968  1.4085
 8380TIP3   OH249334   1.675   0.707  12.301  0.2920 -0.4406 -0.3695
 8380TIP3    H149335   1.714   0.794  12.315 -1.6997  1.0118 -2.9857
 8380TIP3    H249336   1.743   0.658  12.255  1.5050 -0.4156  1.2780
 8381TIP3   OH249337   9.104   1.232  12.204 -0.1942 -0.3320 -0.3903
 8381TIP3    H149338   9.168   1.162  12.204 -1.4006 -1.4896 -1.6003
 8381TIP3    H249339   9.148   1.305  12.247  1.2044 -1.7098  0.6077
 8382TIP3   OH249340   4.811   9.127  12.216 -0.4616  0.6380  0.2532
 8382TIP3    H149341   4.751   9.189  12.175  0.7437  1.2432 -0.6617
 8382TIP3    H249342   4.793   9.134  12.309 -1.7762  0.8274 -0.0009
 8383TIP3   OH249343   7.756   8.271  12.718 -0.0171  0.0363 -0.3251
 8383TIP3    H149344   7.828   8.320  12.679  1.4184 -0.3308  1.6463
 8383TIP3    H249345   7.784   8.179  12.712 -0.3870 -0.1250  0.2999
 8384TIP3   OH249346   6.202   1.214  11.825 -0.1557  0.2087  0.1342
 8384TIP3    H149347   6.136   1.162  11.780  0.8268 -1.1940  0.2456
 8384TIP3    H249348   6.207   1.177  11.913  0.8115  0.2420  0.1075
 8385TIP3   OH249349   5.680   2.616  12.188 -0.0709 -0.1868  0.3087
 8385TIP3    H149350   5.649   2.702  12.159 -2.5830 -0.5837  1.5797
 8385TIP3    H249351   5.730   2.635  12.268 -0.9414  0.0745  0.8005
 8386TIP3   OH249352   4.568   0.786  12.542  0.3321  0.2850  0.7542
 8386TIP3    H149353   4.647   0.805  12.491  1.1288  2.0213  2.5099
 8386TIP3    H249354   4.596   0.717  12.603  0.0427 -0.1780  0.3651
 8387TIP3   OH249355   8.654   7.569  11.992  0.1706 -0.1755 -0.2095
 8387TIP3    H149356   8.696   7.623  11.925  1.8442  0.0088  0.9285
 8387TIP3    H249357   8.709   7.491  11.998 -1.4444 -1.4185 -0.8566
 8388TIP3   OH249358   0.377   1.729  12.520  0.5867 -0.3542 -0.0133
 8388TIP3    H149359   0.316   1.681  12.464  0.4260 -0.8696  0.5783
 8388TIP3    H249360   0.449   1.754  12.463 -0.1148  0.1474 -0.6958
 8389TIP3   OH249361   9.121   3.046  11.862 -0.4817  0.3155 -0.2438
 8389TIP3    H149362   9.213   3.024  11.874 -1.0717 -2.0436  0.6152
 8389TIP3    H249363   9.089   3.064  11.950 -0.4890  3.0909 -0.7219
 8390TIP3   OH249364   7.959   1.439  12.859  0.2953  0.1366  0.0053
 8390TIP3    H149365   8.026   1.372  12.876  0.1784 -0.1001 -0.4346
 8390TIP3    H249366   7.981   1.511  12.917  0.0097 -0.5651  1.0137
 8391TIP3   OH249367   4.119   2.093  11.750  0.0236 -0.1748  0.2189
 8391TIP3    H149368   4.102   2.157  11.819  0.3587 -1.8228  1.9072
 8391TIP3    H249369   4.059   2.021  11.767  1.4694 -1.4977  0.0461
 8392TIP3   OH249370   2.844   6.300  12.165 -0.3127  0.4632  0.1001
 8392TIP3    H149371   2.917   6.350  12.129 -0.2538 -0.3439 -0.9502
 8392TIP3    H249372   2.767   6.333  12.120 -0.4750  0.6844  0.5422
 8393TIP3   OH249373   5.292   4.126  12.311  0.0964 -0.4739 -0.3871
 8393TIP3    H149374   5.297   4.215  12.348  2.0544  0.3796 -2.4854
 8393TIP3    H249375   5.264   4.071  12.384  1.5245  1.4399  1.7268
 8394TIP3   OH249376   5.787   3.439  12.623 -0.0086 -0.1774  0.4183
 8394TIP3    H149377   5.870   3.484  12.639  0.0186 -0.5602  1.4466
 8394TIP3    H249378   5.734   3.502  12.575  0.6760  0.2794  0.2423
 8395TIP3   OH249379   0.470   0.726  11.851 -0.1852 -0.0010  0.1620
 8395TIP3    H149380   0.380   0.696  11.839 -0.4679  0.5304  0.8875
 8395TIP3    H249381   0.466   0.820  11.839  0.6463 -0.1805 -1.8031
 8396TIP3   OH249382   3.863   4.220  12.916 -0.1527  0.1276  0.5888
 8396TIP3    H149383   3.773   4.188  12.914 -0.5377  1.1588 -1.1502
 8396TIP3    H249384   3.878   4.253  12.827  0.8112  2.9995  1.7011
 8397TIP3   OH249385   3.289   9.170  12.346  0.3437  0.3759 -0.5100
 8397TIP3    H149386   3.335   9.246  12.310  1.5135 -0.4428 -0.8395
 8397TIP3    H249387   3.332   9.154  12.431 -2.1529  2.0767  1.1875
 8398TIP3   OH249388   4.236   3.213  12.280 -0.0095  0.0906 -0.0594
 8398TIP3    H149389   4.144   3.234  12.293 -0.1180  0.3012 -1.0534
 8398TIP3    H249390   4.254   3.141  12.340 -0.5328  0.7670  0.9266
 8399TIP3   OH249391   0.300   4.512  12.383 -0.2590  0.4491  0.1549
 8399TIP3    H149392   0.267   4.469  12.304  1.1923  1.2414 -0.9204
 8399TIP3    H249393   0.298   4.605  12.363  0.8300  0.6221  0.7708
 8400TIP3   OH249394   0.214   1.509  12.654  0.2994  0.3971  0.4339
 8400TIP3    H149395   0.197   1.416  12.636 -0.1871  1.0465 -3.5830
 8400TIP3    H249396   0.302   1.524  12.621 -0.0518  1.5512 -0.0226
 8401TIP3   OH249397   7.585   1.687  13.221 -0.3569 -0.3532 -0.0108
 8401TIP3    H149398   7.619   1.600  13.196 -1.1841 -0.1357 -2.0751
 8401TIP3    H249399   7.502   1.694  13.175 -0.4538  1.4242  0.3772
 8402TIP3   OH249400   3.458   2.641  11.944 -0.3502  0.5601  0.0847
 8402TIP3    H149401   3.427   2.600  12.025 -1.1699 -0.5390 -0.7528
 8402TIP3    H249402   3.523   2.580  11.909 -0.5465  0.6514 -0.4586
 8403TIP3   OH249403   8.280   6.241  12.468 -0.5453 -0.0530  0.4070
 8403TIP3    H149404   8.311   6.221  12.379 -0.5992 -0.2423  0.4303
 8403TIP3    H249405   8.303   6.333  12.481 -0.6183  0.0020  0.1606
 8404TIP3   OH249406   8.175   1.888  11.962  1.0446 -0.0382  0.1320
 8404TIP3    H149407   8.137   1.975  11.973 -0.2814 -0.7144  1.1420
 8404TIP3    H249408   8.201   1.862  12.050  0.6663 -1.0007 -0.0336
 8405TIP3   OH249409   3.310   8.535  12.224 -0.0534 -0.1467 -0.1359
 8405TIP3    H149410   3.337   8.448  12.195  0.4444  0.1064 -0.4391
 8405TIP3    H249411   3.390   8.588  12.220 -0.5213  0.5417 -0.7872
 8406TIP3   OH249412   0.020   5.731  13.636  0.0601 -0.1826 -0.2470
 8406TIP3    H149413   0.070   5.800  13.680  0.0143 -1.0898  1.2807
 8406TIP3    H249414  -0.071   5.745  13.662  0.1112 -1.0861  0.4731
 8407TIP3   OH249415   3.818   8.497  11.971  0.4748  0.5655  0.3168
 8407TIP3    H149416   3.886   8.526  11.909  1.4248 -0.3506  0.8978
 8407TIP3    H249417   3.769   8.577  11.990  1.6065  1.3395  0.1344
 8408TIP3   OH249418   4.784   7.263  12.577  0.1242  0.0758 -0.2330
 8408TIP3    H149419   4.792   7.338  12.637 -1.7938  0.1719 -0.0129
 8408TIP3    H249420   4.781   7.187  12.635 -2.5135  0.2251 -0.0534
 8409TIP3   OH249421   8.168   6.663  12.025 -0.6186 -0.3433  0.0977
 8409TIP3    H149422   8.114   6.618  11.960  0.2085 -0.3881 -0.5740
 8409TIP3    H249423   8.258   6.646  11.998 -0.2658  1.7677 -0.2208
 8410TIP3   OH249424   5.297   1.141  12.066  0.7334  0.0512  0.1761
 8410TIP3    H149425   5.311   1.160  12.159 -1.6288  0.4449  0.5249
 8410TIP3    H249426   5.267   1.050  12.065 -0.6308  0.4690  0.0165
 8411TIP3   OH249427   5.325   5.277  13.175  0.9469 -0.0396  0.1887
 8411TIP3    H149428   5.400   5.260  13.117  2.0588  1.3393  1.1791
 8411TIP3    H249429   5.364   5.306  13.257 -0.6301 -1.3241  1.4532
 8412TIP3   OH249430   0.734   4.471  12.522 -0.0988  0.5499  0.0193
 8412TIP3    H149431   0.802   4.463  12.589  1.7333  1.1542 -1.6677
 8412TIP3    H249432   0.686   4.550  12.545 -0.2216  0.1466  1.2016
 8413TIP3   OH249433   8.135   4.470  12.359 -0.5815 -0.0002 -0.1573
 8413TIP3    H149434   8.096   4.465  12.446  0.0558  0.8225  0.1824
 8413TIP3    H249435   8.132   4.562  12.335 -1.2884 -0.2860 -1.2730
 8414TIP3   OH249436   5.361   8.360  12.808 -0.3580 -0.0324  0.3565
 8414TIP3    H149437   5.388   8.422  12.876  2.1699  0.6638 -1.1548
 8414TIP3    H249438   5.430   8.294  12.808 -0.2958 -0.0169 -1.4726
 8415TIP3   OH249439   7.129   2.349  13.215  0.3722  0.2275 -0.0010
 8415TIP3    H149440   7.059   2.352  13.149  0.2293 -0.2912  0.1213
 8415TIP3    H249441   7.090   2.384  13.294  0.0835 -0.5501  0.2099
 8416TIP3   OH249442   8.656   0.011  12.591  0.1698 -0.5700  0.1119
 8416TIP3    H149443   8.707  -0.025  12.520 -2.0572 -0.9212 -1.4195
 8416TIP3    H249444   8.640   0.102  12.566  0.1896 -0.4107  0.6581
 8417TIP3   OH249445   7.477   0.978  11.963  0.8075 -0.3440 -0.1252
 8417TIP3    H149446   7.434   0.896  11.988  0.3858 -0.0199  0.2325
 8417TIP3    H249447   7.531   0.955  11.888 -0.6743 -0.5892 -1.1454
 8418TIP3   OH249448   8.473   6.539  13.207 -0.0323 -0.1383 -0.0590
 8418TIP3    H149449   8.378   6.542  13.192 -0.1360 -0.6957  0.4444
 8418TIP3    H249450   8.481   6.531  13.302  0.5732  2.3723  0.1649
 8419TIP3   OH249451   2.345   7.019  13.136  0.0649  0.4429  0.1536
 8419TIP3    H149452   2.400   7.015  13.214 -0.6887  0.2072  0.6878
 8419TIP3    H249453   2.404   7.048  13.066  1.4243 -1.9652  0.1953
 8420TIP3   OH249454   5.373   4.215  13.571 -0.4443 -0.2621 -0.3692
 8420TIP3    H149455   5.304   4.170  13.620  0.6311 -1.0395  0.4670
 8420TIP3    H249456   5.353   4.308  13.584 -0.2996 -0.4403  1.4459
 8421TIP3   OH249457   8.592   5.981  13.893  0.3890 -0.1836 -0.6584
 8421TIP3    H149458   8.598   6.015  13.982  0.4340  0.8185 -1.0279
 8421TIP3    H249459   8.502   5.948  13.885 -0.3529  1.7421 -0.9073
 8422TIP3   OH249460   6.913   2.618  12.788  0.3377 -0.4486  0.3748
 8422TIP3    H149461   6.983   2.652  12.844  0.8817 -0.2502 -0.4020
 8422TIP3    H249462   6.944   2.634  12.699 -0.7345 -0.2828  0.0112
 8423TIP3   OH249463   2.725   5.134  12.500  0.4409  0.5411 -0.0178
 8423TIP3    H149464   2.761   5.049  12.473 -1.9386  0.2347 -2.6482
 8423TIP3    H249465   2.781   5.199  12.456 -0.1227  0.1826 -1.3019
 8424TIP3   OH249466   3.542   5.494  11.916  0.3636  0.4654 -0.4595
 8424TIP3    H149467   3.566   5.439  11.842 -0.9766  1.3323 -1.5755
 8424TIP3    H249468   3.517   5.432  11.985  0.0549 -0.3370 -1.2704
 8425TIP3   OH249469   0.059   7.630  12.929  0.0997  0.2630 -0.3258
 8425TIP3    H149470   0.066   7.622  13.024 -0.0730  0.1180 -0.3255
 8425TIP3    H249471   0.058   7.540  12.897 -1.3118  0.2710 -0.3635
 8426TIP3   OH249472   2.195   5.101  13.339 -0.3339 -0.3968 -0.1646
 8426TIP3    H149473   2.216   5.043  13.413 -3.3126 -1.1982  0.1781
 8426TIP3    H249474   2.224   5.051  13.262 -1.9991 -2.0357  0.1864
 8427TIP3   OH249475   5.171   5.417  12.035 -0.5625  0.3036 -0.2566
 8427TIP3    H149476   5.199   5.499  11.994  2.4159  1.0558  2.8055
 8427TIP3    H249477   5.216   5.349  11.986 -0.2137  0.8397 -0.6917
 8428TIP3   OH249478   6.925   6.040  12.376  0.0900 -0.6073 -0.2736
 8428TIP3    H149479   6.936   5.983  12.452 -1.1212 -0.6659 -0.1172
 8428TIP3    H249480   6.831   6.059  12.374  0.4041  1.1030 -0.5334
 8429TIP3   OH249481   2.264   5.891  12.986  0.5132 -0.7213 -0.0256
 8429TIP3    H149482   2.282   5.932  13.071  0.2297  2.0596 -1.2249
 8429TIP3    H249483   2.350   5.859  12.957  1.5493  2.2684 -0.5898
 8430TIP3   OH249484   4.865   4.023  11.790  0.1980 -0.2508  0.1929
 8430TIP3    H149485   4.926   3.997  11.859  1.2824 -0.4991 -0.8255
 8430TIP3    H249486   4.920   4.063  11.723 -0.5291 -1.7776 -1.4104
 8431TIP3   OH249487   4.707   2.650  13.333 -0.1771  0.7001 -0.0653
 8431TIP3    H149488   4.747   2.711  13.396  0.3904 -0.3401  0.6062
 8431TIP3    H249489   4.728   2.688  13.248  2.8934 -0.0923  0.2056
 8432TIP3   OH249490   5.320   6.910  13.454 -1.0533 -0.5888  0.6254
 8432TIP3    H149491   5.239   6.890  13.501 -1.4415  0.2451  0.3341
 8432TIP3    H249492   5.330   7.005  13.462  0.0517 -0.7123  0.9023
 8433TIP3   OH249493   4.163   3.249  11.899 -0.6072  0.1643  0.2276
 8433TIP3    H149494   4.214   3.330  11.905  1.5035 -1.0772  0.1487
 8433TIP3    H249495   4.200   3.203  11.823 -0.6636 -1.5682  1.2035
 8434TIP3   OH249496   2.265   0.628  12.757 -0.0435  0.0192 -0.4824
 8434TIP3    H149497   2.283   0.570  12.683  0.9123 -0.3601  0.0274
 8434TIP3    H249498   2.341   0.618  12.814 -1.2233 -0.5046  1.0708
 8435TIP3   OH249499   7.285   4.788  12.302  0.3083  0.0743  0.2745
 8435TIP3    H149500   7.376   4.758  12.311 -0.2159 -1.8733 -0.4647
 8435TIP3    H249501   7.278   4.814  12.210  0.3247  1.1107  0.5439
 8436TIP3   OH249502   1.395   3.707  11.743  0.2096 -0.6321 -0.0482
 8436TIP3    H149503   1.337   3.643  11.703 -0.6334  0.3635 -0.4594
 8436TIP3    H249504   1.403   3.777  11.678  0.4400  0.0738  0.7160
 8437TIP3   OH249505   4.306   2.655  12.168  0.9873 -0.6239  0.0816
 8437TIP3    H149506   4.335   2.605  12.092  0.4717 -0.4605 -0.2297
 8437TIP3    H249507   4.231   2.705  12.136  0.1720 -1.2603  0.9430
 8438TIP3   OH249508   4.212   7.496  11.829 -0.0856  0.2736  0.1736
 8438TIP3    H149509   4.234   7.588  11.819 -0.5967  0.3730 -0.0604
 8438TIP3    H249510   4.118   7.495  11.843 -0.1589 -0.2473 -0.3237
 8439TIP3   OH249511   7.738   8.895  11.614 -0.1568 -0.5161 -0.0700
 8439TIP3    H149512   7.721   8.803  11.596 -0.9572  0.2938 -4.3507
 8439TIP3    H249513   7.671   8.942  11.565  0.8064  2.4128  1.2111
 8440TIP3   OH249514   7.426   8.898  12.894 -0.0301  0.4144 -0.0994
 8440TIP3    H149515   7.484   8.967  12.860  0.4336  0.7369  1.2421
 8440TIP3    H249516   7.376   8.942  12.963 -0.8058 -0.2441 -0.2333
 8441TIP3   OH249517   2.986   8.192  12.873 -0.1829  0.6238 -0.3547
 8441TIP3    H149518   2.906   8.218  12.919 -0.3548  0.4229 -0.5385
 8441TIP3    H249519   2.987   8.247  12.794 -0.4570  0.1977 -0.6573
 8442TIP3   OH249520   0.531   3.927  13.524  0.3114  0.1227  0.1274
 8442TIP3    H149521   0.621   3.915  13.554  1.1610  3.5065 -0.6182
 8442TIP3    H249522   0.525   4.020  13.501 -3.1165 -0.1628 -0.7938
 8443TIP3   OH249523   7.489   4.540  12.141 -0.3877  0.5979  0.2927
 8443TIP3    H149524   7.519   4.598  12.211  1.3181 -0.2187  0.2855
 8443TIP3    H249525   7.488   4.453  12.180 -0.3909  0.2654 -0.4268
 8444TIP3   OH249526   2.935   8.870  12.908  0.0831 -0.4164 -0.2934
 8444TIP3    H149527   2.969   8.880  12.997  1.4561 -0.8176 -0.7448
 8444TIP3    H249528   2.901   8.781  12.905  2.2011 -1.2841 -0.8050
 8445TIP3   OH249529   3.686   5.337  13.554  0.1400  0.3648  0.0147
 8445TIP3    H149530   3.701   5.414  13.499 -0.6040  0.5912  0.1278
 8445TIP3    H249531   3.591   5.326  13.556  0.2705 -1.2296 -0.9286
 8446TIP3   OH249532   2.004   8.044  12.247 -0.2482  0.5205 -0.1869
 8446TIP3    H149533   2.064   8.116  12.228 -1.2055  0.8121 -2.4140
 8446TIP3    H249534   1.951   8.076  12.321 -0.8360  2.2716 -1.2850
 8447TIP3   OH249535   6.596   4.354  13.164  0.0049 -0.4200  0.7649
 8447TIP3    H149536   6.691   4.354  13.169  0.0477 -0.0142  0.0514
 8447TIP3    H249537   6.576   4.332  13.073 -0.5029  2.2333  0.1424
 8448TIP3   OH249538   5.737   2.790  13.016  0.2601  0.2387  0.5066
 8448TIP3    H149539   5.737   2.795  12.920 -0.2316  0.7614  0.5302
 8448TIP3    H249540   5.706   2.702  13.035  1.5193 -0.3099  0.1779
 8449TIP3   OH249541   7.119   1.970  12.188 -0.2563 -0.7396 -0.4761
 8449TIP3    H149542   7.181   2.010  12.249  0.1622 -1.6688 -0.2795
 8449TIP3    H249543   7.114   2.033  12.116  0.3992 -0.3319 -0.1827
 8450TIP3   OH249544   7.051   6.509  12.096 -0.4262  0.5263  0.0806
 8450TIP3    H149545   7.032   6.540  12.185 -0.4854 -0.6571  0.5022
 8450TIP3    H249546   6.969   6.468  12.067 -0.2832  0.5461 -0.3575
 8451TIP3   OH249547   1.508   3.851  13.467 -0.5215 -0.3936  0.1192
 8451TIP3    H149548   1.513   3.941  13.500  0.0758 -0.4686  0.2443
 8451TIP3    H249549   1.487   3.799  13.545 -0.2947 -0.4280  0.1589
 8452TIP3   OH249550   0.628   4.623  11.753 -0.2941 -0.6581  0.3780
 8452TIP3    H149551   0.634   4.579  11.838 -0.2601  1.5590  1.5754
 8452TIP3    H249552   0.708   4.675  11.747 -0.6640 -0.1791 -0.6754
 8453TIP3   OH249553   3.186   0.604  13.741 -0.3717  0.4478 -0.0272
 8453TIP3    H149554   3.122   0.634  13.806 -1.9485 -2.2890 -0.1681
 8453TIP3    H249555   3.178   0.666  13.669  0.3016  2.6504  1.6707
 8454TIP3   OH249556   4.722   8.005  13.171  0.0504 -0.3373 -0.4901
 8454TIP3    H149557   4.723   7.986  13.077 -0.0402 -0.8726 -0.3861
 8454TIP3    H249558   4.731   8.100  13.177 -1.9956 -0.0533 -1.1208
 8455TIP3   OH249559   1.750   9.168  12.354  0.1193  0.0118  0.4004
 8455TIP3    H149560   1.678   9.119  12.315 -0.3279  0.9358  0.0233
 8455TIP3    H249561   1.820   9.104  12.364 -0.0992 -0.4880 -1.0097
 8456TIP3   OH249562   1.834   3.406  13.237 -0.2659  0.2203  0.0176
 8456TIP3    H149563   1.746   3.443  13.233  0.3202  1.7163  0.2078
 8456TIP3    H249564   1.874   3.450  13.313  0.2958 -1.2332  0.5885
 8457TIP3   OH249565   8.538   3.432  13.000 -0.0324 -0.3020  0.0552
 8457TIP3    H149566   8.526   3.525  13.022  2.1185  0.3338 -1.1711
 8457TIP3    H249567   8.547   3.430  12.905  0.8458 -1.6420  0.1338
 8458TIP3   OH249568   1.296   0.021  11.931  0.0161 -0.3033 -0.4863
 8458TIP3    H149569   1.312  -0.048  11.996 -0.3065 -1.6329 -1.7710
 8458TIP3    H249570   1.375   0.022  11.877  0.8432  1.7000  0.6415
 8459TIP3   OH249571   2.472   8.590  13.476  0.3328 -0.2467  0.2248
 8459TIP3    H149572   2.422   8.665  13.444  0.6098 -0.6641 -1.3051
 8459TIP3    H249573   2.405   8.529  13.509 -0.0497 -0.1308 -0.3228
 8460TIP3   OH249574   8.531   0.613  11.971  0.2350 -0.3827 -0.5957
 8460TIP3    H149575   8.514   0.628  12.064  0.3747 -0.0617 -0.6183
 8460TIP3    H249576   8.469   0.545  11.945  1.0176 -1.3612  0.0181
 8461TIP3   OH249577   5.501   3.923  11.432 -0.2347 -0.2558 -0.5320
 8461TIP3    H149578   5.561   3.881  11.370 -0.1227 -1.6743  0.4744
 8461TIP3    H249579   5.553   3.991  11.475  0.0108 -0.0265 -1.1825
 8462TIP3   OH249580   3.451   5.336  12.497 -0.2384 -0.3184  0.1044
 8462TIP3    H149581   3.413   5.276  12.433 -0.4690  1.6629 -1.7273
 8462TIP3    H249582   3.497   5.401  12.445  0.2355  0.9600  2.0030
 8463TIP3   OH249583   2.276   5.757  12.712  0.7083  0.1369  0.0111
 8463TIP3    H149584   2.260   5.796  12.798  1.7191 -0.2792  0.4057
 8463TIP3    H249585   2.226   5.811  12.652  0.5486  0.8728  0.7774
 8464TIP3   OH249586   7.599   7.863  11.305  0.2927 -0.3340 -0.4810
 8464TIP3    H149587   7.604   7.773  11.335 -0.5963 -0.2672 -0.0900
 8464TIP3    H249588   7.661   7.868  11.232  0.1261 -1.3342 -0.7038
 8465TIP3   OH249589   8.501   7.774  11.788  0.1380 -0.0428  0.6832
 8465TIP3    H149590   8.474   7.729  11.868 -4.3195  0.3911 -0.2734
 8465TIP3    H249591   8.480   7.866  11.805 -0.5832  0.0938 -0.8258
 8466TIP3   OH249592   5.988   6.637  13.300  0.0674  0.0064  0.6525
 8466TIP3    H149593   6.000   6.725  13.334 -0.2315  0.9204 -1.4608
 8466TIP3    H249594   5.898   6.634  13.269  0.6856 -0.2520 -1.2905
 8467TIP3   OH249595   9.071   8.995  12.528  0.0633  0.0946 -0.3006
 8467TIP3    H149596   9.160   9.026  12.509 -0.1715  1.4886  0.6883
 8467TIP3    H249597   9.081   8.933  12.599  0.4964 -1.8869 -2.0062
 8468TIP3   OH249598   2.618   2.452  11.980  0.2882 -0.5874 -0.0472
 8468TIP3    H149599   2.618   2.529  12.037  1.0852 -0.7704  0.2039
 8468TIP3    H249600   2.582   2.381  12.033  0.0899 -0.5276 -0.0991
 8469TIP3   OH249601   3.628   0.023  12.094  0.3883 -0.6379  0.1739
 8469TIP3    H149602   3.590   0.091  12.149  1.6856 -0.3070  0.6961
 8469TIP3    H249603   3.561   0.006  12.027  0.1801  1.4364 -0.2046
 8470TIP3   OH249604   3.289   7.750  12.348  0.3575  0.0736  0.3440
 8470TIP3    H149605   3.200   7.715  12.342  0.7162 -0.7172 -0.5531
 8470TIP3    H249606   3.345   7.678  12.321  1.2951  0.5180  1.0560
 8471TIP3   OH249607   4.409   8.504  12.260  0.0108 -0.2257 -0.4774
 8471TIP3    H149608   4.335   8.559  12.285 -1.0433 -1.6147 -0.4336
 8471TIP3    H249609   4.434   8.459  12.342  1.4650  0.8392 -0.2956
 8472TIP3   OH249610   0.759   7.437  13.237  0.6691  0.3206  0.7822
 8472TIP3    H149611   0.790   7.359  13.283  0.2078  0.9882  2.2593
 8472TIP3    H249612   0.831   7.500  13.244 -0.8724  1.9376  4.3687
 8473TIP3   OH249613   8.534   7.510  13.278 -0.3298 -0.1929 -0.9476
 8473TIP3    H149614   8.475   7.436  13.291 -0.0088 -0.4665 -1.0391
 8473TIP3    H249615   8.603   7.477  13.220  0.0741  0.0381 -0.6019
 8474TIP3   OH249616   1.675   8.864  12.491  0.3132 -0.5992  0.0512
 8474TIP3    H149617   1.757   8.914  12.482  1.2802 -2.2761 -0.9479
 8474TIP3    H249618   1.654   8.837  12.402 -2.5763  1.5847 -0.0595
 8475TIP3   OH249619   1.513   3.323  12.092  0.5558 -0.3709 -0.3385
 8475TIP3    H149620   1.462   3.402  12.106  0.8566  0.4757 -3.2763
 8475TIP3    H249621   1.453   3.262  12.049  1.2396 -0.3798 -1.3317
 8476TIP3   OH249622   6.732   0.497  12.889 -0.5578 -0.1319  0.5543
 8476TIP3    H149623   6.763   0.588  12.879 -0.9284  0.1701  1.9717
 8476TIP3    H249624   6.640   0.506  12.912 -0.2111 -0.7968  2.3202
 8477TIP3   OH249625   6.770   5.797  12.845  0.0518  0.1556 -0.5938
 8477TIP3    H149626   6.785   5.727  12.781 -0.1664  0.8278 -1.4072
 8477TIP3    H249627   6.731   5.754  12.920  2.8398 -1.1230  0.2451
 8478TIP3   OH249628   4.432   1.149  12.262  0.3529  0.1426  0.4452
 8478TIP3    H149629   4.462   1.059  12.274  1.5941  0.3681 -0.7188
 8478TIP3    H249630   4.510   1.203  12.277  0.3004  0.8329 -1.4901
 8479TIP3   OH249631   5.720   4.728  11.907  0.1551  0.1827 -0.0480
 8479TIP3    H149632   5.637   4.682  11.913  0.5152 -0.7047 -1.5033
 8479TIP3    H249633   5.751   4.734  11.997 -1.1918 -0.0003  0.4454
 8480TIP3   OH249634   5.348   6.896  11.965 -0.2642  0.1889 -0.5914
 8480TIP3    H149635   5.421   6.958  11.961  1.2369 -1.4537 -0.2286
 8480TIP3    H249636   5.377   6.822  11.912 -1.3923 -0.7957  0.1121
 8481TIP3   OH249637   8.853   5.261  12.570  0.0327 -0.7301  0.2747
 8481TIP3    H149638   8.762   5.244  12.545  0.0128  1.9094 -1.9558
 8481TIP3    H249639   8.905   5.209  12.509  0.0392 -0.7562  0.3010
 8482TIP3   OH249640   8.385   6.785  12.234 -0.0307  0.5552 -0.1192
 8482TIP3    H149641   8.379   6.745  12.147  1.3839 -0.6022  0.2749
 8482TIP3    H249642   8.452   6.734  12.279 -1.0436  0.8457  1.8187
 8483TIP3   OH249643   1.053   4.842  13.610  0.2865 -0.5637 -0.2809
 8483TIP3    H149644   1.116   4.906  13.577 -0.8705  1.9492  2.0467
 8483TIP3    H249645   0.972   4.861  13.564 -0.4156  0.6275  1.3818
 8484TIP3   OH249646   8.326   6.892  11.694  0.0514 -0.0719 -0.0974
 8484TIP3    H149647   8.422   6.887  11.695  0.1282  0.8274 -1.0905
 8484TIP3    H249648   8.297   6.801  11.702  0.9221 -0.2024  2.5835
 8485TIP3   OH249649   5.717   1.887  12.075  0.0252  0.3312 -0.0072
 8485TIP3    H149650   5.761   1.961  12.034 -1.5583  0.9360 -0.7003
 8485TIP3    H249651   5.654   1.857  12.010  1.2869 -2.3145 -0.1438
 8486TIP3   OH249652   0.051   7.802  11.788  0.0249 -0.2289  0.3467
 8486TIP3    H149653   0.120   7.862  11.762 -0.1789  0.2345  0.8373
 8486TIP3    H249654   0.096   7.730  11.832  0.1661  0.4275  1.3250
 8487TIP3   OH249655   0.846   8.047  11.924  0.5970 -0.1897  0.3426
 8487TIP3    H149656   0.920   8.059  11.864  0.2114  1.7397  0.1901
 8487TIP3    H249657   0.787   8.119  11.903  0.0625  0.0523  2.4764
 8488TIP3   OH249658   1.244   6.517  12.046 -0.6045 -0.5901 -0.2767
 8488TIP3    H149659   1.252   6.590  12.107  1.3548 -0.4855 -0.5836
 8488TIP3    H249660   1.260   6.439  12.100  1.2472 -0.4903 -0.6061
 8489TIP3   OH249661   8.999   1.489  12.717  0.2358  0.0034  0.3949
 8489TIP3    H149662   8.912   1.527  12.701 -0.6704 -2.0106  0.2862
 8489TIP3    H249663   8.995   1.402  12.677  2.5744  0.1333 -0.2472
 8490TIP3   OH249664   3.609   3.503  11.797  0.1911 -0.1529  0.2194
 8490TIP3    H149665   3.631   3.566  11.865 -0.9171  0.0399  0.4182
 8490TIP3    H249666   3.686   3.447  11.790  1.2231  1.2442 -0.0016
 8491TIP3   OH249667   5.177   5.861  12.246 -0.2856 -0.0416  0.1693
 8491TIP3    H149668   5.166   5.767  12.258 -1.4229  0.1470  0.7976
 8491TIP3    H249669   5.190   5.872  12.152 -2.0250 -0.7017 -0.1907
 8492TIP3   OH249670   0.831   5.230  12.581  0.1357  0.0813 -0.0042
 8492TIP3    H149671   0.785   5.244  12.499  0.5871 -0.2113 -0.3116
 8492TIP3    H249672   0.855   5.137  12.580 -0.0596  0.0246  0.5619
 8493TIP3   OH249673   3.945   1.058  12.332  0.0729 -0.0276 -0.3088
 8493TIP3    H149674   3.890   1.093  12.403 -0.3923 -2.1038  0.4213
 8493TIP3    H249675   3.991   0.984  12.372  1.6273  0.2035 -1.5641
 8494TIP3   OH249676   4.398   7.290  11.866  0.2752 -0.3116  0.6603
 8494TIP3    H149677   4.352   7.373  11.862  0.5083 -0.1712  0.8479
 8494TIP3    H249678   4.491   7.314  11.865  0.4418 -0.6640 -2.1646
 8495TIP3   OH249679   6.128   3.020  11.853  0.6698 -0.3471 -0.3060
 8495TIP3    H149680   6.137   3.071  11.772 -1.1639  2.6536  1.2338
 8495TIP3    H249681   6.045   2.974  11.843  1.7289 -2.2268 -1.1537
 8496TIP3   OH249682   1.831   1.454  11.583  0.2657  0.0471  0.3356
 8496TIP3    H149683   1.821   1.359  11.580 -0.2796 -0.0569  3.2945
 8496TIP3    H249684   1.749   1.488  11.548 -0.1875 -0.6000  0.7624
 8497TIP3   OH249685   8.004   4.192  12.328  0.3522 -0.1173  0.3324
 8497TIP3    H149686   8.090   4.157  12.304  0.0528  0.6527 -2.0391
 8497TIP3    H249687   8.016   4.287  12.328  0.1320 -0.0141  2.7444
 8498TIP3   OH249688   1.794   4.187  12.235 -0.1168  0.1924  0.0560
 8498TIP3    H149689   1.746   4.146  12.164 -1.0282  1.3665 -0.0389
 8498TIP3    H249690   1.785   4.127  12.309  1.1950 -1.2370 -0.8976
 8499TIP3   OH249691   2.516   0.392  12.325 -0.2256  0.6557 -0.4651
 8499TIP3    H149692   2.590   0.346  12.364  1.1715  1.8948 -1.4924
 8499TIP3    H249693   2.533   0.389  12.231 -0.7552  2.1377 -0.6350
 8500TIP3   OH249694   3.217   3.006  12.172  0.2817  0.1081 -0.1320
 8500TIP3    H149695   3.235   3.083  12.118 -0.2783 -0.6974 -1.5254
 8500TIP3    H249696   3.303   2.978  12.204  0.5371  1.0440  0.0322
 8501TIP3   OH249697   0.731   6.648  11.689  0.4409  0.0434  0.0253
 8501TIP3    H149698   0.671   6.574  11.681 -0.4434  0.5049  1.8462
 8501TIP3    H249699   0.782   6.646  11.608 -0.7889 -1.4552 -0.7756
 8502TIP3   OH249700   9.015   2.684  12.841 -0.0241 -0.1896 -0.0348
 8502TIP3    H149701   9.049   2.737  12.913  0.2958 -0.6999  0.1964
 8502TIP3    H249702   8.965   2.614  12.883  1.6229 -1.5254 -0.1952
 8503TIP3   OH249703   7.688   8.621  11.673  0.2332 -0.3481 -0.1731
 8503TIP3    H149704   7.707   8.529  11.657 -2.0238 -1.0759  0.9719
 8503TIP3    H249705   7.744   8.644  11.747 -1.0949 -1.6088  1.2841
 8504TIP3   OH249706   4.814   3.085  12.413 -0.2152  1.0401 -0.4575
 8504TIP3    H149707   4.727   3.059  12.442  0.1678  1.1574  0.8779
 8504TIP3    H249708   4.829   3.169  12.456  0.8700  0.6412 -0.0309
 8505TIP3   OH249709   6.813   8.153  13.145 -0.3957 -0.1816  0.1060
 8505TIP3    H149710   6.842   8.230  13.095 -0.6488  1.5776  2.4371
 8505TIP3    H249711   6.718   8.159  13.147 -0.3874 -0.0859  0.9052
 8506TIP3   OH249712   4.008   4.341  12.176  0.3029  0.2948  0.4349
 8506TIP3    H149713   4.059   4.406  12.127 -0.2635  1.0053  0.7685
 8506TIP3    H249714   3.918   4.356  12.148  0.1654 -0.3791  0.4972
 8507TIP3   OH249715   0.128   7.995  12.843 -0.1561 -0.1396 -0.3073
 8507TIP3    H149716   0.095   8.036  12.923  1.8091  0.9445 -0.0099
 8507TIP3    H249717   0.154   7.907  12.870 -1.1334 -0.4062 -0.1792
 8508TIP3   OH249718   3.789   0.474  13.593 -0.9615  0.3485 -0.0083
 8508TIP3    H149719   3.856   0.535  13.623 -1.5698  1.2889 -0.5023
 8508TIP3    H249720   3.772   0.499  13.503  0.7560 -2.3600 -1.2257
 8509TIP3   OH249721   0.172   1.207  11.935 -0.2023  0.1417  0.0227
 8509TIP3    H149722   0.215   1.121  11.939 -0.7642 -0.3599 -2.6631
 8509TIP3    H249723   0.241   1.269  11.958  1.1615 -0.8605 -1.1392
 8510TIP3   OH249724   8.169   0.506  12.169  0.1844 -0.0609  0.8885
 8510TIP3    H149725   8.200   0.421  12.201  0.0692  0.0293  1.2494
 8510TIP3    H249726   8.091   0.486  12.118  0.5373 -0.2377  0.4192
 8511TIP3   OH249727   6.898   1.850  11.349  0.4244 -0.2184  0.5067
 8511TIP3    H149728   6.988   1.844  11.318  1.2833 -0.4901  2.8295
 8511TIP3    H249729   6.873   1.941  11.334  0.1063 -0.7040 -2.4685
 8512TIP3   OH249730   2.517   7.545  12.049 -0.2902 -0.3170  0.1370
 8512TIP3    H149731   2.579   7.618  12.046  0.4530 -0.9012  0.9394
 8512TIP3    H249732   2.493   7.538  12.141 -1.4867 -0.1621 -0.1514
 8513TIP3   OH249733   0.238   8.018  11.869 -0.2938 -0.4858  0.1096
 8513TIP3    H149734   0.201   8.000  11.956  0.1335  0.4099  0.4861
 8513TIP3    H249735   0.324   8.055  11.887  0.0756 -0.9187 -0.7225
 8514TIP3   OH249736   1.463   3.278  12.365 -0.5001 -0.0638 -1.0302
 8514TIP3    H149737   1.490   3.282  12.274  0.8407  1.7273 -0.5975
 8514TIP3    H249738   1.406   3.354  12.377 -0.9654 -0.4869 -0.4501
 8515TIP3   OH249739   6.803   2.558  13.135  0.2599  0.0600 -0.2748
 8515TIP3    H149740   6.849   2.634  13.099  0.0924  1.1631  1.6868
 8515TIP3    H249741   6.794   2.578  13.229 -1.3725 -1.5745 -0.0266
 8516TIP3   OH249742   6.145   8.622  11.519  0.3607 -0.1144 -0.2557
 8516TIP3    H149743   6.210   8.562  11.557 -0.8416 -0.0901  1.9995
 8516TIP3    H249744   6.096   8.568  11.457  0.8071 -0.8444  0.0138
 8517TIP3   OH249745   0.646   6.899  11.763  0.0407 -0.3483  0.5755
 8517TIP3    H149746   0.663   6.921  11.855 -1.2189 -1.9732  1.2451
 8517TIP3    H249747   0.694   6.818  11.749  0.9207  0.3330 -0.4868
 8518TIP3   OH249748   3.569   6.326  12.735  0.1788 -1.5706 -0.3335
 8518TIP3    H149749   3.644   6.268  12.743  1.4091 -0.0348 -0.3522
 8518TIP3    H249750   3.599   6.410  12.769 -1.3687 -0.7745 -0.8193
 8519TIP3   OH249751   2.440   7.531  12.318 -0.3686 -0.2400 -0.0887
 8519TIP3    H149752   2.498   7.461  12.347  1.4059  0.0200 -2.6885
 8519TIP3    H249753   2.425   7.584  12.396  3.7146  0.2472  0.5625
 8520TIP3   OH249754   9.165   6.391  12.437  0.5070  1.3099  0.4153
 8520TIP3    H149755   9.218   6.312  12.445 -1.9619 -0.3419  1.7287
 8520TIP3    H249756   9.122   6.383  12.351 -1.3814  0.0274  1.4093
 8521TIP3   OH249757   5.387   7.614  12.018 -0.2300 -0.5154 -0.0913
 8521TIP3    H149758   5.364   7.685  12.077  1.2937 -1.0402  1.2003
 8521TIP3    H249759   5.388   7.536  12.074  1.3572 -1.0072 -0.7506
 8522TIP3   OH249760   1.566   6.319  13.031  0.1492  0.0546 -0.1621
 8522TIP3    H149761   1.515   6.295  13.109 -1.7881  0.2381 -1.3009
 8522TIP3    H249762   1.605   6.237  13.002 -1.8771 -0.7433 -0.8481
 8523TIP3   OH249763   1.275   9.213  12.797  0.0716  0.1504 -0.1461
 8523TIP3    H149764   1.326   9.145  12.842 -0.0965 -0.4091 -0.7837
 8523TIP3    H249765   1.264   9.281  12.863  0.1255 -0.4985  0.5563
 8524TIP3   OH249766   1.597   2.718  12.774 -0.5092  0.8137 -0.0660
 8524TIP3    H149767   1.666   2.742  12.712  0.0859  1.6247  0.8785
 8524TIP3    H249768   1.515   2.732  12.725 -0.0343  0.3128 -1.0361
 8525TIP3   OH249769   7.430   9.091  12.213  0.2806  0.1787 -0.1552
 8525TIP3    H149770   7.463   9.007  12.244 -0.7207 -0.0887  0.2199
 8525TIP3    H249771   7.378   9.126  12.286 -1.6039 -0.1827 -1.2556
 8526TIP3   OH249772   7.666   1.193  12.981 -0.1315  0.3372  0.0228
 8526TIP3    H149773   7.642   1.124  13.042  2.1563 -0.8277 -0.2839
 8526TIP3    H249774   7.595   1.195  12.917 -0.7435 -1.0108  0.6388
 8527TIP3   OH249775   7.062   3.722  12.075  0.1215 -0.8072  0.1418
 8527TIP3    H149776   7.148   3.696  12.043 -0.7915 -2.3014 -1.2789
 8527TIP3    H249777   7.033   3.791  12.014  0.7364  0.5361  1.3043
 8528TIP3   OH249778   0.476   9.091  13.147  0.4650 -0.2851 -0.9179
 8528TIP3    H149779   0.459   8.997  13.154 -0.5672  0.0278  1.1467
 8528TIP3    H249780   0.392   9.129  13.123 -0.0274  0.4485  1.7612
 8529TIP3   OH249781   0.427   7.760  13.388 -0.3971 -0.4075  0.4908
 8529TIP3    H149782   0.374   7.704  13.444  1.4997 -1.1971  1.5732
 8529TIP3    H249783   0.444   7.707  13.310  0.3993 -0.9097  0.9942
 8530TIP3   OH249784   5.115   3.493  11.680 -0.3739 -0.1705  0.1021
 8530TIP3    H149785   5.171   3.531  11.613  1.0325 -0.0064  1.3278
 8530TIP3    H249786   5.138   3.400  11.681  2.4715  0.3821  2.8583
 8531TIP3   OH249787   2.454   3.762  12.531 -0.3469  0.3899 -0.0759
 8531TIP3    H149788   2.500   3.715  12.601 -0.0575 -0.1569 -0.6232
 8531TIP3    H249789   2.524   3.805  12.482 -0.2778 -1.2548 -1.5198
 8532TIP3   OH249790   4.870   3.329  12.523 -0.0539 -0.0186 -0.3352
 8532TIP3    H149791   4.929   3.351  12.595  0.5285 -0.4819 -0.6712
 8532TIP3    H249792   4.862   3.411  12.474 -0.2369  0.2262  0.0966
 8533TIP3   OH249793   3.499   6.517  12.309  0.3193 -0.3010 -0.2300
 8533TIP3    H149794   3.499   6.427  12.275  3.1422  0.1479 -1.7197
 8533TIP3    H249795   3.567   6.562  12.257 -0.2827  2.4199  1.1816
 8534TIP3   OH249796   1.798   0.643  11.786 -0.0961  0.6366 -0.1245
 8534TIP3    H149797   1.751   0.560  11.786 -1.9029  1.5931  0.6472
 8534TIP3    H249798   1.876   0.627  11.839 -0.0610 -0.7403 -0.5614
 8535TIP3   OH249799   0.469   6.481  13.015 -0.0131  0.1497  0.8406
 8535TIP3    H149800   0.529   6.521  12.954 -0.1767 -0.8822 -0.0272
 8535TIP3    H249801   0.500   6.391  13.025 -1.2178 -0.3155  0.6080
 8536TIP3   OH249802   2.531   1.374  13.128 -0.4643 -0.5109 -0.3214
 8536TIP3    H149803   2.516   1.459  13.170 -1.1771  0.8622 -3.1080
 8536TIP3    H249804   2.530   1.311  13.200 -0.6585  1.7383  1.7717
 8537TIP3   OH249805   1.802   4.012  12.428 -0.1897  0.5236 -0.3345
 8537TIP3    H149806   1.732   4.053  12.479 -1.5658 -0.3309 -1.4697
 8537TIP3    H249807   1.837   3.944  12.485 -0.5726  0.6695  0.0825
 8538TIP3   OH249808   6.640   0.744  11.448  0.3822 -0.0673  0.2426
 8538TIP3    H149809   6.686   0.825  11.425  0.8554 -0.3527  0.1801
 8538TIP3    H249810   6.550   0.772  11.465  0.5509  0.4788  0.2573
 8539TIP3   OH249811   3.975   5.668  12.248  0.5386  0.0014  0.5854
 8539TIP3    H149812   3.905   5.646  12.188 -0.7611 -0.6771  2.2710
 8539TIP3    H249813   3.940   5.648  12.335  2.1019  1.5061  1.6448
 8540TIP3   OH249814   7.696   2.072  12.245  0.5738 -0.3666 -0.1642
 8540TIP3    H149815   7.676   2.004  12.181 -0.6021 -0.3409  0.1663
 8540TIP3    H249816   7.633   2.142  12.227  0.2661 -0.3354  0.9763
 8541TIP3   OH249817   6.293   2.994  12.744 -0.0696 -0.4071  0.1270
 8541TIP3    H149818   6.232   3.000  12.818 -0.6319  0.8451 -0.3938
 8541TIP3    H249819   6.347   2.918  12.763  1.4342  1.2229  3.0667
 8542TIP3   OH249820   5.439   8.866  12.302 -0.1418  0.0108  0.1855
 8542TIP3    H149821   5.413   8.865  12.210  1.2415 -1.4148 -0.2344
 8542TIP3    H249822   5.427   8.776  12.331  0.7599  0.1419  1.0079
 8543TIP3   OH249823   8.562   3.549  12.305 -0.5430  0.5117 -0.2079
 8543TIP3    H149824   8.609   3.482  12.256 -2.7628 -0.8949 -0.5526
 8543TIP3    H249825   8.518   3.601  12.238 -2.6377 -0.6845  0.1589
 8544TIP3   OH249826   1.347   1.816  11.858 -0.4123 -0.8304 -0.3098
 8544TIP3    H149827   1.383   1.902  11.837 -0.0352 -1.2854 -1.6006
 8544TIP3    H249828   1.258   1.818  11.823 -0.0639 -1.3048 -1.2432
 8545TIP3   OH249829   0.855   6.941  12.273 -0.1557  0.0567 -0.0237
 8545TIP3    H149830   0.856   7.014  12.334  0.8611  0.4082 -0.4353
 8545TIP3    H249831   0.946   6.933  12.244 -0.3585 -1.0316 -0.3845
 8546TIP3   OH249832   3.323   8.039  12.253 -0.2999  0.0640 -0.7677
 8546TIP3    H149833   3.328   7.950  12.287  1.4254  0.4211  0.0800
 8546TIP3    H249834   3.405   8.051  12.206 -0.4616  1.2250 -0.7856
 8547TIP3   OH249835   2.034   8.553  12.853  0.3524  0.6951  0.5274
 8547TIP3    H149836   1.984   8.472  12.863  0.0321  0.7128 -0.7963
 8547TIP3    H249837   2.123   8.530  12.877 -0.1465  0.5279  2.3987
 8548TIP3   OH249838   3.633   4.998  11.623 -0.7259  0.2574  0.2273
 8548TIP3    H149839   3.589   4.944  11.558  0.6747  0.7953 -1.2265
 8548TIP3    H249840   3.704   4.943  11.656 -0.4410  0.5501  0.1085
 8549TIP3   OH249841   9.066   5.135  11.728 -0.1590 -0.0505 -0.9929
 8549TIP3    H149842   9.074   5.216  11.777 -2.5619 -0.6279  0.5616
 8549TIP3    H249843   9.009   5.157  11.654 -1.6920 -0.4512  0.0080
 8550TIP3   OH249844   4.251   3.514  15.895 -0.6874 -0.4414 -0.2588
 8550TIP3    H149845   4.230   3.572  15.821 -0.6284  0.1676  0.1942
 8550TIP3    H249846   4.279   3.573  15.965  1.3305 -1.1257 -0.4152
 8551TIP3   OH249847   6.829   0.314  12.335  0.3623  0.4696  0.0055
 8551TIP3    H149848   6.833   0.385  12.399 -0.5039  0.7017 -0.1802
 8551TIP3    H249849   6.832   0.359  12.250 -1.9202  0.4617 -0.1364
 8552TIP3   OH249850   1.555   3.964  12.638 -0.0587  0.7768 -0.3661
 8552TIP3    H149851   1.632   4.000  12.682  0.1098 -0.7213  0.6639
 8552TIP3    H249852   1.518   4.037  12.590  0.4781  2.2198  1.3004
 8553TIP3   OH249853   4.062   9.115  12.329  0.4845 -0.3345  0.0090
 8553TIP3    H149854   4.016   9.196  12.307  0.3076 -0.3595  0.2843
 8553TIP3    H249855   3.995   9.046  12.321  1.1546 -0.8049 -2.5603
 8554TIP3   OH249856   3.075   5.165  12.005 -0.8425 -0.2404  0.8400
 8554TIP3    H149857   3.075   5.072  12.028 -1.9056 -0.4852 -0.0748
 8554TIP3    H249858   3.040   5.209  12.082 -0.0211 -0.5490  1.4028
 8555TIP3   OH249859   2.208   3.875  13.223 -0.2231 -0.4659  0.5616
 8555TIP3    H149860   2.299   3.859  13.248 -0.3486 -1.7482  0.2333
 8555TIP3    H249861   2.156   3.829  13.289 -0.5703 -2.8057 -1.2048
 8556TIP3   OH249862   2.072   8.154  12.955 -0.6479  0.2882 -0.2460
 8556TIP3    H149863   2.132   8.227  12.967 -1.5205  0.8032  1.2882
 8556TIP3    H249864   2.043   8.160  12.864 -1.0517  2.1318 -0.0209
 8557TIP3   OH249865   7.174   2.455  12.524  0.7282 -0.6830  0.3179
 8557TIP3    H149866   7.179   2.539  12.479 -2.5992  0.4974  1.8540
 8557TIP3    H249867   7.246   2.457  12.587  1.8946  0.0859 -0.9772
 8558TIP3   OH249868   4.884   5.984  11.983  0.4675 -0.7493 -0.0959
 8558TIP3    H149869   4.816   6.028  11.931 -0.3254 -0.9534  0.7462
 8558TIP3    H249870   4.838   5.915  12.031  0.8806  0.3555  2.0168
 8559TIP3   OH249871   2.324   2.067  13.729  0.5368 -0.0017 -0.1306
 8559TIP3    H149872   2.241   2.110  13.707  1.0324 -0.1760 -2.7032
 8559TIP3    H249873   2.380   2.137  13.761 -0.4357  0.1953  1.2175
 8560TIP3   OH249874   2.140   3.246  12.336  0.2525  0.4159  0.4834
 8560TIP3    H149875   2.156   3.224  12.244  0.6591 -0.0714  0.6619
 8560TIP3    H249876   2.168   3.168  12.384  1.7281  1.3084  1.1490
 8561TIP3   OH249877   6.935   2.285  12.503 -0.0909  0.5124 -0.3086
 8561TIP3    H149878   6.859   2.329  12.541 -0.4512 -0.5275  0.2185
 8561TIP3    H249879   7.007   2.347  12.514 -1.0339  1.9466 -1.7373
 8562TIP3   OH249880   0.857   1.138  16.724  0.1078 -0.4411  0.1723
 8562TIP3    H149881   0.868   1.215  16.779 -2.7255  1.4629 -1.6924
 8562TIP3    H249882   0.800   1.080  16.774 -1.3678  0.7007 -0.1080
 8563TIP3   OH249883   2.878   3.391  12.513  0.1755 -0.3711  0.1561
 8563TIP3    H149884   2.928   3.343  12.579  0.3726 -0.0773  0.2202
 8563TIP3    H249885   2.904   3.352  12.430 -0.6496 -1.2642  0.3082
 8564TIP3   OH249886   8.931   7.813  13.088 -0.0333  0.1719 -0.0304
 8564TIP3    H149887   8.868   7.868  13.134 -1.2776 -1.5022  0.4038
 8564TIP3    H249888   8.949   7.859  13.007 -0.8036  1.3389  0.4260
 8565TIP3   OH249889   4.707   3.913  12.056 -0.2658  0.3625 -0.0718
 8565TIP3    H149890   4.794   3.947  12.036  0.6577 -1.7982 -0.0553
 8565TIP3    H249891   4.710   3.821  12.028 -2.1786 -0.0765  0.9611
 8566TIP3   OH249892   6.959   3.884  11.844 -0.2979 -0.8250 -0.8208
 8566TIP3    H149893   6.960   3.966  11.795  0.6334 -0.7505 -0.6923
 8566TIP3    H249894   6.942   3.817  11.778  0.6773 -0.6958 -1.2261
 8567TIP3   OH249895   6.755   8.370  12.993 -0.6643  0.0719 -0.4588
 8567TIP3    H149896   6.748   8.439  13.059  1.7014 -0.8814  0.9039
 8567TIP3    H249897   6.794   8.414  12.917  1.2551  0.2205  0.5514
 8568TIP3   OH249898   3.841   2.750  13.118  0.4302  0.1221 -0.1020
 8568TIP3    H149899   3.846   2.819  13.184  0.5088 -0.5203  0.5815
 8568TIP3    H249900   3.931   2.715  13.113  0.2035 -0.5235  0.2153
 8569TIP3   OH249901   0.716   0.404  12.985  0.1554  0.0675  0.4387
 8569TIP3    H149902   0.718   0.412  13.080 -0.0540 -1.0099  0.5485
 8569TIP3    H249903   0.657   0.330  12.969  0.1546  0.2721 -0.5285
 8570TIP3   OH249904   2.524   3.100  11.281  0.1222 -1.0230 -0.2820
 8570TIP3    H149905   2.497   3.053  11.202  1.1631 -0.5064 -0.9779
 8570TIP3    H249906   2.607   3.060  11.306  0.8438  0.1464 -0.6763
 8571TIP3   OH249907   5.348   5.263  13.447 -0.0908  0.8244  0.6298
 8571TIP3    H149908   5.429   5.287  13.491 -0.4234  0.1730  1.6572
 8571TIP3    H249909   5.299   5.213  13.513 -0.1320 -1.1950 -0.8246
 8572TIP3   OH249910   7.337   3.021  12.460 -0.7794  0.2250 -0.3666
 8572TIP3    H149911   7.396   3.073  12.406 -1.5599 -0.5955 -2.0749
 8572TIP3    H249912   7.250   3.035  12.422 -1.1447 -1.5313 -0.2542
 8573TIP3   OH249913   1.001   1.074  11.995 -0.1938 -0.0222  0.1117
 8573TIP3    H149914   1.022   1.044  11.906 -0.7051 -0.0893  0.0134
 8573TIP3    H249915   1.085   1.103  12.030  0.1120 -0.4955 -0.2041
 8574TIP3   OH249916   3.428   3.938  12.110  0.0224  0.3909  0.5154
 8574TIP3    H149917   3.478   3.925  12.030 -0.0671  1.3330  0.2963
 8574TIP3    H249918   3.341   3.966  12.081 -0.8716 -1.7605  0.8698
 8575TIP3   OH249919   7.827   2.537  12.947 -0.5585 -0.0679 -0.1557
 8575TIP3    H149920   7.853   2.447  12.962 -0.0035  0.2404  0.7966
 8575TIP3    H249921   7.737   2.541  12.980 -0.6575 -0.3226 -0.3927
 8576TIP3   OH249922   4.915   8.091  12.199  0.1960 -0.1006 -0.1779
 8576TIP3    H149923   4.861   8.019  12.231  0.1024 -0.5247 -1.2632
 8576TIP3    H249924   4.852   8.160  12.176  0.2994  0.4816  1.1406
 8577TIP3   OH249925   8.356   1.892  11.717 -0.1310  0.0670  0.0487
 8577TIP3    H149926   8.442   1.919  11.751  0.0750 -0.7492  0.1985
 8577TIP3    H249927   8.304   1.876  11.795 -0.8133  1.6985 -0.0294
 8578TIP3   OH249928   7.786   5.060  12.782  0.7429 -0.0264 -0.3823
 8578TIP3    H149929   7.790   4.966  12.765  0.6789  0.3087 -2.4275
 8578TIP3    H249930   7.693   5.077  12.797  0.7474 -0.2657 -0.0546
 8579TIP3   OH249931   3.065   7.577  12.292 -0.1517  0.1092  0.0618
 8579TIP3    H149932   3.087   7.535  12.375 -0.5896 -0.0618  0.0931
 8579TIP3    H249933   3.049   7.505  12.232 -0.2115  0.2311 -0.0689
 8580TIP3   OH249934   4.963   3.760  12.900  0.4156  0.0396 -0.1054
 8580TIP3    H149935   4.956   3.742  12.993 -3.1848 -1.6158 -0.4990
 8580TIP3    H249936   4.910   3.839  12.886 -0.6022 -0.7356 -0.8793
 8581TIP3   OH249937   0.915   8.475  12.750  0.0869 -0.1305 -0.2049
 8581TIP3    H149938   0.960   8.434  12.676  1.1065  0.8759 -0.1661
 8581TIP3    H249939   0.879   8.401  12.799  4.4993 -1.3874  1.6405
 8582TIP3   OH249940   5.483   3.224  11.956  0.9232 -0.2765  0.5273
 8582TIP3    H149941   5.524   3.257  12.036 -0.8963  0.4325  1.2173
 8582TIP3    H249942   5.400   3.271  11.950 -0.3061 -2.3998 -0.2126
 8583TIP3   OH249943   0.285   6.822  12.316  0.1718  0.1229  0.0602
 8583TIP3    H149944   0.233   6.756  12.362  1.3542 -0.3979  0.7115
 8583TIP3    H249945   0.227   6.897  12.306 -0.6376 -0.3777  0.9263
 8584TIP3   OH249946   3.308   0.362  13.338  0.6196  0.5705  0.7178
 8584TIP3    H149947   3.213   0.360  13.344  0.6348 -1.9027  1.1242
 8584TIP3    H249948   3.335   0.429  13.400 -0.8388  1.0434  0.8738
 8585TIP3   OH249949   3.796   8.180  13.428  0.1973  0.1622 -0.3270
 8585TIP3    H149950   3.855   8.126  13.375  0.5338  0.7655 -0.5883
 8585TIP3    H249951   3.774   8.125  13.503 -0.0956 -0.6203 -0.9684
 8586TIP3   OH249952   4.244   1.469  11.949  0.1514 -0.0847  0.0159
 8586TIP3    H149953   4.308   1.436  11.886  1.1201  4.0658 -1.5049
 8586TIP3    H249954   4.252   1.411  12.025  1.1800 -3.4148 -2.4363
 8587TIP3   OH249955   5.392   1.945  11.531 -0.0077  0.1454  0.9048
 8587TIP3    H149956   5.328   1.972  11.597 -1.3674  0.1801 -0.3898
 8587TIP3    H249957   5.356   1.864  11.495  0.2572  0.5898 -0.3914
 8588TIP3   OH249958   4.320   4.741  12.940 -0.2179 -0.0887 -0.4858
 8588TIP3    H149959   4.345   4.785  12.859 -0.9469 -1.7726 -1.6836
 8588TIP3    H249960   4.313   4.812  13.004 -2.2590  1.7246 -2.5088
 8589TIP3   OH249961   3.271   5.834  13.023 -0.2615  0.3557 -0.4425
 8589TIP3    H149962   3.358   5.873  13.034 -0.1858 -0.1424  1.0631
 8589TIP3    H249963   3.215   5.883  13.083 -1.4079  1.6596 -2.4735
 8590TIP3   OH249964   9.079   2.158  12.519  0.0503  0.4519 -0.2045
 8590TIP3    H149965   9.013   2.106  12.564 -0.1355  0.0483 -0.9382
 8590TIP3    H249966   9.070   2.246  12.558  1.3306 -0.3399  2.0612
 8591TIP3   OH249967   0.505   0.693  12.616 -0.0667 -0.4242  0.0940
 8591TIP3    H149968   0.494   0.599  12.623 -0.4823 -0.4782 -1.0421
 8591TIP3    H249969   0.588   0.704  12.568 -0.3897 -0.2430 -0.4388
 8592TIP3   OH249970   1.133   7.008  12.244  0.2180  0.5760 -0.4254
 8592TIP3    H149971   1.191   7.034  12.315  0.9290 -0.4816 -0.5910
 8592TIP3    H249972   1.173   7.045  12.165  0.5178  0.0833 -0.5064
 8593TIP3   OH249973   6.533   7.767  12.317  0.3836  0.2291  0.4156
 8593TIP3    H149974   6.485   7.828  12.261 -0.8525  0.7494  1.9696
 8593TIP3    H249975   6.552   7.817  12.397  0.3782 -1.0551  1.2507
 8594TIP3   OH249976   2.512   4.307  12.497 -0.1994  0.8297 -0.0277
 8594TIP3    H149977   2.493   4.400  12.481  1.5526  1.1239 -0.6212
 8594TIP3    H249978   2.545   4.274  12.413 -0.1262 -0.1402  0.3690
 8595TIP3   OH249979   1.290   5.014  13.514  0.2345  0.4542  0.4991
 8595TIP3    H149980   1.251   5.084  13.462 -0.2609  1.7534  2.4872
 8595TIP3    H249981   1.369   5.054  13.552  1.0643 -0.7317  0.0815
 8596TIP3   OH249982   4.014   1.894  12.623 -0.2997 -0.1771 -0.0056
 8596TIP3    H149983   4.073   1.904  12.548 -0.3595  2.5490  0.2272
 8596TIP3    H249984   3.983   1.804  12.616  1.3748 -0.6976 -1.9927
 8597TIP3   OH249985   3.660   6.167  13.311 -0.3324 -0.2774 -0.1759
 8597TIP3    H149986   3.638   6.142  13.221 -0.0196  1.1924 -0.6739
 8597TIP3    H249987   3.750   6.137  13.324 -0.0431  0.3495 -0.6899
 8598TIP3   OH249988   6.549   3.570  13.058 -0.1812  0.5809 -0.4474
 8598TIP3    H149989   6.522   3.595  13.146  0.1718 -0.5203  0.0037
 8598TIP3    H249990   6.594   3.647  13.024 -2.0356  1.7222 -0.4496
 8599TIP3   OH249991   6.070   6.824  11.792  0.6834 -0.0114  0.1846
 8599TIP3    H149992   6.060   6.863  11.879  2.9490  0.2826  0.3766
 8599TIP3    H249993   6.021   6.742  11.797  0.5639  0.1158  1.6794
 8600TIP3   OH249994   3.258   4.560  13.136  0.0930 -0.2121 -0.5303
 8600TIP3    H149995   3.199   4.484  13.128  1.5830 -1.5239  0.3719
 8600TIP3    H249996   3.312   4.555  13.057 -0.2967  0.3758 -0.8395
 8601TIP3   OH249997   0.421   2.273  13.431  0.4872  0.2479 -0.1323
 8601TIP3    H149998   0.355   2.333  13.467 -1.2060 -0.7096 -1.4911
 8601TIP3    H249999   0.503   2.322  13.436 -0.4672  1.8274  0.8084
 8602TIP3   OH250000   8.688   2.601  13.595 -0.5553 -0.0143  0.4974
 8602TIP3    H150001   8.764   2.543  13.588  0.1051  0.8172  0.5565
 8602TIP3    H250002   8.625   2.552  13.648 -0.5449 -1.1965 -0.5391
 8603TIP3   OH250003   7.287   2.568  13.077  0.1319 -0.1670  0.4304
 8603TIP3    H150004   7.236   2.508  13.131 -0.4426 -0.1085 -0.0309
 8603TIP3    H250005   7.244   2.653  13.088  1.0979  0.2230  1.2807
 8604TIP3   OH250006   4.266   6.801  13.663 -0.6331  0.0168  0.1414
 8604TIP3    H150007   4.173   6.803  13.688 -0.6792 -1.8333  0.3206
 8604TIP3    H250008   4.293   6.711  13.684  0.6959 -0.0533 -1.7102
 8605TIP3   OH250009   1.272   0.155  12.278  0.0066 -0.2303 -0.7817
 8605TIP3    H150010   1.203   0.211  12.244  0.2093  1.4159  1.3232
 8605TIP3    H250011   1.228   0.097  12.340  0.4206  0.6070  0.3270
 8606TIP3   OH250012   8.093   4.981  12.492  0.5124 -0.9803  0.4966
 8606TIP3    H150013   8.023   5.045  12.485  1.4471 -0.0612 -0.9176
 8606TIP3    H250014   8.083   4.944  12.579 -0.2615  0.8531  1.2364
 8607TIP3   OH250015   2.483   2.931  11.850 -0.4689 -0.0214  0.2489
 8607TIP3    H150016   2.419   2.862  11.867 -0.2747 -0.8840 -2.1430
 8607TIP3    H250017   2.529   2.903  11.771  1.1776  1.7823  0.4717
 8608TIP3   OH250018   6.388   0.157  11.574 -0.1311  0.3823 -0.4591
 8608TIP3    H150019   6.422   0.186  11.658  0.6569  1.5447 -1.1512
 8608TIP3    H250020   6.352   0.070  11.591  1.4937 -0.1042  0.7240
 8609TIP3   OH250021   7.523   8.123  13.239  0.7998 -0.1938 -0.3768
 8609TIP3    H150022   7.551   8.092  13.325  1.0170  1.1859  0.0713
 8609TIP3    H250023   7.443   8.074  13.220 -0.0236  0.4667  1.2429
 8610TIP3   OH250024   3.975   2.878  11.563 -0.4149  0.0323 -0.2314
 8610TIP3    H150025   3.993   2.914  11.650 -0.2803 -0.1566 -0.1794
 8610TIP3    H250026   3.920   2.943  11.520 -0.5136  0.1063  0.0104
 8611TIP3   OH250027   4.873   1.609  13.041  0.0372 -0.0535 -0.4962
 8611TIP3    H150028   4.897   1.518  13.057  0.5154 -0.1305 -1.5893
 8611TIP3    H250029   4.805   1.604  12.974 -1.4576  0.2913  0.9360
 8612TIP3   OH250030   5.362   8.617  13.220  0.1318 -0.8780 -0.0038
 8612TIP3    H150031   5.302   8.564  13.273  1.4639 -0.1412  2.3875
 8612TIP3    H250032   5.331   8.606  13.130 -1.7980 -2.8023  0.8183
 8613TIP3   OH250033   2.254   2.115  11.303 -0.9584 -0.1410 -0.0504
 8613TIP3    H150034   2.226   2.200  11.268 -0.5471  0.7062  1.6261
 8613TIP3    H250035   2.173   2.074  11.333 -0.8693  0.8372  1.6161
 8614TIP3   OH250036   0.767   1.383  11.619 -0.7285  0.2250  0.2816
 8614TIP3    H150037   0.748   1.474  11.640  0.5259  0.5558  0.0634
 8614TIP3    H250038   0.695   1.356  11.562 -1.7470  0.6957  1.3180
 8615TIP3   OH250039   8.810   3.863  12.406 -0.2162  0.3537  0.5897
 8615TIP3    H150040   8.821   3.823  12.491 -0.5159  0.6777  0.7873
 8615TIP3    H250041   8.857   3.806  12.345 -0.0206  0.1125  0.9672
 8616TIP3   OH250042   6.880   3.459  11.858  0.7059 -0.3851  0.2390
 8616TIP3    H150043   6.919   3.408  11.788  0.1622 -1.7088  0.8651
 8616TIP3    H250044   6.942   3.452  11.931  0.4415 -0.4871  0.4567
 8617TIP3   OH250045   2.651   6.837  12.665  0.2259  0.4111 -0.4057
 8617TIP3    H150046   2.735   6.882  12.672  1.1755 -1.2501 -0.5478
 8617TIP3    H250047   2.611   6.845  12.752  1.3111 -0.1973  0.1722
 8618TIP3   OH250048   4.301   4.153  12.203 -0.3931  0.0536  0.6119
 8618TIP3    H150049   4.293   4.062  12.232  0.9515 -0.7114 -1.1622
 8618TIP3    H250050   4.273   4.152  12.111  2.0050  0.8500 -0.2175
 8619TIP3   OH250051   2.016   6.691  13.767 -0.2698 -0.0221 -0.0463
 8619TIP3    H150052   2.088   6.754  13.766  0.3095 -0.5449 -3.3004
 8619TIP3    H250053   1.938   6.745  13.778  0.3088  1.1600 -1.3734
 8620TIP3   OH250054   6.167   1.652  12.354 -0.0070 -0.4171  0.3579
 8620TIP3    H150055   6.094   1.672  12.296  0.0096 -1.8236 -0.1902
 8620TIP3    H250056   6.188   1.735  12.397 -2.6124 -0.2049  1.3720
 8621TIP3   OH250057   0.918   7.882  13.245 -0.5391 -0.5962 -0.0753
 8621TIP3    H150058   0.838   7.878  13.297  0.6031 -0.0805  1.7885
 8621TIP3    H250059   0.989   7.874  13.308  0.9573  1.5580 -1.3367
 8622TIP3   OH250060   8.064   2.050  12.619 -0.1363 -0.0090  0.3923
 8622TIP3    H150061   8.124   2.060  12.545 -1.6863  0.8332 -0.7972
 8622TIP3    H250062   8.008   2.128  12.617 -2.4839 -1.5858  0.3170
 8623TIP3   OH250063   8.914   8.155  11.931  0.8077  0.1405  0.1038
 8623TIP3    H150064   8.930   8.242  11.895 -1.1386 -0.0530 -1.3961
 8623TIP3    H250065   8.994   8.106  11.912  1.9769  1.5913  1.0668
 8624TIP3   OH250066   7.554   7.836  11.726  0.3781 -0.0866  0.2306
 8624TIP3    H150067   7.538   7.803  11.638 -0.4306 -1.2658  0.7800
 8624TIP3    H250068   7.631   7.787  11.756 -1.9222 -3.1105  1.7441
 8625TIP3   OH250069   2.363   1.194  13.035  0.5368 -0.6986 -0.4506
 8625TIP3    H150070   2.346   1.192  13.129 -0.8929  0.1207 -0.6504
 8625TIP3    H250071   2.406   1.279  13.020  1.2435 -1.0542 -0.4791
 8626TIP3   OH250072   3.747   2.174  12.881  0.3825 -0.2708 -0.1272
 8626TIP3    H150073   3.825   2.225  12.905  0.4561  0.4281 -1.7564
 8626TIP3    H250074   3.754   2.162  12.787 -0.9778 -1.0837 -0.1501
 8627TIP3   OH250075   0.073   4.257  12.344  0.2317 -0.0510 -0.2085
 8627TIP3    H150076   0.026   4.316  12.403 -0.2763 -0.4536 -0.2043
 8627TIP3    H250077   0.070   4.172  12.387  0.0182 -0.3075 -0.7257
 8628TIP3   OH250078   8.697   2.072  11.395 -0.0080 -0.4709  0.1688
 8628TIP3    H150079   8.703   2.159  11.435 -3.1013  0.7464 -1.6168
 8628TIP3    H250080   8.605   2.047  11.407  0.2865 -2.5020 -1.2828
 8629TIP3   OH250081   7.275   3.129  11.763 -0.1483  0.1148 -0.0306
 8629TIP3    H150082   7.201   3.118  11.822 -0.6300  0.7532 -0.5021
 8629TIP3    H250083   7.245   3.094  11.680  0.6247 -1.0315  0.1535
 8630TIP3   OH250084   8.415   2.828  12.748  0.4230 -0.0430  0.8748
 8630TIP3    H150085   8.368   2.911  12.751 -1.9121 -1.2968  1.0917
 8630TIP3    H250086   8.396   2.791  12.662  2.8489  0.3376  0.0859
 8631TIP3   OH250087   0.094   2.233  13.518  0.3964 -0.3802 -0.2413
 8631TIP3    H150088   0.007   2.230  13.558  0.8107  0.1786  0.7395
 8631TIP3    H250089   0.097   2.316  13.472  0.6688 -0.0346  0.3786
 8632TIP3   OH250090   6.414   5.605  12.599 -0.0969 -0.4982 -0.6716
 8632TIP3    H150091   6.364   5.665  12.654 -1.2607 -1.2744 -0.8422
 8632TIP3    H250092   6.502   5.643  12.594 -0.7161  0.9941 -0.5085
 8633TIP3   OH250093   6.823   5.759  12.437  0.1250  0.1293  0.3836
 8633TIP3    H150094   6.746   5.809  12.462 -0.4878  0.7413 -2.3983
 8633TIP3    H250095   6.838   5.699  12.510 -2.6769  0.3211  1.2157
 8634TIP3   OH250096   8.014   4.087  12.606  0.2095  0.1606  1.0401
 8634TIP3    H150097   7.971   4.127  12.530  1.2127  1.7926  1.2874
 8634TIP3    H250098   8.011   3.993  12.588  2.0615  0.5432 -1.9628
 8635TIP3   OH250099   4.819   4.986  12.819 -0.0962  0.0398  0.1509
 8635TIP3    H150100   4.793   5.048  12.887 -0.2275  0.1922 -0.0362
 8635TIP3    H250101   4.859   5.040  12.751 -0.5242 -0.0347 -0.1668
 8636TIP3   OH250102   8.126   2.122  12.080 -0.2224 -0.2608 -0.6867
 8636TIP3    H150103   8.165   2.202  12.115 -1.1652  0.3403 -0.9465
 8636TIP3    H250104   8.122   2.062  12.154  1.7959 -0.6031 -0.8143
 8637TIP3   OH250105   1.381   5.357  13.207 -0.4771  0.0552  0.2827
 8637TIP3    H150106   1.432   5.338  13.286 -0.3352  0.2610  0.2428
 8637TIP3    H250107   1.304   5.301  13.213  0.4706 -1.3881 -0.3844
 8638TIP3   OH250108   4.379   8.651  11.882 -0.5290  0.1051  0.0549
 8638TIP3    H150109   4.422   8.624  11.801  0.2566  1.9293 -0.1852
 8638TIP3    H250110   4.363   8.569  11.929 -1.8298 -1.1044 -2.3104
 8639TIP3   OH250111   8.914   0.770  11.997 -0.1450  0.6706 -0.6851
 8639TIP3    H150112   8.985   0.779  11.933 -0.8529  1.2101 -1.4251
 8639TIP3    H250113   8.957   0.775  12.082  0.6281  1.6826 -1.1210
 8640TIP3   OH250114   8.655   0.400  13.106 -0.0866  0.3010 -0.1258
 8640TIP3    H150115   8.728   0.339  13.103  0.1617  0.5880 -3.2282
 8640TIP3    H250116   8.600   0.374  13.031 -2.2082  1.2423  1.0271
 8641TIP3   OH250117   7.018   4.735  12.412 -0.0262  0.2423 -0.2644
 8641TIP3    H150118   6.973   4.797  12.354  1.4560  0.2741 -1.4513
 8641TIP3    H250119   7.111   4.757  12.403  0.3200 -0.2581  1.5745
 8642TIP3   OH250120   1.516   3.431  12.727 -0.0137  0.0024 -0.1703
 8642TIP3    H150121   1.595   3.396  12.685 -0.1464 -1.3988  0.6814
 8642TIP3    H250122   1.447   3.419  12.661  0.6556  2.3029 -1.3638
 8643TIP3   OH250123   0.170   4.791  12.160  0.1627 -0.2955 -0.0914
 8643TIP3    H150124   0.223   4.806  12.082  0.5336  1.2627  0.4434
 8643TIP3    H250125   0.086   4.833  12.140 -0.3606 -1.4067 -0.3181
 8644TIP3   OH250126   5.841   6.205  11.729 -0.1248 -0.2896 -0.2501
 8644TIP3    H150127   5.932   6.175  11.726 -0.0667 -0.1026 -0.4195
 8644TIP3    H250128   5.792   6.131  11.764 -0.0613 -0.7876 -1.1830
 8645TIP3   OH250129   1.952   3.561  12.804 -0.0818 -0.3821  0.3755
 8645TIP3    H150130   1.903   3.588  12.882 -2.7279 -0.1003 -1.2595
 8645TIP3    H250131   1.950   3.465  12.806 -0.2530 -0.3752  0.5593
 8646TIP3   OH250132   9.206   4.564  12.850  0.3837 -0.4080 -0.3597
 8646TIP3    H150133   9.246   4.645  12.819  0.6945 -0.6507 -0.5942
 8646TIP3    H250134   9.180   4.583  12.940  0.5497 -0.0792 -0.3802
 8647TIP3   OH250135   8.501   4.042  11.936 -0.1743  0.1925  0.3833
 8647TIP3    H150136   8.454   4.125  11.948 -1.5832 -0.6977  1.3527
 8647TIP3    H250137   8.432   3.977  11.924  0.8220 -1.1235  1.5036
 8648TIP3   OH250138   4.911   0.595  11.830 -0.4170 -0.2003 -0.0879
 8648TIP3    H150139   4.952   0.547  11.902 -0.1082 -0.8794 -0.7013
 8648TIP3    H250140   4.847   0.651  11.872 -1.6190 -1.9798  0.5756
 8649TIP3   OH250141   4.873   5.697  12.088 -0.1954  0.1657 -0.1365
 8649TIP3    H150142   4.837   5.700  12.000  0.9187 -0.8328 -0.6413
 8649TIP3    H250143   4.866   5.606  12.115 -1.3032  0.5936  1.1689
 8650TIP3   OH250144   6.223   7.295  12.277  0.0977  0.5173 -0.0915
 8650TIP3    H150145   6.177   7.259  12.201 -1.3184 -1.1677  1.4670
 8650TIP3    H250146   6.196   7.387  12.280  0.7462  0.8251 -1.9648
 8651TIP3   OH250147   5.014   0.773  11.638 -0.8219 -0.4761 -0.3370
 8651TIP3    H150148   4.985   0.717  11.711 -0.7492  2.1722  1.8677
 8651TIP3    H250149   4.953   0.846  11.638  1.7704  1.8607  0.0477
 8652TIP3   OH250150   7.871   6.812  11.483 -0.0753 -0.2223 -0.3183
 8652TIP3    H150151   7.891   6.874  11.413  1.0401  0.1939  0.3468
 8652TIP3    H250152   7.934   6.831  11.552 -0.3357 -1.4572  0.3062
 8653TIP3   OH250153   0.606   4.379  11.626  0.7725 -0.5467 -0.5707
 8653TIP3    H150154   0.686   4.355  11.671  1.9662  0.4497 -2.0427
 8653TIP3    H250155   0.602   4.475  11.635 -1.2267 -0.7001  0.9712
 8654TIP3   OH250156   0.369   1.352  12.044 -0.0763  0.0411  0.0459
 8654TIP3    H150157   0.448   1.298  12.057  0.0270  0.2607  0.3277
 8654TIP3    H250158   0.402   1.433  12.005 -0.4449 -0.8690 -2.2983
 8655TIP3   OH250159   2.422   6.362  11.874  0.3739 -0.2253  0.1368
 8655TIP3    H150160   2.490   6.390  11.813  0.8492  0.3386  0.9098
 8655TIP3    H250161   2.392   6.278  11.840  0.3864  0.2235 -1.0655
 8656TIP3   OH250162   2.217   0.782  12.418 -0.2293 -0.4964  0.4002
 8656TIP3    H150163   2.216   0.812  12.509 -0.1506 -1.8377  0.8564
 8656TIP3    H250164   2.185   0.692  12.421  0.7219 -0.9129 -0.7620
 8657TIP3   OH250165   3.709   7.945  13.266  0.5267 -0.0982 -0.1194
 8657TIP3    H150166   3.697   7.930  13.172  0.3190 -1.0404  0.0501
 8657TIP3    H250167   3.803   7.955  13.277  0.4844  0.9403 -0.5461
 8658TIP3   OH250168   0.056   5.552  12.977 -0.4638 -0.0608 -0.3464
 8658TIP3    H150169   0.105   5.624  13.017 -1.2620  0.4917 -0.3288
 8658TIP3    H250170   0.121   5.499  12.932  0.4582 -0.5811  1.4911
 8659TIP3   OH250171   8.020   2.606  12.273  0.2971  1.2820 -0.2319
 8659TIP3    H150172   7.924   2.612  12.271  0.2797  1.0109 -0.2820
 8659TIP3    H250173   8.048   2.687  12.314 -0.0930  0.2339  2.3118
 8660TIP3   OH250174   4.725   8.492  13.148  0.2952  0.3690  0.3385
 8660TIP3    H150175   4.648   8.528  13.105  1.8116  0.9790 -2.0543
 8660TIP3    H250176   4.788   8.564  13.150  2.1174 -1.0590 -1.2983
 8661TIP3   OH250177   0.559   1.390  12.526 -0.2334  0.0607 -0.4900
 8661TIP3    H150178   0.486   1.376  12.466 -1.3539  0.5371  0.7094
 8661TIP3    H250179   0.588   1.302  12.549 -0.4318 -0.1339 -0.9631
 8662TIP3   OH250180   4.535   8.761  12.351 -0.0522 -0.0058  0.1935
 8662TIP3    H150181   4.605   8.760  12.286 -0.1746  1.2835 -0.0002
 8662TIP3    H250182   4.567   8.707  12.423  1.2290  0.7134  0.1847
 8663TIP3   OH250183   2.207   8.138  12.480  0.2174 -0.2728 -0.1624
 8663TIP3    H150184   2.172   8.056  12.514 -0.6800 -0.0775 -0.5904
 8663TIP3    H250185   2.265   8.170  12.549  1.0518 -1.5609 -0.2437
 8664TIP3   OH250186   3.332   3.028  13.340  0.4261  0.3611 -0.0803
 8664TIP3    H150187   3.337   2.933  13.348  1.6179  0.5148  1.5024
 8664TIP3    H250188   3.241   3.046  13.317  0.3094 -1.1756 -0.9206
 8665TIP3   OH250189   2.239   4.965  11.801  0.0517 -0.4779  0.6596
 8665TIP3    H150190   2.220   4.872  11.784 -1.9538 -0.3658  1.9946
 8665TIP3    H250191   2.154   5.003  11.822  0.3281  2.3264 -2.4849
 8666TIP3   OH250192   6.943   2.424  11.293  0.7576 -0.3921  0.1440
 8666TIP3    H150193   6.861   2.473  11.301  0.6837 -0.7586  2.1597
 8666TIP3    H250194   7.011   2.489  11.312  0.8690 -0.3270 -0.4736
 8667TIP3   OH250195   2.713   6.432  12.728 -0.6119  0.0495 -0.0797
 8667TIP3    H150196   2.625   6.467  12.739 -0.5292 -0.1713  1.4886
 8667TIP3    H250197   2.770   6.509  12.730 -0.6116  0.0255  1.0166
 8668TIP3   OH250198   7.682   2.005  11.807 -0.0928 -0.6137 -0.0662
 8668TIP3    H150199   7.683   2.095  11.776  1.0208 -0.6887 -0.2788
 8668TIP3    H250200   7.591   1.977  11.796 -0.3478  0.3317 -0.4369
 8669TIP3   OH250201   4.391   5.925  13.106  0.7737  0.2446  0.8654
 8669TIP3    H150202   4.426   5.980  13.036 -0.5818  1.7248  1.2620
 8669TIP3    H250203   4.467   5.904  13.161  1.7806 -0.6011 -0.7863
 8670TIP3   OH250204   7.873   8.621  11.902  0.4357  0.0595  0.3675
 8670TIP3    H150205   7.922   8.704  11.898 -0.3247  0.5164  0.2968
 8670TIP3    H250206   7.810   8.634  11.972  0.5683 -0.6165  0.6203
 8671TIP3   OH250207   6.484   8.056  11.689 -0.4572  0.6739 -0.1772
 8671TIP3    H150208   6.502   8.110  11.766  0.0956  0.7379 -0.3503
 8671TIP3    H250209   6.397   8.018  11.706 -0.3386  0.6902  0.4722
 8672TIP3   OH250210   0.223   7.419  12.756  0.2865 -0.0998  0.2979
 8672TIP3    H150211   0.166   7.343  12.747  1.7088 -1.3786  1.5617
 8672TIP3    H250212   0.300   7.387  12.803  1.0995  2.0492  0.5833
 8673TIP3   OH250213   0.649   4.038  12.467  0.1982 -0.2832  0.5595
 8673TIP3    H150214   0.721   4.051  12.529  1.3497  2.8267 -1.1922
 8673TIP3    H250215   0.610   4.125  12.459 -0.9514 -0.9494 -1.8162
 8674TIP3   OH250216   0.332   2.508  12.007 -0.6874 -1.0003  1.3247
 8674TIP3    H150217   0.383   2.549  11.938 -1.6867  1.5638  1.9590
 8674TIP3    H250218   0.272   2.577  12.036 -0.8215 -2.1864  4.2340
 8675TIP3   OH250219   1.345   6.942  12.610  0.7141  0.3954  0.1933
 8675TIP3    H150220   1.356   6.849  12.631 -0.8296  0.2086  0.2819
 8675TIP3    H250221   1.262   6.946  12.562  2.0795  1.3635 -2.3028
 8676TIP3   OH250222   4.240   4.368  11.474 -0.0457  0.2224 -0.0592
 8676TIP3    H150223   4.190   4.287  11.484 -0.1489  0.2060 -0.6297
 8676TIP3    H250224   4.327   4.348  11.507  0.6033 -0.8303 -2.2017
 8677TIP3   OH250225   7.544   1.040  11.601  0.4576  0.4326 -0.1150
 8677TIP3    H150226   7.597   1.091  11.663  0.0322  1.6853 -0.7493
 8677TIP3    H250227   7.473   1.099  11.576 -1.2312 -1.1806  0.6513
 8678TIP3   OH250228   4.409   4.579  13.258  0.4218 -0.3404 -0.1416
 8678TIP3    H150229   4.397   4.671  13.285  1.0741  0.2347 -1.7139
 8678TIP3    H250230   4.321   4.544  13.250  0.1084  0.6574 -1.1809
 8679TIP3   OH250231   1.967   1.473  13.456  0.7438 -0.1476 -0.1100
 8679TIP3    H150232   2.025   1.483  13.380 -0.0149 -0.2979 -0.7350
 8679TIP3    H250233   1.994   1.390  13.496  1.3676  0.0986 -0.0295
 8680TIP3   OH250234   0.853   8.482  12.053 -0.0465 -0.1107 -0.6060
 8680TIP3    H150235   0.824   8.392  12.065  0.9641 -0.1560  2.5137
 8680TIP3    H250236   0.772   8.533  12.051 -0.6022 -0.9980 -1.6170
 8681TIP3   OH250237   0.365   7.923  13.078 -0.0355 -0.6240  0.6015
 8681TIP3    H150238   0.311   7.851  13.046 -0.6755 -0.2524  0.8129
 8681TIP3    H250239   0.387   7.974  13.000 -0.5381 -0.4170  0.5937
 8682TIP3   OH250240   4.421   8.206  11.834 -0.3270  0.2146 -0.3951
 8682TIP3    H150241   4.465   8.256  11.765  1.0719 -0.8581 -0.3016
 8682TIP3    H250242   4.477   8.214  11.910 -0.7829 -0.3686  0.0128
 8683TIP3   OH250243   5.034   3.922  11.986 -0.4363 -0.1980  0.0529
 8683TIP3    H150244   5.123   3.957  11.990 -0.3996 -0.3731  1.3837
 8683TIP3    H250245   5.045   3.829  11.967 -0.4386  0.1016 -1.5241
 8684TIP3   OH250246   8.334   6.250  12.179  0.4069  0.3036 -0.4754
 8684TIP3    H150247   8.362   6.161  12.157  2.2209  0.9106 -0.7898
 8684TIP3    H250248   8.412   6.304  12.166 -0.0390  1.6308  1.8035
 8685TIP3   OH250249   0.079   6.510  11.687 -0.2327  0.3339 -0.0991
 8685TIP3    H150250   0.009   6.575  11.690  0.5972  1.2666 -0.5753
 8685TIP3    H250251   0.156   6.556  11.720 -0.1038 -1.0606  1.7149
 8686TIP3   OH250252   0.941   7.425  12.318  0.5378  0.3135 -0.4561
 8686TIP3    H150253   0.862   7.457  12.275  0.5843  0.2854 -0.5626
 8686TIP3    H250254   0.937   7.462  12.407  0.2513  0.0605 -0.3611
 8687TIP3   OH250255   8.356   1.000  13.123  0.7924 -0.3794  0.0255
 8687TIP3    H150256   8.408   0.979  13.200 -1.6232  1.0951  2.2234
 8687TIP3    H250257   8.397   1.079  13.088  2.3480 -1.4706 -0.7436
 8688TIP3   OH250258   0.082   7.193  12.750 -0.3675 -0.1079  0.2376
 8688TIP3    H150259   0.036   7.142  12.683 -2.6202  0.8183  0.9752
 8688TIP3    H250260   0.088   7.134  12.824 -1.1928  0.0294  0.4258
 8689TIP3   OH250261   2.099   4.444  12.871 -0.8669  0.2013  0.0991
 8689TIP3    H150262   2.107   4.406  12.959 -1.3532  2.6964  1.3081
 8689TIP3    H250263   2.006   4.441  12.852 -1.1492  2.0771  0.9113
 8690TIP3   OH250264   6.752   1.748  11.965  0.3201 -0.4212  0.3850
 8690TIP3    H150265   6.676   1.690  11.967 -0.0351  0.0015 -0.1996
 8690TIP3    H250266   6.739   1.808  12.038 -0.2283  0.0248 -0.0684
 8691TIP3   OH250267   1.864   3.449  12.371  0.7309 -0.0346  0.0287
 8691TIP3    H150268   1.940   3.501  12.343  1.2755 -0.9801 -0.3207
 8691TIP3    H250269   1.824   3.420  12.289 -0.9130  1.6556  0.1673
 8692TIP3   OH250270   5.538   7.183  13.108 -0.0584  0.4368  0.0899
 8692TIP3    H150271   5.492   7.101  13.125 -0.4655  0.6239 -0.0858
 8692TIP3    H250272   5.542   7.227  13.193 -1.1747  0.9080 -0.0860
 8693TIP3   OH250273   0.899   3.766  11.812 -0.0248 -0.0034  0.2416
 8693TIP3    H150274   0.969   3.759  11.878 -1.3688 -2.4671  1.5235
 8693TIP3    H250275   0.888   3.677  11.779 -2.6811  0.2564  0.2403
 8694TIP3   OH250276   3.842   9.083  12.688  0.0509  0.7691  0.0318
 8694TIP3    H150277   3.870   9.175  12.681 -0.3969  0.9188  0.1800
 8694TIP3    H250278   3.839   9.067  12.782 -1.8868  1.2384  0.0899
 8695TIP3   OH250279   3.346   8.032  13.754  0.0019  0.1579 -0.4890
 8695TIP3    H150280   3.339   8.085  13.675  0.1355 -1.0381 -1.3202
 8695TIP3    H250281   3.405   7.960  13.731  1.6458  0.8413  1.3009
 8696TIP3   OH250282   4.962   4.838  11.944 -0.2148  0.2691 -0.0122
 8696TIP3    H150283   4.941   4.750  11.913  0.7002  0.9149 -2.7132
 8696TIP3    H250284   4.900   4.853  12.015 -2.7412 -1.2841 -1.6945
 8697TIP3   OH250285   4.606   2.396  11.618 -0.1623  0.0653 -0.5375
 8697TIP3    H150286   4.640   2.485  11.621  1.5049 -0.5664  0.2019
 8697TIP3    H250287   4.525   2.404  11.567 -0.3532  2.0769 -0.0165
 8698TIP3   OH250288   3.103   7.602  12.856  0.9111 -0.2892 -0.6461
 8698TIP3    H150289   3.112   7.686  12.812  1.3562 -0.1522 -0.2899
 8698TIP3    H250290   3.169   7.602  12.924 -0.2304 -0.2111  0.4972
 8699TIP3   OH250291   0.297   2.911  11.901  0.0046 -0.3237 -0.2446
 8699TIP3    H150292   0.210   2.877  11.918  0.2173 -0.1488  1.3991
 8699TIP3    H250293   0.344   2.839  11.860 -0.1240 -1.3876  1.3844
 8700TIP3   OH250294   2.971   4.411  12.727 -0.0616 -0.0795 -0.0224
 8700TIP3    H150295   2.920   4.334  12.703  0.1587  0.0075 -0.7700
 8700TIP3    H250296   3.040   4.417  12.661  1.0304 -0.2831  1.0731
 8701TIP3   OH250297   2.632   5.713  12.001 -0.0766 -0.0494 -0.8674
 8701TIP3    H150298   2.602   5.668  11.922  0.7550  0.4983 -1.5062
 8701TIP3    H250299   2.694   5.778  11.970  0.7701 -0.2629  0.3119
 8702TIP3   OH250300   4.193   3.930  12.413  0.1397 -0.3455  0.4495
 8702TIP3    H150301   4.258   3.999  12.426 -1.5627  1.8954 -1.8371
 8702TIP3    H250302   4.133   3.940  12.487 -1.1716  2.1202 -0.7934
 8703TIP3   OH250303   5.864   8.979  12.220 -0.1395 -0.5012  0.7114
 8703TIP3    H150304   5.897   9.058  12.262  0.0573  0.3851 -1.0152
 8703TIP3    H250305   5.910   8.975  12.137 -3.1466 -0.0841 -1.1275
 8704TIP3   OH250306   4.481   8.591  13.039 -0.2047 -0.1166  0.1236
 8704TIP3    H150307   4.498   8.649  12.965 -0.3092  0.4407  0.5310
 8704TIP3    H250308   4.387   8.603  13.057  0.2077  1.1891  1.5427
 8705TIP3   OH250309   8.481   4.800  11.993 -0.2715 -0.3673 -0.3733
 8705TIP3    H150310   8.520   4.883  12.019 -2.6625  1.3511 -1.8214
 8705TIP3    H250311   8.548   4.757  11.940  1.6775 -0.3009  1.8868
 8706TIP3   OH250312   1.628   6.124  13.354 -0.4788 -0.0884 -0.2432
 8706TIP3    H150313   1.543   6.086  13.377 -0.5807 -0.2042 -0.8043
 8706TIP3    H250314   1.648   6.089  13.267 -0.0752  0.3010 -0.3126
 8707TIP3   OH250315   3.802   0.348  11.561 -0.0064 -0.1038 -0.2122
 8707TIP3    H150316   3.713   0.380  11.573  0.2923  0.3151  1.0339
 8707TIP3    H250317   3.799   0.257  11.591  0.0691  0.0378  0.2364
 8708TIP3   OH250318   8.873   5.851  13.345 -0.0238 -0.1531  0.0156
 8708TIP3    H150319   8.807   5.906  13.302  0.5390  0.7275  0.2328
 8708TIP3    H250320   8.828   5.770  13.365 -0.7087 -0.0141 -0.9003
 8709TIP3   OH250321   4.219   1.750  11.577  0.3355  0.8414  0.2156
 8709TIP3    H150322   4.196   1.760  11.670  1.1349  0.6616  0.4359
 8709TIP3    H250323   4.277   1.823  11.558  2.6181 -0.7402  0.6784
 8710TIP3   OH250324   5.958   5.254  11.842 -0.8413  0.0881 -0.0680
 8710TIP3    H150325   5.938   5.266  11.935 -0.5080  0.3131 -0.0220
 8710TIP3    H250326   6.053   5.262  11.837 -0.6550 -1.8671 -0.1453
 8711TIP3   OH250327   6.994   1.497  12.134  0.0614  0.7613 -0.4770
 8711TIP3    H150328   6.903   1.524  12.120 -1.4233 -2.1013  2.4994
 8711TIP3    H250329   7.020   1.459  12.050 -2.7953 -1.5453 -0.4460
 8712TIP3   OH250330   8.112   4.723  12.332 -0.6929  0.1439  0.3383
 8712TIP3    H150331   8.099   4.812  12.362  1.7982  0.4711  0.6824
 8712TIP3    H250332   8.026   4.681  12.340 -1.4723  1.9483  2.0198
 8713TIP3   OH250333   2.341   5.303  11.910  0.2620  0.2153 -0.2119
 8713TIP3    H150334   2.344   5.261  11.996 -0.2601 -1.3652 -0.9251
 8713TIP3    H250335   2.290   5.383  11.924 -0.6300 -0.4898  0.7698
 8714TIP3   OH250336   1.496   4.542  12.585 -0.0107 -0.1334  0.5102
 8714TIP3    H150337   1.569   4.486  12.611  0.2745  0.6691  1.5185
 8714TIP3    H250338   1.481   4.599  12.661  0.4995  1.9622 -0.8856
 8715TIP3   OH250339   5.535   7.391  11.694 -0.0309 -0.2619  0.4712
 8715TIP3    H150340   5.505   7.334  11.765 -0.7968  0.3163  0.6341
 8715TIP3    H250341   5.630   7.384  11.695  0.0453  0.5079  2.2318
 8716TIP3   OH250342   4.208   6.796  12.793 -0.3665 -0.2871 -0.0088
 8716TIP3    H150343   4.295   6.781  12.756 -1.0362  0.3327 -1.9708
 8716TIP3    H250344   4.222   6.796  12.888  1.8618  0.3567 -0.2731
 8717TIP3   OH250345   8.739   5.576  12.988  0.6064  0.0943 -0.9997
 8717TIP3    H150346   8.702   5.552  13.074 -0.3643  1.9064 -0.8705
 8717TIP3    H250347   8.695   5.518  12.927 -1.8763  1.5298 -0.7238
 8718TIP3   OH250348   7.456   3.883  11.997 -0.1984 -0.4467 -0.3846
 8718TIP3    H150349   7.402   3.878  12.076  0.6270 -0.1136  0.2117
 8718TIP3    H250350   7.424   3.961  11.952 -0.4083 -0.4091 -0.1745
 8719TIP3   OH250351   5.612   3.358  12.162 -0.3569  0.2321  0.2589
 8719TIP3    H150352   5.677   3.427  12.169 -0.3333  0.1539  0.8860
 8719TIP3    H250353   5.631   3.299  12.235  0.6240 -1.3060 -1.1748
 8720TIP3   OH250354   2.067   1.525  11.675  0.0543  0.5424 -0.1204
 8720TIP3    H150355   1.977   1.494  11.661 -0.9281  1.6883  2.9003
 8720TIP3    H250356   2.121   1.447  11.661 -1.2837 -0.0804 -2.4554
 8721TIP3   OH250357   6.229   9.122  12.924  0.5363  0.1133  0.0206
 8721TIP3    H150358   6.172   9.166  12.988 -0.6978 -1.0683 -0.2497
 8721TIP3    H250359   6.318   9.141  12.956  0.0788  2.4892  0.1168
 8722TIP3   OH250360   0.616   5.536  11.874  0.5836 -0.0181 -0.0782
 8722TIP3    H150361   0.585   5.520  11.785  1.4004 -4.2728  0.1452
 8722TIP3    H250362   0.706   5.567  11.863  0.0707  1.2740 -0.7118
 8723TIP3   OH250363   4.963   4.473  12.369 -0.5406  0.3212  0.4378
 8723TIP3    H150364   4.978   4.559  12.408  2.8574  0.7169 -1.3555
 8723TIP3    H250365   4.873   4.476  12.338 -0.9733  2.6717  1.7057
 8724TIP3   OH250366   4.057   2.297  11.938 -0.2765 -0.5244  0.1168
 8724TIP3    H150367   3.999   2.335  11.872  0.2542 -1.8219 -1.1376
 8724TIP3    H250368   4.006   2.299  12.019 -0.7773  1.5192 -0.1887
 8725TIP3   OH250369   7.177   2.652  12.322  0.2430  0.2553 -0.2436
 8725TIP3    H150370   7.149   2.742  12.337 -0.3298  0.2313 -1.0878
 8725TIP3    H250371   7.258   2.660  12.272  2.0222  0.3309  2.4899
 8726TIP3   OH250372   7.325   1.431  11.650  0.5570  0.4815  0.3308
 8726TIP3    H150373   7.331   1.335  11.644 -1.1311  0.4076 -0.4788
 8726TIP3    H250374   7.416   1.460  11.644  0.9573 -0.9673 -1.6790
 8727TIP3   OH250375   8.641   3.052  11.936  0.0324 -0.5022 -0.4315
 8727TIP3    H150376   8.565   3.088  11.889 -0.2593  0.2613  0.5904
 8727TIP3    H250377   8.716   3.076  11.883 -0.3168  0.0979 -0.6571
 8728TIP3   OH250378   1.915   2.796  11.404 -0.1654 -0.5780 -0.0718
 8728TIP3    H150379   1.934   2.703  11.393  0.5141 -0.4443 -0.0999
 8728TIP3    H250380   1.820   2.803  11.395 -0.1835 -1.2187 -0.4182
 8729TIP3   OH250381   7.490   4.247  12.216 -0.5965  0.3429  0.1714
 8729TIP3    H150382   7.533   4.178  12.165 -0.9935  0.0788  0.1901
 8729TIP3    H250383   7.501   4.220  12.307 -0.8236  0.2622  0.1750
 8730TIP3   OH250384   1.058   6.299  12.038  0.1562  0.0823  0.1735
 8730TIP3    H150385   0.984   6.301  12.098 -0.3387 -0.1754 -0.4122
 8730TIP3    H250386   1.031   6.355  11.965  0.0880 -0.8366 -0.5372
 8731TIP3   OH250387   8.158   2.793  11.504 -0.1878  0.3710  0.2270
 8731TIP3    H150388   8.106   2.712  11.509  1.2875 -0.5297  3.1664
 8731TIP3    H250389   8.240   2.765  11.464  1.3238 -0.3487  3.4833
 8732TIP3   OH250390   1.074   5.590  13.800 -0.2632  0.0064  0.1875
 8732TIP3    H150391   1.159   5.561  13.768 -0.8997 -2.9790  0.8523
 8732TIP3    H250392   1.019   5.594  13.722 -0.4582 -1.9891  0.1757
 8733TIP3   OH250393   2.190   5.521  11.971 -0.2776 -0.6351 -0.3131
 8733TIP3    H150394   2.111   5.563  11.937 -0.5304 -0.6005  0.3018
 8733TIP3    H250395   2.243   5.594  12.005 -0.2507 -0.7135 -0.1856
 8734TIP3   OH250396   2.899   2.481  13.105 -0.2166  0.0007 -0.3358
 8734TIP3    H150397   2.969   2.529  13.149  0.7588 -0.7338 -1.0079
 8734TIP3    H250398   2.819   2.527  13.128  0.5719  1.3251 -0.1417
 8735TIP3   OH250399   7.590   7.062  12.609 -0.2154 -0.2382  0.3270
 8735TIP3    H150400   7.571   6.988  12.552 -0.2608 -0.2276  0.3283
 8735TIP3    H250401   7.666   7.104  12.569  0.1946 -0.6442  0.6653
 8736TIP3   OH250402   2.931   5.279  12.200  0.0180  0.0234  0.1080
 8736TIP3    H150403   2.961   5.300  12.289 -0.7531 -0.0227  0.3846
 8736TIP3    H250404   2.850   5.329  12.189  0.2578  0.2535 -0.6831
 8737TIP3   OH250405   3.616   4.746  11.811  0.4134  0.6226 -0.2321
 8737TIP3    H150406   3.605   4.673  11.872  1.0100  0.3773 -0.4120
 8737TIP3    H250407   3.687   4.719  11.753  1.4817  1.8493  0.4487
 8738TIP3   OH250408   8.822   9.067  12.450  0.1357  0.4356 -0.5134
 8738TIP3    H150409   8.818   9.026  12.364  0.2786  2.0343 -1.3057
 8738TIP3    H250410   8.913   9.060  12.477  0.1515  0.2077 -0.6293
 8739TIP3   OH250411   2.101   5.385  13.494  0.3735  0.4979 -0.8626
 8739TIP3    H150412   2.090   5.470  13.451 -1.4500  0.2835 -0.9056
 8739TIP3    H250413   2.128   5.407  13.583 -0.0980  1.1460 -0.8687
 8740TIP3   OH250414   7.307   6.645  12.456  0.1343  0.3213 -0.4704
 8740TIP3    H150415   7.226   6.611  12.495 -1.0611  2.0617 -1.2942
 8740TIP3    H250416   7.321   6.590  12.379 -0.7391  0.4779 -0.7615
 8741TIP3   OH250417   4.514   2.287  12.381 -0.4372  0.4136 -0.2815
 8741TIP3    H150418   4.429   2.330  12.387  0.1942  1.7128 -0.3809
 8741TIP3    H250419   4.577   2.358  12.376  0.7993 -0.4814  1.4736
 8742TIP3   OH250420   2.647   3.438  11.690  0.0243  0.3148  0.2939
 8742TIP3    H150421   2.738   3.414  11.708 -0.2179 -1.0742 -0.1969
 8742TIP3    H250422   2.609   3.359  11.653 -1.1411  1.1738 -0.4016
 8743TIP3   OH250423   0.782   2.457  12.510  0.2206  0.0167 -0.1242
 8743TIP3    H150424   0.813   2.477  12.598 -0.2452  0.6506 -0.0956
 8743TIP3    H250425   0.686   2.463  12.516  0.2043  0.4914 -0.7721
 8744TIP3   OH250426   7.806   3.337  13.169 -0.6237  0.0513  0.0981
 8744TIP3    H150427   7.847   3.340  13.255 -0.5848 -0.0451  0.0829
 8744TIP3    H250428   7.803   3.244  13.146 -0.8705  0.0549  0.1098
 8745TIP3   OH250429   7.846   5.626  11.849 -0.1429 -0.1217 -0.1754
 8745TIP3    H150430   7.851   5.532  11.863  2.8483 -0.0630 -0.2052
 8745TIP3    H250431   7.758   5.650  11.879 -0.5170 -2.7049  1.0983
 8746TIP3   OH250432   2.354   7.507  13.647 -0.8286  0.6096 -0.4435
 8746TIP3    H150433   2.448   7.493  13.636 -0.6215  1.6162 -0.0286
 8746TIP3    H250434   2.348   7.581  13.707 -1.9021 -0.5182  0.8985
 8747TIP3   OH250435   7.815   0.374  11.684 -0.6933  0.2674 -0.2251
 8747TIP3    H150436   7.842   0.465  11.696  0.4472 -0.0991  0.1191
 8747TIP3    H250437   7.817   0.337  11.772  1.8277 -0.8681 -0.6697
 8748TIP3   OH250438   8.700   3.654  12.545  0.5297 -0.2976 -0.4604
 8748TIP3    H150439   8.748   3.583  12.588  1.8273  0.4938 -0.5491
 8748TIP3    H250440   8.679   3.619  12.459 -1.0592 -1.4657  0.3289
 8749TIP3   OH250441   1.245   2.574  12.298 -0.1848 -0.2940  0.3686
 8749TIP3    H150442   1.191   2.649  12.322 -0.2240 -0.6264  1.3523
 8749TIP3    H250443   1.307   2.564  12.370 -0.3401 -1.3490  0.3858
 8750TIP3   OH250444   4.619   8.575  12.532 -0.0645 -0.2250  1.0536
 8750TIP3    H150445   4.682   8.504  12.526  1.5739  1.1392  1.1773
 8750TIP3    H250446   4.608   8.589  12.626  0.9864  0.7682  1.0611
 8751TIP3   OH250447   0.365   8.564  12.549  0.5315  0.0711 -0.2279
 8751TIP3    H150448   0.411   8.480  12.550  0.3944 -0.0134  0.8482
 8751TIP3    H250449   0.434   8.630  12.549  0.7120 -0.0497  1.8122
 8752TIP3   OH250450   3.658   0.170  12.524  0.0601 -0.3192  0.3791
 8752TIP3    H150451   3.639   0.264  12.515  1.9222 -0.0553 -2.0970
 8752TIP3    H250452   3.576   0.127  12.502 -1.0468  0.6801  2.3291
 8753TIP3   OH250453   5.184   4.039  13.635  0.1729 -0.2195 -0.0599
 8753TIP3    H150454   5.122   4.031  13.708  2.0265 -3.1350  1.4099
 8753TIP3    H250455   5.150   3.979  13.568 -0.9037  1.5980 -1.2453
 8754TIP3   OH250456   6.414   6.001  12.722 -0.0394 -0.1915 -0.7334
 8754TIP3    H150457   6.364   5.938  12.775 -3.3682  0.8231 -2.3452
 8754TIP3    H250458   6.469   6.047  12.785 -1.3188 -1.2941  1.3149
 8755TIP3   OH250459   0.607   8.053  13.153 -0.5624 -0.0369  0.1225
 8755TIP3    H150460   0.538   7.995  13.121 -0.8623  0.7438 -0.6985
 8755TIP3    H250461   0.560   8.119  13.205 -0.3575  0.0882  0.1514
 8756TIP3   OH250462   3.616   4.150  13.122  0.2355  0.4865  0.0140
 8756TIP3    H150463   3.666   4.200  13.186 -1.3435  0.4077  1.3889
 8756TIP3    H250464   3.543   4.206  13.100  0.0825 -0.0056 -0.7594
 8757TIP3   OH250465   8.627   2.756  11.658  0.3815  0.1057  0.3661
 8757TIP3    H150466   8.617   2.710  11.741 -0.9438  0.4935  0.4492
 8757TIP3    H250467   8.712   2.728  11.625 -0.3809 -2.4989  0.3509
 8758TIP3   OH250468   6.685   7.893  12.506 -0.5835 -1.0046  0.4928
 8758TIP3    H150469   6.770   7.936  12.500 -1.2157  0.0741 -2.5555
 8758TIP3    H250470   6.629   7.957  12.551 -0.3330 -0.7668  0.4670
 8759TIP3   OH250471   3.511   2.219  13.274  0.1125 -0.0270  0.7901
 8759TIP3    H150472   3.598   2.192  13.306  1.3328  0.8420 -1.5524
 8759TIP3    H250473   3.530   2.282  13.205 -2.3927 -0.4156 -0.3314
 8760TIP3   OH250474   9.008   6.733  12.301  0.5759  0.2480 -0.1630
 8760TIP3    H150475   9.097   6.703  12.319  0.1923 -0.0010  1.5260
 8760TIP3    H250476   8.976   6.765  12.386 -0.8891  0.4652 -0.7634
 8761TIP3   OH250477   2.412   8.203  13.151 -0.1841 -0.0978  0.4144
 8761TIP3    H150478   2.332   8.158  13.177 -0.9183  0.6396 -0.4942
 8761TIP3    H250479   2.448   8.236  13.233 -0.3886 -1.0923  0.9246
 8762TIP3   OH250480   8.444   3.679  12.636  0.4364 -0.1740  0.0140
 8762TIP3    H150481   8.515   3.737  12.607 -0.3623  1.3698  0.9951
 8762TIP3    H250482   8.368   3.709  12.587  0.0606 -0.5605  0.3550
 8763TIP3   OH250483   4.476   3.957  11.848 -0.1776 -0.3547  0.0782
 8763TIP3    H150484   4.569   3.952  11.871  0.0676  1.5917 -0.3209
 8763TIP3    H250485   4.468   3.903  11.769  1.2386  1.6489 -1.5339
 8764TIP3   OH250486   7.701   3.085  16.848 -0.5695  0.5785  0.6838
 8764TIP3    H150487   7.735   3.043  16.927  0.8017  1.8752  0.8369
 8764TIP3    H250488   7.736   3.032  16.776 -1.3971 -0.3055  0.9132
 8765TIP3   OH250489   0.061   8.874  13.346 -0.3346 -0.0872 -0.2436
 8765TIP3    H150490   0.043   8.838  13.259  0.2671 -0.2495 -0.3080
 8765TIP3    H250491  -0.016   8.927  13.366 -1.0784 -1.1015 -0.3035
 8766TIP3   OH250492   6.919   7.106  11.628  0.3168  0.3271 -0.1100
 8766TIP3    H150493   6.913   7.178  11.565  0.4614  1.0325  0.6693
 8766TIP3    H250494   7.009   7.075  11.619  0.1991  0.1035 -0.5833
 8767TIP3   OH250495   2.312   7.942  12.318  0.2903 -0.4104  0.2387
 8767TIP3    H150496   2.305   7.855  12.357  0.6681 -0.5107  0.0829
 8767TIP3    H250497   2.277   8.001  12.385 -1.2856 -0.8080 -0.1911
 8768TIP3   OH250498   3.286   7.724  13.200  0.9365 -0.7933 -0.5285
 8768TIP3    H150499   3.245   7.797  13.153  0.4706  0.3780  1.5763
 8768TIP3    H250500   3.243   7.646  13.166  1.0269 -0.0727 -2.4091
 8769TIP3   OH250501   6.968   5.369  12.776 -0.0521 -0.4623  0.3265
 8769TIP3    H150502   7.052   5.325  12.785  0.4407  0.0689 -1.3249
 8769TIP3    H250503   6.942   5.390  12.865  1.6648 -0.4540  0.8576
 8770TIP3   OH250504   5.202   0.578  13.234 -0.2065 -0.0458 -0.2288
 8770TIP3    H150505   5.176   0.567  13.143 -1.1795 -1.6039  0.2074
 8770TIP3    H250506   5.192   0.672  13.251  1.2916  0.5098 -2.0815
 8771TIP3   OH250507   6.352   5.956  12.243 -0.3919  0.0349 -0.3936
 8771TIP3    H150508   6.293   6.025  12.213 -0.4697  0.1885  0.0964
 8771TIP3    H250509   6.305   5.914  12.315  0.3856  0.6496  0.5134
 8772TIP3   OH250510   7.719   6.225  11.751  0.4912 -0.2854  0.1502
 8772TIP3    H150511   7.727   6.140  11.793 -0.1395  0.0304  0.9297
 8772TIP3    H250512   7.758   6.286  11.814  1.5634 -0.0699 -0.6957
 8773TIP3   OH250513   6.333   8.002  12.374  0.0673  0.3018 -0.3765
 8773TIP3    H150514   6.261   8.050  12.415 -0.2003 -1.6894  1.6736
 8773TIP3    H250515   6.294   7.963  12.295 -0.3956  1.2434 -0.6289
 8774TIP3   OH250516   2.671   1.965  11.649  0.3310  0.1559  0.2787
 8774TIP3    H150517   2.617   1.989  11.574  0.2165 -1.7687 -0.2995
 8774TIP3    H250518   2.648   2.029  11.716 -0.6739  1.0062 -0.8383
 8775TIP3   OH250519   7.550   4.696  12.907  0.3015 -0.3601 -0.4201
 8775TIP3    H150520   7.493   4.764  12.941  0.8056 -0.3577  0.4442
 8775TIP3    H250521   7.587   4.654  12.984 -0.6287 -2.1820 -0.8991
 8776TIP3   OH250522   2.677   7.186  17.945 -0.3044 -0.1972  0.0039
 8776TIP3    H150523   2.687   7.200  17.851  1.6619  0.9208  0.3316
 8776TIP3    H250524   2.645   7.096  17.952 -2.4258  0.3063 -1.7667
 8777TIP3   OH250525   7.149   0.448  12.157 -0.1178 -0.4815 -0.1441
 8777TIP3    H150526   7.177   0.357  12.159  0.4300 -0.3511 -1.3018
 8777TIP3    H250527   7.054   0.444  12.142 -0.3263 -0.8674  1.1257
 8778TIP3   OH250528   7.229   0.481  12.781  0.3183  0.4507 -0.2170
 8778TIP3    H150529   7.296   0.512  12.842 -0.4802  2.4958 -0.3049
 8778TIP3    H250530   7.245   0.531  12.701 -0.7824  0.3192 -0.5302
 8779TIP3   OH250531   0.551   2.588  13.260 -0.1667 -0.5937 -0.2410
 8779TIP3    H150532   0.562   2.525  13.332  1.2004 -0.7200 -0.5394
 8779TIP3    H250533   0.563   2.673  13.301 -2.9511 -0.3868  0.3558
 8780TIP3   OH250534   4.343   1.977  11.578  0.1035  0.1124 -0.2838
 8780TIP3    H150535   4.416   2.020  11.622  1.1394 -1.5925 -0.2205
 8780TIP3    H250536   4.265   2.023  11.609  1.0084  0.7751  1.1177
 8781TIP3   OH250537   2.666   5.176  13.539 -0.6995  0.1856 -0.0637
 8781TIP3    H150538   2.600   5.239  13.509 -0.6039  0.5747  0.5259
 8781TIP3    H250539   2.699   5.136  13.459 -1.4619  0.1790 -0.3845
 8782TIP3   OH250540   2.979   1.719  13.185  0.1415  0.3528  0.3387
 8782TIP3    H150541   3.009   1.810  13.186 -1.0889  0.7832 -0.2334
 8782TIP3    H250542   3.059   1.668  13.175  0.8097  1.3918  0.2115
 8783TIP3   OH250543   4.149   1.765  12.949  0.4167 -0.0914 -0.6343
 8783TIP3    H150544   4.134   1.675  12.977  1.1360  0.0271  0.1882
 8783TIP3    H250545   4.206   1.802  13.017  0.3410  0.9040 -1.0929
 8784TIP3   OH250546   5.039   3.243  13.416 -0.4540  0.0581 -0.5649
 8784TIP3    H150547   4.988   3.323  13.406 -0.7823  0.0261  0.6766
 8784TIP3    H250548   5.110   3.251  13.353 -0.9325  0.9542 -1.0099
 8785TIP3   OH250549   2.278   7.255  12.614 -0.4277  0.3027 -0.9658
 8785TIP3    H150550   2.242   7.343  12.626  0.4279  0.4007  1.4003
 8785TIP3    H250551   2.360   7.268  12.567  0.3205  0.9375  0.4748
 8786TIP3   OH250552   2.947   2.861  11.521  0.6743 -0.4342 -0.0257
 8786TIP3    H150553   2.995   2.852  11.603 -0.1597  0.2211  0.5599
 8786TIP3    H250554   2.909   2.775  11.506  0.2760 -0.3912  0.6570
 8787TIP3   OH250555   5.193   2.079  11.664 -0.2551 -0.1772 -0.1578
 8787TIP3    H150556   5.140   2.081  11.584 -0.2532  0.1154 -0.1535
 8787TIP3    H250557   5.257   2.149  11.651 -1.4738  1.2086  0.9253
 8788TIP3   OH250558   2.165   7.237  12.154  0.8246 -0.1048 -0.4159
 8788TIP3    H150559   2.184   7.187  12.234  2.0324  0.1758 -0.4988
 8788TIP3    H250560   2.150   7.327  12.184  0.1564 -0.2140 -0.4087
 8789TIP3   OH250561   2.720   2.670  12.888 -0.4234 -0.5205  0.6975
 8789TIP3    H150562   2.814   2.669  12.904 -0.2505  2.9013  0.6636
 8789TIP3    H250563   2.680   2.645  12.971  0.4074 -3.4253  0.3309
 8790TIP3   OH250564   3.829   8.107  11.724 -0.4181  0.1162 -0.0223
 8790TIP3    H150565   3.877   8.134  11.647  0.4589  0.7720  0.7326
 8790TIP3    H250566   3.861   8.019  11.743  0.1347  0.3595  0.1892
 8791TIP3   OH250567   3.145   2.025  11.728  0.0332 -0.1137 -0.4390
 8791TIP3    H150568   3.074   1.965  11.749 -1.2677  0.5661 -2.6623
 8791TIP3    H250569   3.102   2.107  11.705  1.6313  0.8144 -0.2972
 8792TIP3   OH250570   6.996   1.271  13.108 -0.1743  0.0668 -0.1504
 8792TIP3    H150571   6.932   1.229  13.051 -0.1828 -2.8331  1.8076
 8792TIP3    H250572   6.944   1.308  13.180  0.0524  1.5194 -0.6932
 8793TIP3   OH250573   5.126   0.770  12.375 -0.0939 -0.1956  0.5535
 8793TIP3    H150574   5.211   0.759  12.418  1.3397 -0.2284 -2.0814
 8793TIP3    H250575   5.146   0.823  12.297 -1.9237 -2.5651 -1.6965
 8794TIP3   OH250576   4.513   3.302  11.444  0.0895  0.5028 -0.2861
 8794TIP3    H150577   4.592   3.250  11.456  0.2114  0.5799 -0.7152
 8794TIP3    H250578   4.543   3.393  11.454 -0.0802  0.5046  0.2411
 8795TIP3   OH250579   3.958   8.337  12.378  0.7422 -0.6797  0.0026
 8795TIP3    H150580   3.871   8.298  12.367 -0.4822  1.7852  0.1092
 8795TIP3    H250581   3.946   8.399  12.450  2.6138 -0.3010  0.0179
 8796TIP3   OH250582   8.037   5.528  12.253 -0.0893  0.1194 -0.2160
 8796TIP3    H150583   7.946   5.529  12.284 -0.0320 -0.6653 -0.0130
 8796TIP3    H250584   8.079   5.599  12.302 -0.7843  1.0583 -0.9407
 8797TIP3   OH250585   8.359   5.450  12.159 -0.4617  0.6166  0.1588
 8797TIP3    H150586   8.280   5.412  12.120  0.6693 -0.1566 -1.5011
 8797TIP3    H250587   8.405   5.376  12.199 -0.5081  1.0419  1.0170
 8798TIP3   OH250588   6.511   8.216  12.217 -0.7418 -0.1059  0.4565
 8798TIP3    H150589   6.475   8.127  12.220 -0.7189 -0.1058  0.7615
 8798TIP3    H250590   6.606   8.204  12.218 -0.6876 -0.1501 -1.4873
 8799TIP3   OH250591   4.279   3.701  11.893 -0.1460 -0.5110 -0.8144
 8799TIP3    H150592   4.216   3.671  11.827  1.5852 -1.1774 -2.2399
 8799TIP3    H250593   4.328   3.771  11.849  1.1521 -1.0774 -0.2914
 8800TIP3   OH250594   7.067   4.972  12.758  0.5213  0.6604 -0.5844
 8800TIP3    H150595   7.118   5.049  12.735  0.3761  0.8983 -0.1340
 8800TIP3    H250596   7.056   4.978  12.853  1.5783 -0.5786 -0.3522
 8801TIP3   OH250597   8.041   5.108  12.866  0.0606 -0.1312  0.2425
 8801TIP3    H150598   7.954   5.119  12.826  0.6702  1.2158 -0.8088
 8801TIP3    H250599   8.028   5.129  12.958 -0.9926 -1.2856  0.3736
 8802TIP3   OH250600   4.644   7.390  11.857  0.6481 -0.1737 -0.1435
 8802TIP3    H150601   4.735   7.359  11.850  0.5815 -0.6929  1.0804
 8802TIP3    H250602   4.651   7.475  11.901  0.5935  0.1310 -0.7188
 8803TIP3   OH250603   2.806   7.486  13.287 -0.1348 -0.3244 -0.8401
 8803TIP3    H150604   2.863   7.429  13.338 -1.4519 -1.9920 -1.1440
 8803TIP3    H250605   2.797   7.565  13.340  1.3190 -0.5912 -0.1595
 8804TIP3   OH250606   8.245   3.174  12.952 -0.7379 -0.1539 -0.0495
 8804TIP3    H150607   8.310   3.192  12.885 -0.5233  2.4864  0.7593
 8804TIP3    H250608   8.270   3.089  12.988  0.6292 -0.4354 -1.5651
 8805TIP3   OH250609   8.917   2.503  12.433  0.3837 -0.0796  0.9300
 8805TIP3    H150610   8.939   2.468  12.347 -0.1810 -1.1182  1.1942
 8805TIP3    H250611   8.911   2.597  12.419  1.3872 -0.1218  0.0778
 8806TIP3   OH250612   3.845   0.055  12.265  1.0777  0.7871 -0.7068
 8806TIP3    H150613   3.779   0.046  12.196 -1.0947 -0.1909  1.3567
 8806TIP3    H250614   3.857   0.149  12.274  0.4945  0.9585 -1.5993
 8807TIP3   OH250615   5.764   6.134  12.566  0.0797  0.0229  0.0878
 8807TIP3    H150616   5.852   6.106  12.541  0.4589  1.5800 -0.4512
 8807TIP3    H250617   5.706   6.067  12.532  1.1018 -1.5330  1.2821
 8808TIP3   OH250618   5.495   3.559  11.769  0.7262  0.2657 -0.3300
 8808TIP3    H150619   5.486   3.586  11.860  0.3312 -1.1653  0.0809
 8808TIP3    H250620   5.562   3.618  11.733  1.5941  0.2257  1.1507
 8809TIP3   OH250621   4.762   8.628  12.786  0.0004  0.1416 -0.3356
 8809TIP3    H150622   4.770   8.539  12.823 -0.5574 -0.3498 -1.3554
 8809TIP3    H250623   4.849   8.648  12.752  0.1944  0.0925  0.1265
 8810TIP3   OH250624   5.715   6.917  12.496  0.1707  0.0265  0.9104
 8810TIP3    H150625   5.654   6.875  12.557 -1.7071 -3.0929 -2.7360
 8810TIP3    H250626   5.671   6.999  12.471 -1.1440 -0.7803  0.5095
 8811TIP3   OH250627   7.146   4.745  13.069 -0.1650 -0.1400  0.3340
 8811TIP3    H150628   7.153   4.652  13.045  0.9108 -0.2468  0.9883
 8811TIP3    H250629   7.092   4.745  13.148 -1.7689 -0.0036 -0.7118
 8812TIP3   OH250630   2.087   0.042  12.858 -0.3217  0.2848 -0.5139
 8812TIP3    H150631   2.112   0.001  12.775 -0.7578 -3.2464  0.9138
 8812TIP3    H250632   2.170   0.054  12.904 -0.2215  0.4731 -0.7457
 8813TIP3   OH250633   3.437   7.501  12.295  0.0421  0.6827  0.2011
 8813TIP3    H150634   3.501   7.482  12.227  2.0955 -0.7477  2.3686
 8813TIP3    H250635   3.354   7.473  12.258  1.0570  0.0415 -1.7338
 8814TIP3   OH250636   7.760   8.810  12.172 -0.7197  0.5411  0.2988
 8814TIP3    H150637   7.795   8.817  12.261  0.0583  1.0606 -0.0348
 8814TIP3    H250638   7.675   8.768  12.183  0.4282 -1.8106  1.0714
 8815TIP3   OH250639   0.769   3.741  12.328  0.2633  0.1343  0.2059
 8815TIP3    H150640   0.744   3.649  12.315  0.5356  0.1812 -0.7558
 8815TIP3    H250641   0.693   3.791  12.297 -0.1463  0.2399  1.3355
 8816TIP3   OH250642   4.427   6.016  13.451 -0.6256  0.0054  0.3695
 8816TIP3    H150643   4.449   5.930  13.415 -0.3743  0.4866 -0.6632
 8816TIP3    H250644   4.337   6.032  13.423 -0.2959  0.5548 -0.4297
 8817TIP3   OH250645   5.032   2.148  12.279  0.0710  0.3558  0.2147
 8817TIP3    H150646   4.942   2.180  12.271 -0.0562 -0.1757 -0.5632
 8817TIP3    H250647   5.082   2.203  12.219  0.0833 -0.0085 -0.1135
 8818TIP3   OH250648   2.329   1.030  12.811  0.2231 -0.2679 -0.3842
 8818TIP3    H150649   2.334   1.066  12.900  0.8385 -0.1633 -0.4597
 8818TIP3    H250650   2.310   1.105  12.755  1.0709 -0.1295 -0.4890
 8819TIP3   OH250651   2.564   7.916  12.214  0.3500 -0.3430 -0.0498
 8819TIP3    H150652   2.479   7.929  12.256  1.0465  0.8602  1.0785
 8819TIP3    H250653   2.628   7.930  12.284  1.5142 -0.0613 -1.1271
 8820TIP3   OH250654   2.235   0.089  13.212 -0.3552  0.0855 -0.1240
 8820TIP3    H150655   2.186   0.163  13.249 -1.7315  0.5932 -2.6469
 8820TIP3    H250656   2.249   0.114  13.120  1.9066 -1.4816 -0.2790
 8821TIP3   OH250657   4.058   5.632  13.345  0.1988 -0.0353 -0.0943
 8821TIP3    H150658   4.020   5.715  13.373 -0.3993 -1.0155  2.2326
 8821TIP3    H250659   4.140   5.626  13.393  0.9172 -0.2052 -1.2955
 8822TIP3   OH250660   0.301   3.022  13.007 -0.1507 -0.6967 -0.2957
 8822TIP3    H150661   0.224   2.985  12.965  0.1404 -0.4741 -1.0436
 8822TIP3    H250662   0.275   3.111  13.030 -0.1052 -0.6012 -0.6028
 8823TIP3   OH250663   4.622   7.027  12.224  0.1860  0.6045  0.3903
 8823TIP3    H150664   4.710   7.050  12.194  0.5318  0.6659  1.3973
 8823TIP3    H250665   4.564   7.050  12.151  1.1501 -0.8033 -0.8816
 8824TIP3   OH250666   1.792   2.862  13.281  0.4374  0.2322  0.5038
 8824TIP3    H150667   1.718   2.844  13.340 -1.1009  1.6432 -0.9032
 8824TIP3    H250668   1.860   2.897  13.339  0.5184 -2.1811  2.0233
 8825TIP3   OH250669   6.103   7.894  11.904  0.4461  0.7061  0.1015
 8825TIP3    H150670   6.026   7.838  11.915 -1.7626  3.2999 -0.8796
 8825TIP3    H250671   6.159   7.847  11.843 -0.9229 -0.7828 -0.0689
 8826TIP3   OH250672   2.523   6.714  11.912  0.1200 -0.6123  0.1514
 8826TIP3    H150673   2.609   6.702  11.953  1.0811  0.5103 -1.4174
 8826TIP3    H250674   2.484   6.788  11.959  1.3403  0.8644 -1.0632
 8827TIP3   OH250675   0.959   5.389  13.949 -1.1320 -0.0745 -0.0734
 8827TIP3    H150676   1.004   5.454  13.895 -2.0029 -0.5164 -1.3855
 8827TIP3    H250677   0.916   5.440  14.017  0.2403  0.4734  0.4080
 8828TIP3   OH250678   5.431   1.314  13.062  0.0091 -0.1396  0.7851
 8828TIP3    H150679   5.400   1.399  13.091  1.8249  0.8876 -0.0989
 8828TIP3    H250680   5.522   1.309  13.093  1.0201 -0.3087 -1.8709
 8829TIP3   OH250681   7.410   8.956  11.754  0.1432  0.4101 -0.0440
 8829TIP3    H150682   7.480   8.982  11.695 -0.8210  0.9934 -0.9715
 8829TIP3    H250683   7.455   8.914  11.828  1.3356 -1.3407 -1.6558
 8830TIP3   OH250684   3.123   5.460  12.374 -0.3224 -0.2358 -0.1969
 8830TIP3    H150685   3.170   5.446  12.291  1.4692 -2.0066  1.0263
 8830TIP3    H250686   3.106   5.554  12.376  0.5316  0.0142 -2.0806
 8831TIP3   OH250687   3.766   1.153  12.019 -0.3442 -0.2854  0.3965
 8831TIP3    H150688   3.855   1.122  12.003  0.4846  1.2448  1.8494
 8831TIP3    H250689   3.716   1.073  12.038 -0.0843 -1.5669 -3.3895
 8832TIP3   OH250690   2.361   8.251  12.676 -0.1515  0.2440 -0.2889
 8832TIP3    H150691   2.310   8.311  12.730  0.1349 -1.0541  1.4971
 8832TIP3    H250692   2.439   8.230  12.728  0.3681 -0.6994 -1.3804
 8833TIP3   OH250693   5.237   5.393  12.759 -1.4316 -0.1014  0.5872
 8833TIP3    H150694   5.212   5.483  12.739  0.6944  0.3118 -0.5515
 8833TIP3    H250695   5.323   5.401  12.801  0.6723 -1.6740 -2.9776
 8834TIP3   OH250696   2.712   7.104  13.666 -0.4673  0.3864  0.7255
 8834TIP3    H150697   2.758   7.059  13.737 -0.2073 -0.4394  0.0429
 8834TIP3    H250698   2.746   7.194  13.669  2.0593 -0.4339 -0.4197
 8835TIP3   OH250699   0.080   4.904  13.118 -0.5938  0.1557  0.2297
 8835TIP3    H150700   0.118   4.831  13.165 -1.3375  0.0572  0.6925
 8835TIP3    H250701   0.064   4.970  13.185 -1.8010 -0.0426  0.1569
 8836TIP3   OH250702   1.793   3.540  13.731 -0.1967  0.3986  0.1651
 8836TIP3    H150703   1.874   3.575  13.769  0.3761 -0.5497 -0.1414
 8836TIP3    H250704   1.790   3.449  13.760  0.2323 -0.3604 -1.9520
 8837TIP3   OH250705   3.745   4.881  12.151 -0.3270 -0.0857  0.5997
 8837TIP3    H150706   3.805   4.937  12.202  1.7611  0.0316 -1.7747
 8837TIP3    H250707   3.765   4.792  12.181  0.1270  0.0530  0.7227
 8838TIP3   OH250708   2.169   1.772  12.569 -0.0670 -0.3540 -0.6335
 8838TIP3    H150709   2.126   1.809  12.646 -0.3087 -0.9270 -0.4863
 8838TIP3    H250710   2.099   1.763  12.504 -0.0066 -0.5219 -0.6761
 8839TIP3   OH250711   9.120   4.889  12.201 -0.1914 -0.4790  0.1985
 8839TIP3    H150712   9.157   4.956  12.143  2.0732 -0.5471  1.4697
 8839TIP3    H250713   9.027   4.886  12.177  0.5040 -0.1034 -2.9960
 8840TIP3   OH250714   2.216   8.299  12.234 -0.1312  0.7714  0.0809
 8840TIP3    H150715   2.305   8.298  12.197  0.2026 -0.5925  0.8521
 8840TIP3    H250716   2.220   8.239  12.308 -1.8621  0.1610 -0.2650
 8841TIP3   OH250717   7.163   2.784  12.721 -0.2730 -0.3509 -0.4183
 8841TIP3    H150718   7.131   2.776  12.811  0.4291  1.1642 -0.0045
 8841TIP3    H250719   7.242   2.838  12.728 -0.1511 -0.2842 -1.9323
 8842TIP3   OH250720   0.272   0.034  12.205 -0.5019 -0.3569 -0.6331
 8842TIP3    H150721   0.314   0.049  12.290 -0.8885 -1.3568 -0.2498
 8842TIP3    H250722   0.223  -0.048  12.217 -2.1983  0.5169 -1.1899
 8843TIP3   OH250723   1.803   6.298  11.725 -0.0480 -0.3795  0.3826
 8843TIP3    H150724   1.743   6.242  11.774  1.0995 -1.0857  1.0294
 8843TIP3    H250725   1.885   6.294  11.774  1.3030 -1.4932 -1.8004
 8844TIP3   OH250726   5.517   7.075  12.681 -0.7057  0.2660 -0.1638
 8844TIP3    H150727   5.485   7.078  12.590 -2.3241 -3.6858  0.0867
 8844TIP3    H250728   5.438   7.064  12.733  0.3904 -0.1626  1.4703
 8845TIP3   OH250729   6.790   0.055  12.120  0.1633  0.5927  0.0197
 8845TIP3    H150730   6.751   0.121  12.063  0.1852  1.3294  0.8379
 8845TIP3    H250731   6.800   0.099  12.205 -0.5793 -0.6991  0.8160
 8846TIP3   OH250732   5.604   7.376  13.327  0.6175 -0.3165 -0.1988
 8846TIP3    H150733   5.609   7.464  13.290  0.2098 -0.7351 -1.2886
 8846TIP3    H250734   5.538   7.383  13.396  1.9858  0.6712  1.0846
 8847TIP3   OH250735   6.417   4.984  12.651  0.1357  0.5643 -0.8496
 8847TIP3    H150736   6.492   4.948  12.698 -0.8945 -1.5121 -0.6905
 8847TIP3    H250737   6.455   5.043  12.586  1.8328  0.2362 -0.1972
 8848TIP3   OH250738   2.960   6.520  13.275  0.4011  0.3689 -0.3479
 8848TIP3    H150739   3.040   6.487  13.236 -0.8002 -2.1549 -0.8949
 8848TIP3    H250740   2.976   6.515  13.369  1.2233  0.8002 -0.4611
 8849TIP3   OH250741   1.779   3.951  11.834  0.8418  0.1350  0.0650
 8849TIP3    H150742   1.750   3.889  11.900  0.8074 -1.0954 -1.0565
 8849TIP3    H250743   1.701   4.000  11.811  0.2197 -1.2676 -0.9533
 8850TIP3   OH250744   8.567   2.155  12.640 -0.0104 -0.0988  0.7395
 8850TIP3    H150745   8.618   2.230  12.609 -0.6156 -0.3928 -1.1144
 8850TIP3    H250746   8.511   2.191  12.709  0.2726  0.9825  0.4299
 8851TIP3   OH250747   4.433   6.312  12.129  0.3898 -0.7379 -0.3978
 8851TIP3    H150748   4.509   6.365  12.154  0.9265 -1.5874 -0.1707
 8851TIP3    H250749   4.362   6.375  12.118  1.2231  0.1295 -1.0021
 8852TIP3   OH250750   7.233   5.444  12.418 -0.3371 -0.4260  0.2672
 8852TIP3    H150751   7.236   5.521  12.476  0.9845 -0.3277  0.0866
 8852TIP3    H250752   7.265   5.372  12.473 -2.4757 -1.1041  0.7473
 8853TIP3   OH250753   2.537   6.527  13.622 -0.1758 -0.0979 -0.4198
 8853TIP3    H150754   2.605   6.462  13.603  0.7367  0.8267 -0.4158
 8853TIP3    H250755   2.567   6.607  13.579  0.4711  1.2632  2.2952
 8854TIP3   OH250756   6.866   8.561  11.684 -0.3036 -0.0338 -0.8244
 8854TIP3    H150757   6.946   8.610  11.702 -0.7646  0.2553  0.5692
 8854TIP3    H250758   6.896   8.476  11.652  0.6013 -0.3289  0.7131
 8855TIP3   OH250759   8.286   2.922  13.067 -0.0610  0.0238 -0.6329
 8855TIP3    H150760   8.361   2.944  13.123  0.4730 -1.1374 -0.8586
 8855TIP3    H250761   8.224   2.879  13.126  0.6914 -1.6054 -0.9714
 8856TIP3   OH250762   7.446   0.269  12.869 -0.1422  0.2571 -0.3255
 8856TIP3    H150763   7.541   0.257  12.877 -0.4458 -1.9837  0.7354
 8856TIP3    H250764   7.433   0.364  12.875  1.9068  0.5187  1.0070
 8857TIP3   OH250765   4.170   4.101  13.355  0.1082  0.2983 -0.5028
 8857TIP3    H150766   4.144   4.151  13.278 -0.4880  0.9116  0.0832
 8857TIP3    H250767   4.151   4.010  13.331  2.1793  0.1779 -1.9688
 8858TIP3   OH250768   1.303   4.711  11.948 -0.2717  0.2900 -0.2279
 8858TIP3    H150769   1.274   4.801  11.960  0.1817  0.2753  1.2589
 8858TIP3    H250770   1.397   4.718  11.932 -0.1145  0.0575  0.5567
 8859TIP3   OH250771   8.639   4.039  12.976  0.6772 -0.3444 -0.3025
 8859TIP3    H150772   8.606   3.976  13.039 -1.2938 -0.2312 -1.1697
 8859TIP3    H250773   8.615   4.124  13.013  0.2001 -0.2512 -0.8097
 8860TIP3   OH250774   7.210   2.142  12.601 -0.0821  0.1635  0.1080
 8860TIP3    H150775   7.276   2.198  12.561 -0.7588  2.7506  2.3083
 8860TIP3    H250776   7.141   2.135  12.535  0.6387  0.7589 -0.7354
 8861TIP3   OH250777   8.906   0.222  13.124 -0.4589  0.0535 -0.0415
 8861TIP3    H150778   8.925   0.149  13.183  1.8316 -1.5847 -2.5518
 8861TIP3    H250779   8.968   0.290  13.149  0.0816 -0.3948 -0.1268
 8862TIP3   OH250780   8.979   9.127  12.840 -0.0790 -0.0685 -0.4026
 8862TIP3    H150781   9.034   9.185  12.787 -1.7778 -0.8081 -3.1775
 8862TIP3    H250782   8.900   9.177  12.858 -0.2450 -0.4461 -0.0483
 8863TIP3   OH250783   4.221   1.233  13.348  0.2161 -0.1038  0.4609
 8863TIP3    H150784   4.139   1.188  13.367 -0.6088  1.0362 -0.2812
 8863TIP3    H250785   4.229   1.229  13.252  2.3500 -2.4039  0.6228
 8864TIP3   OH250786   5.268   3.743  12.346  0.0619  0.4446  0.7008
 8864TIP3    H150787   5.338   3.808  12.347  0.4636  0.0462 -0.1879
 8864TIP3    H250788   5.311   3.662  12.317 -0.7313  0.1625  0.2928
 8865TIP3   OH250789   7.355   5.713  12.429 -0.2799  0.3332  0.6596
 8865TIP3    H150790   7.406   5.785  12.392  2.0090 -0.5019  1.9207
 8865TIP3    H250791   7.399   5.634  12.398 -0.5311 -0.4255  2.1250
 8866TIP3   OH250792   7.622   1.431  11.444  0.2137 -0.0039  0.0243
 8866TIP3    H150793   7.695   1.402  11.389 -0.8874 -0.5040 -1.2356
 8866TIP3    H250794   7.598   1.517  11.409 -2.4446 -1.5660 -2.4493
 8867TIP3   OH250795   1.676   8.526  12.926 -0.8982  0.2476 -0.0222
 8867TIP3    H150796   1.628   8.560  12.851 -0.4456 -0.0127 -0.4346
 8867TIP3    H250797   1.740   8.593  12.946  0.6868 -0.7480 -1.4843
 8868TIP3   OH250798   2.575   8.194  12.342 -0.0668 -0.4875 -0.0316
 8868TIP3    H150799   2.626   8.204  12.261  1.2491  0.7698  0.8956
 8868TIP3    H250800   2.619   8.124  12.389  0.6468  0.3678  0.6168
 8869TIP3   OH250801   5.078   7.113  11.922  0.0740  0.1117  0.6823
 8869TIP3    H150802   5.139   7.186  11.906 -0.1695  0.1108 -0.3200
 8869TIP3    H250803   5.114   7.041  11.870 -2.0432  0.8016 -1.9889
 8870TIP3   OH250804   2.507   3.938  13.069 -0.1671  0.2057  0.0827
 8870TIP3    H150805   2.446   3.874  13.033 -1.9457  1.6209  0.4055
 8870TIP3    H250806   2.528   3.905  13.157 -0.3112 -0.4169 -0.1148
 8871TIP3   OH250807   2.959   4.523  13.508  0.2909  0.0047 -0.2907
 8871TIP3    H150808   3.046   4.499  13.475  1.3476 -0.0917  2.3245
 8871TIP3    H250809   2.971   4.612  13.543 -0.5471 -0.1523  0.4243
 8872TIP3   OH250810   3.808   3.941  12.193  0.0787  0.1194 -0.3906
 8872TIP3    H150811   3.827   3.857  12.152 -0.1422  0.4791 -1.2591
 8872TIP3    H250812   3.796   4.001  12.120 -1.2563  0.5845  0.1815
 8873TIP3   OH250813   6.629   1.741  11.383  0.7585 -0.2076 -0.4591
 8873TIP3    H150814   6.713   1.745  11.338  0.7627 -0.2761 -0.4571
 8873TIP3    H250815   6.639   1.801  11.457  0.3418  0.8247 -1.2263
 8874TIP3   OH250816   0.719   3.537  11.728  0.1042  0.3473 -0.2619
 8874TIP3    H150817   0.651   3.591  11.688 -1.4271 -1.7066 -0.5843
 8874TIP3    H250818   0.672   3.479  11.788  1.9139  0.6785  1.5806
 8875TIP3   OH250819   8.670   7.438  12.844  0.3423  0.6419 -0.1059
 8875TIP3    H150820   8.664   7.489  12.925  0.5190 -0.0144  0.3250
 8875TIP3    H250821   8.739   7.482  12.793  0.9346  0.4689  0.5326
 8876TIP3   OH250822   0.381   2.013  11.844  0.8578 -0.3993 -0.4621
 8876TIP3    H150823   0.429   1.974  11.917  1.4270 -0.0165 -0.6287
 8876TIP3    H250824   0.408   1.963  11.768  0.6234 -0.4934 -0.4847
 8877TIP3   OH250825   4.670   5.736  11.758 -0.1708 -0.3511  0.5861
 8877TIP3    H150826   4.642   5.807  11.701 -0.3104 -0.1343  0.9195
 8877TIP3    H250827   4.591   5.683  11.773  0.3407 -1.7255 -1.2519
 8878TIP3   OH250828   6.470   8.624  13.078  0.3892  0.2107 -0.3005
 8878TIP3    H150829   6.518   8.591  13.154 -0.5284 -0.5232 -0.0118
 8878TIP3    H250830   6.502   8.713  13.066  0.2062  0.5166  1.2593
 8879TIP3   OH250831   5.354   1.142  12.338 -0.1510 -0.1025 -0.5259
 8879TIP3    H150832   5.305   1.224  12.334 -0.7207 -0.4364 -0.4171
 8879TIP3    H250833   5.311   1.091  12.406  0.8801 -0.0646  0.1741
 8880TIP3   OH250834   5.467   7.360  12.514  0.2770 -0.4421  0.1710
 8880TIP3    H150835   5.399   7.345  12.580  0.1106  0.4997  0.2219
 8880TIP3    H250836   5.488   7.273  12.482  0.9734 -1.0375  2.0837
 8881TIP3   OH250837   4.539   5.215  12.484 -0.4317 -0.1872  0.2318
 8881TIP3    H150838   4.572   5.152  12.548  1.8762  1.1033  0.4158
 8881TIP3    H250839   4.538   5.166  12.401 -0.2691 -0.9357  0.6573
 8882TIP3   OH250840   5.319   3.703  13.363 -0.1745 -0.5160 -0.5292
 8882TIP3    H150841   5.368   3.665  13.290  1.2716 -0.2016  0.2375
 8882TIP3    H250842   5.313   3.796  13.343 -0.2592 -0.5188 -0.5173
 8883TIP3   OH250843   4.867   8.350  11.812 -0.8965 -0.3448 -0.2399
 8883TIP3    H150844   4.917   8.375  11.889 -0.9881 -0.3874 -0.1662
 8883TIP3    H250845   4.916   8.277  11.774 -1.1455 -0.6841  0.0859
 8884TIP3   OH250846   2.202   4.224  13.672  0.3086  0.3689 -0.3944
 8884TIP3    H150847   2.250   4.304  13.653  2.3283 -0.2129  1.7777
 8884TIP3    H250848   2.115   4.253  13.697  1.0571  1.9358  0.5139
 8885TIP3   OH250849   0.231   5.226  11.539  0.5529 -0.3172 -0.1678
 8885TIP3    H150850   0.312   5.205  11.585 -0.1307  0.5761  1.5592
 8885TIP3    H250851   0.254   5.298  11.481  1.5490 -1.7798 -1.6519
 8886TIP3   OH250852   2.237   3.927  12.123  0.1893 -0.2781 -0.5476
 8886TIP3    H150853   2.147   3.915  12.092  0.4241  0.5240 -1.5875
 8886TIP3    H250854   2.286   3.856  12.081  0.4883  0.7477 -1.9784
 8887TIP3   OH250855   0.833   2.048  12.834  0.1002 -0.3693 -0.1290
 8887TIP3    H150856   0.765   2.045  12.901 -0.9456 -0.8567 -1.1769
 8887TIP3    H250857   0.914   2.028  12.881 -0.5400 -0.2341  1.0598
 8888TIP3   OH250858   7.822   4.244  12.744  0.0160  0.3925 -0.2478
 8888TIP3    H150859   7.878   4.171  12.717 -0.1525 -0.0109  0.4616
 8888TIP3    H250860   7.776   4.211  12.821 -2.3032  0.1732 -1.6283
 8889TIP3   OH250861   0.754   1.810  11.920  0.1783 -0.0661  0.3741
 8889TIP3    H150862   0.667   1.782  11.950 -0.1955  0.2428 -0.3699
 8889TIP3    H250863   0.795   1.850  11.996 -1.0887  1.5265  0.2773
 8890TIP3   OH250864   7.749   2.021  12.505  0.1340 -0.3871  0.3750
 8890TIP3    H150865   7.707   2.044  12.423 -0.9035 -0.2229  0.9417
 8890TIP3    H250866   7.787   2.103  12.537  0.6530 -0.4777  0.0074
 8891TIP3   OH250867   7.905   7.110  12.209  0.1860  0.3614  0.2784
 8891TIP3    H150868   7.929   7.148  12.125  1.7368  0.7854  0.8717
 8891TIP3    H250869   7.949   7.025  12.211 -0.7331 -0.1277  0.2308
 8892TIP3   OH250870   0.805   1.718  12.198 -0.4934 -0.0546  0.3561
 8892TIP3    H150871   0.898   1.731  12.217 -0.3910 -1.9710  1.5063
 8892TIP3    H250872   0.781   1.642  12.252 -2.3531 -0.5302 -1.0586
 8893TIP3   OH250873   2.325   3.314  13.209  0.1002  0.3195 -0.5337
 8893TIP3    H150874   2.276   3.396  13.199 -1.4785 -0.6021 -0.6046
 8893TIP3    H250875   2.263   3.245  13.184  0.0283 -1.2338  3.2151
 8894TIP3   OH250876   5.191   5.057  13.248  0.7048 -0.0492 -0.1497
 8894TIP3    H150877   5.207   5.152  13.247 -0.2415  0.1216 -1.6058
 8894TIP3    H250878   5.165   5.036  13.159  2.0791 -1.9202 -0.1623
 8895TIP3   OH250879   8.683   8.759  12.914  0.2122  0.0598  0.0605
 8895TIP3    H150880   8.639   8.753  12.999 -0.2256 -0.1018 -0.1703
 8895TIP3    H250881   8.689   8.853  12.897  2.0229  0.1797  1.1305
 8896TIP3   OH250882   4.132   7.341  13.503 -0.2428  0.3803 -0.1685
 8896TIP3    H150883   4.052   7.343  13.557 -0.1852 -0.3136 -0.0521
 8896TIP3    H250884   4.153   7.433  13.489 -2.6153  0.6817 -2.5095
 8897TIP3   OH250885   0.565   5.192  13.592  0.6412 -0.0740 -0.1239
 8897TIP3    H150886   0.645   5.187  13.540  0.7120  2.3857 -0.3862
 8897TIP3    H250887   0.591   5.238  13.672 -0.0679 -1.2706  0.8277
 8898TIP3   OH250888   6.332   1.744  11.477  0.0093 -0.5192 -0.0392
 8898TIP3    H150889   6.416   1.718  11.438  1.0713  1.5192  0.7414
 8898TIP3    H250890   6.356   1.808  11.545 -2.2546  1.2308 -0.7682
 8899TIP3   OH250891   3.712   8.997  11.803  0.2054  0.0221  0.0694
 8899TIP3    H150892   3.700   9.029  11.714  0.2953 -2.6856 -1.0018
 8899TIP3    H250893   3.629   9.015  11.847 -0.8089 -0.9879 -1.3760
 8900TIP3   OH250894   3.770   3.227  11.766  0.0549  0.1980  0.1569
 8900TIP3    H150895   3.754   3.162  11.698  0.4385  0.3587 -0.0951
 8900TIP3    H250896   3.744   3.184  11.847 -0.2159 -0.0702 -0.0673
 8901TIP3   OH250897   3.210   0.574  11.889  0.4893  0.2693  0.1163
 8901TIP3    H150898   3.182   0.664  11.873  0.3064  0.0274 -0.9631
 8901TIP3    H250899   3.147   0.541  11.953 -2.0540 -0.3779 -2.5097
 8902TIP3   OH250900   4.099   4.000  12.890  0.5219  0.5206  0.0782
 8902TIP3    H150901   4.094   4.095  12.880 -0.8309  0.5283  0.5316
 8902TIP3    H250902   4.091   3.965  12.801 -0.9023  0.8000  0.0816
 8903TIP3   OH250903   8.318   8.840  12.729 -0.0978  0.4590 -0.5243
 8903TIP3    H150904   8.309   8.935  12.735  1.2096  0.5392  0.5144
 8903TIP3    H250905   8.305   8.809  12.819 -2.5020 -0.5712 -1.1514
 8904TIP3   OH250906   2.858   4.552  13.217  0.0190 -0.2202  0.1100
 8904TIP3    H150907   2.919   4.626  13.216  0.2334 -0.4018 -0.8684
 8904TIP3    H250908   2.890   4.495  13.287  2.0418 -1.1777 -1.4902
 8905TIP3   OH250909   8.525   8.299  13.033  0.3388  0.4636  0.6438
 8905TIP3    H150910   8.433   8.282  13.011  0.1317  1.1234  0.9471
 8905TIP3    H250911   8.549   8.374  12.979  0.4271  0.8400  1.1889
 8906TIP3   OH250912   4.150   1.495  13.358  0.7041 -0.4519 -0.4740
 8906TIP3    H150913   4.078   1.494  13.421  1.7473 -0.2886  0.7552
 8906TIP3    H250914   4.200   1.416  13.378  2.3879  0.8046  0.5464
 8907TIP3   OH250915   8.642   2.317  12.018  0.2190 -0.8568  0.0470
 8907TIP3    H150916   8.705   2.371  11.969  1.1024  0.8232  2.8111
 8907TIP3    H250917   8.565   2.313  11.960  0.8758  1.7018 -1.1871
 8908TIP3   OH250918   5.867   3.675  12.862 -0.0048  0.0258  0.3151
 8908TIP3    H150919   5.937   3.680  12.927 -0.5003  2.9024  0.7527
 8908TIP3    H250920   5.787   3.661  12.913 -0.0814 -0.5122  0.0585
 8909TIP3   OH250921   3.459   3.713  13.183 -0.0694  0.2682  0.0067
 8909TIP3    H150922   3.390   3.773  13.152  0.1276 -0.7594 -2.6646
 8909TIP3    H250923   3.541   3.760  13.165  0.0252  0.8507  1.7685
 8910TIP3   OH250924   6.925   9.013  12.729 -0.2418 -0.2162  0.1450
 8910TIP3    H150925   6.938   8.976  12.816 -0.7407 -0.2383  0.2131
 8910TIP3    H250926   6.857   8.959  12.689 -1.5492  1.0790  0.5351
 8911TIP3   OH250927   0.577   4.752  12.905 -0.5253  0.1173  0.4327
 8911TIP3    H150928   0.661   4.790  12.929 -1.0469  0.7325  1.3809
 8911TIP3    H250929   0.531   4.742  12.988 -1.0150 -1.1419  0.0345
 8912TIP3   OH250930   2.788   2.285  11.864 -0.5014 -0.6009 -0.4272
 8912TIP3    H150931   2.723   2.353  11.882  1.6500  1.6443 -0.6439
 8912TIP3    H250932   2.768   2.216  11.927 -2.2558  0.5787  0.3934
 8913TIP3   OH250933   4.485   7.846  13.337  0.3173  0.1773 -0.1666
 8913TIP3    H150934   4.414   7.896  13.376  0.5882 -0.1616  0.7778
 8913TIP3    H250935   4.523   7.905  13.271  1.3231  1.6560  1.6563
 8914TIP3   OH250936   7.128   7.322  13.182 -0.3650 -0.5473 -0.6991
 8914TIP3    H150937   7.107   7.241  13.136 -0.7815 -1.1962  0.5810
 8914TIP3    H250938   7.223   7.332  13.170 -0.3843 -0.9810 -1.2445
 8915TIP3   OH250939   7.030   5.231  12.494  0.3676  1.0737  0.2700
 8915TIP3    H150940   7.075   5.235  12.578  0.0664  0.5076  0.4602
 8915TIP3    H250941   7.083   5.171  12.442  0.6605  1.5706 -0.0150
 8916TIP3   OH250942   3.905   3.682  13.524 -0.3531 -0.3501 -0.3867
 8916TIP3    H150943   3.887   3.599  13.569 -0.2890  0.1925  0.6689
 8916TIP3    H250944   3.822   3.704  13.482 -0.9493 -0.0152  0.9067
 8917TIP3   OH250945   4.561   6.706  13.315 -0.5007  0.2293  0.0012
 8917TIP3    H150946   4.635   6.766  13.312 -0.0727 -0.2526  0.8421
 8917TIP3    H250947   4.484   6.763  13.312 -0.0990  0.8249  0.9169
 8918TIP3   OH250948   4.469   0.489  12.571 -0.2596  0.1551  0.6099
 8918TIP3    H150949   4.423   0.426  12.626 -1.0945  0.8696  0.7526
 8918TIP3    H250950   4.460   0.454  12.482 -1.0554  0.2615  0.6391
 8919TIP3   OH250951   1.075   8.890  12.474  0.0221  0.0671 -0.6876
 8919TIP3    H150952   1.069   8.805  12.429 -1.5000 -0.3734  0.2668
 8919TIP3    H250953   1.139   8.876  12.543  0.1078 -0.1692 -0.8137
 8920TIP3   OH250954   4.071   7.150  13.223  0.5172 -0.4872  0.3558
 8920TIP3    H150955   4.133   7.126  13.293  1.4101  0.2331 -0.1613
 8920TIP3    H250956   3.992   7.178  13.270  1.5785  1.3228  1.1643
 8921TIP3   OH250957   2.866   8.626  12.247 -0.1128 -0.2177  0.4539
 8921TIP3    H150958   2.894   8.634  12.155 -0.3788  2.2738  0.5238
 8921TIP3    H250959   2.807   8.701  12.260  1.0818  0.3648  3.0498
 8922TIP3   OH250960   0.810   7.944  13.000 -0.9701 -0.6045  0.7462
 8922TIP3    H150961   0.827   7.879  13.067 -0.8378  1.4306  2.7977
 8922TIP3    H250962   0.762   8.014  13.045 -0.7647  0.9168 -1.2281
 8923TIP3   OH250963   3.559   8.041  12.130  0.2102  0.0483 -0.1575
 8923TIP3    H150964   3.624   8.058  12.062  0.7099 -1.2850 -0.0435
 8923TIP3    H250965   3.597   7.971  12.183 -0.3524  0.7657  1.2537
 8924TIP3   OH250966   7.969   8.565  11.458  0.0718 -0.2096 -0.2979
 8924TIP3    H150967   7.988   8.518  11.377 -0.3843  1.1199 -1.2067
 8924TIP3    H250968   7.887   8.526  11.489  0.6673 -1.2774 -0.0182
 8925TIP3   OH250969   3.781   6.719  12.239 -0.4205  0.0725 -0.0495
 8925TIP3    H150970   3.846   6.730  12.309 -0.0311  1.5985 -0.6163
 8925TIP3    H250971   3.831   6.684  12.165 -0.6806 -0.7605  0.1471
 8926TIP3   OH250972   0.824   7.404  13.572 -0.3657  0.5334 -0.0526
 8926TIP3    H150973   0.838   7.494  13.542 -0.3540  0.2875 -0.7961
 8926TIP3    H250974   0.911   7.375  13.601  0.0667  0.0860 -1.7057
 8927TIP3   OH250975   8.633   1.399  12.104 -0.4032 -1.2538 -0.0118
 8927TIP3    H150976   8.704   1.426  12.046 -0.6858  0.2439  0.3052
 8927TIP3    H250977   8.676   1.374  12.185 -0.1613 -1.4693 -0.2020
 8928TIP3   OH250978   8.575   7.700  12.293  0.0443 -0.0278  0.0437
 8928TIP3    H150979   8.550   7.662  12.208  2.1347  0.0070 -0.6439
 8928TIP3    H250980   8.564   7.794  12.281  0.7144  0.0072 -0.3390
 8929TIP3   OH250981   8.979   5.071  12.419  0.5774 -0.7470 -0.1080
 8929TIP3    H150982   9.069   5.048  12.398  0.1921 -1.2440 -1.3305
 8929TIP3    H250983   8.927   5.028  12.351 -0.3565  2.1281 -1.3774
 8930TIP3   OH250984   0.912   4.922  11.994  0.2201  0.2087  0.4980
 8930TIP3    H150985   0.891   4.992  11.932  0.7937 -1.3761 -1.6095
 8930TIP3    H250986   0.985   4.957  12.045  0.3114  1.2599 -0.3194
 8931TIP3   OH250987   0.100   9.104  12.479 -0.1357  0.8802  0.2571
 8931TIP3    H150988   0.153   9.177  12.511  1.8073 -0.5064  0.3668
 8931TIP3    H250989   0.160   9.053  12.425 -1.3433 -0.7921  0.4239
 8932TIP3   OH250990   4.862   8.051  12.556 -0.0223 -0.9516 -0.0616
 8932TIP3    H150991   4.810   8.043  12.636 -0.2444 -1.7225 -0.2793
 8932TIP3    H250992   4.946   8.010  12.577  0.1956 -0.4681  0.0185
 8933TIP3   OH250993   4.166   8.784  12.473  0.1224 -0.4835 -0.0071
 8933TIP3    H150994   4.104   8.856  12.460 -0.9067 -1.2544  0.4750
 8933TIP3    H250995   4.197   8.763  12.386  0.0401  0.2078 -0.2104
 8934TIP3   OH250996   9.066   3.293  12.636  0.5360  0.1447  0.5331
 8934TIP3    H150997   9.098   3.359  12.574  0.4139  0.0831  0.4033
 8934TIP3    H250998   9.078   3.333  12.722  1.6180 -0.1485  0.5291
 8935TIP3   OH250999   5.038   6.561  13.808  0.3929  0.0918 -0.6988
 8935TIP3    H151000   5.099   6.496  13.774 -0.0661 -0.6858 -0.0499
 8935TIP3    H251001   4.966   6.510  13.845 -0.3932  0.9825 -0.9539
 8936TIP3   OH251002   2.641   3.884  12.381 -0.1155  0.0745 -0.0731
 8936TIP3    H151003   2.709   3.817  12.393  0.0655  0.5827  2.0753
 8936TIP3    H251004   2.673   3.937  12.308  0.8493 -0.8420 -0.3439
 8937TIP3   OH251005   2.214   3.668  12.462 -0.2908  0.4675 -0.0976
 8937TIP3    H151006   2.306   3.680  12.487 -0.0215 -1.4443  0.0067
 8937TIP3    H251007   2.217   3.617  12.382 -1.2492 -1.1372  0.8328
 8938TIP3   OH251008   2.504   6.887  12.874  0.0145  0.3367  0.1687
 8938TIP3    H151009   2.453   6.965  12.848  1.0105  1.1784  0.6748
 8938TIP3    H251010   2.439   6.827  12.910 -0.9962  0.3025 -1.5846
 8939TIP3   OH251011   8.706   1.524  13.610  0.2641 -0.6849  0.1637
 8939TIP3    H151012   8.673   1.440  13.640 -0.6393  0.1580  1.6683
 8939TIP3    H251013   8.682   1.586  13.680 -0.1653  1.0445 -1.4340
 8940TIP3   OH251014   6.344   4.319  12.150  0.2956 -0.0478 -0.1814
 8940TIP3    H151015   6.349   4.367  12.233  2.2331 -0.0812 -0.2240
 8940TIP3    H251016   6.300   4.379  12.090 -2.5498 -0.6108  1.2069
 8941TIP3   OH251017   8.002   3.176  12.340  0.8391  0.1105 -0.5972
 8941TIP3    H151018   8.046   3.148  12.259  1.3203 -1.6329  0.2117
 8941TIP3    H251019   7.920   3.215  12.310  0.5516 -1.3778 -1.9183
 8942TIP3   OH251020   0.839   4.553  12.272 -1.0057  0.0683 -0.3239
 8942TIP3    H151021   0.786   4.554  12.352 -0.6937 -1.4533 -0.0604
 8942TIP3    H251022   0.898   4.628  12.281 -3.0807  1.8175 -0.6402
 8943TIP3   OH251023   6.909   1.115  12.878  0.3273  0.5705  0.3814
 8943TIP3    H151024   6.857   1.055  12.932 -0.0543 -1.6033 -2.2012
 8943TIP3    H251025   6.854   1.132  12.801  1.7302  1.7102 -0.4198
 8944TIP3   OH251026   8.597   1.478  11.809  0.7450 -0.4833  0.3682
 8944TIP3    H151027   8.680   1.449  11.845 -0.4587 -1.8985  2.2200
 8944TIP3    H251028   8.546   1.397  11.798 -1.1018  0.4822  1.2931
 8945TIP3   OH251029   8.951   7.495  12.163 -0.1884  0.4960  0.5401
 8945TIP3    H151030   8.966   7.477  12.071 -1.6296  0.1533  0.3483
 8945TIP3    H251031   8.884   7.431  12.190  0.6339  0.1849  1.9727
 8946TIP3   OH251032   2.874   1.903  12.211  0.0504  0.6796  0.3781
 8946TIP3    H151033   2.832   1.980  12.171 -0.4431  1.2166  1.8455
 8946TIP3    H251034   2.964   1.906  12.180 -0.4373  0.7601 -1.0977
 8947TIP3   OH251035   7.105   9.052  12.446 -0.1682  0.6550 -0.1802
 8947TIP3    H151036   7.092   8.979  12.385  1.1576 -0.7008  1.0999
 8947TIP3    H251037   7.155   9.116  12.395 -0.8395  0.4453 -1.1404
 8948TIP3   OH251038   7.578   2.541  13.059 -0.0822 -0.3452 -0.1072
 8948TIP3    H151039   7.488   2.572  13.054 -0.0330  0.0995  1.2633
 8948TIP3    H251040   7.607   2.565  13.147  0.9666 -1.6138 -0.0662
 8949TIP3   OH251041   4.749   8.371  12.859 -0.0813  0.0668  0.2559
 8949TIP3    H151042   4.769   8.285  12.823 -0.4142 -0.0387  0.3167
 8949TIP3    H251043   4.675   8.356  12.918 -0.8161  0.5668 -0.5263
 8950TIP3   OH251044   6.971   2.538  12.131 -0.2868  0.5077  0.3106
 8950TIP3    H151045   7.027   2.548  12.208  0.6291 -0.3877 -0.2055
 8950TIP3    H251046   7.033   2.534  12.057 -0.9326 -1.6296 -0.1773
 8951TIP3   OH251047   8.759   7.504  13.094  0.6665  0.3916  0.4468
 8951TIP3    H151048   8.816   7.578  13.116  2.0685 -0.8596  1.2150
 8951TIP3    H251049   8.819   7.434  13.068 -0.5157 -0.9591  1.2161
 8952TIP3   OH251050   0.531   0.199  13.104 -0.0741  0.2899  0.5714
 8952TIP3    H151051   0.617   0.182  13.141  0.8275  3.1495  0.0642
 8952TIP3    H251052   0.469   0.170  13.172  1.1755 -2.2502  0.7472
 8953TIP3   OH251053   4.170   7.771  12.103  0.4314 -0.3040 -0.4929
 8953TIP3    H151054   4.266   7.773  12.103  0.4720 -1.4295  0.4260
 8953TIP3    H251055   4.147   7.680  12.087 -0.4647 -0.2054  0.1187
 8954TIP3   OH251056   6.554   8.047  12.707  0.1737 -0.1069 -0.3850
 8954TIP3    H151057   6.531   8.123  12.761 -0.1078 -0.4831  0.0353
 8954TIP3    H251058   6.589   7.984  12.770  4.9079  1.3379 -1.2104
 8955TIP3   OH251059   0.717   5.310  12.359 -0.0719 -0.1063 -0.0235
 8955TIP3    H151060   0.749   5.379  12.301  0.9352 -0.4531  0.0932
 8955TIP3    H251061   0.646   5.269  12.310 -0.8999  1.1916  0.0289
 8956TIP3   OH251062   6.590   3.155  11.659  0.1209  0.1347  0.3207
 8956TIP3    H151063   6.563   3.075  11.613 -1.6841  0.8039  0.1321
 8956TIP3    H251064   6.557   3.144  11.748  0.0629  0.5706  0.3562
 8957TIP3   OH251065   1.090   4.281  12.406 -0.0130 -0.0300  0.4408
 8957TIP3    H151066   1.098   4.274  12.501  1.0443  2.3565  0.5909
 8957TIP3    H251067   1.133   4.363  12.384 -0.2075 -0.5287 -2.1289
 8958TIP3   OH251068   7.772   3.578  13.040  0.1420  0.0077  0.4359
 8958TIP3    H151069   7.741   3.640  13.107  1.1609  0.2184  0.7219
 8958TIP3    H251070   7.777   3.494  13.086  1.0665  0.1993  0.6902
 8959TIP3   OH251071   2.489   2.119  11.455  0.3933  0.0051 -0.3932
 8959TIP3    H151072   2.413   2.105  11.398  1.1301 -1.1916 -1.1315
 8959TIP3    H251073   2.455   2.171  11.528 -1.5973 -2.0202  0.2471
 8960TIP3   OH251074   1.453   1.456  12.545 -0.2317  0.6261  0.0946
 8960TIP3    H151075   1.470   1.543  12.581  1.0146  0.2700  0.4044
 8960TIP3    H251076   1.539   1.413  12.544 -0.9081 -0.7986  0.4657
 8961TIP3   OH251077   2.540   4.313  13.126  0.7397 -0.2460  0.2768
 8961TIP3    H151078   2.501   4.353  13.204  1.1321  0.4928  0.0968
 8961TIP3    H251079   2.621   4.273  13.158 -0.1779 -1.8984  0.6773
 8962TIP3   OH251080   0.645   5.963  12.118 -0.3025 -0.2238  0.6790
 8962TIP3    H151081   0.697   5.893  12.156  0.6647 -0.7197 -1.4040
 8962TIP3    H251082   0.693   6.043  12.138 -0.7308 -0.2738  1.9592
 8963TIP3   OH251083   1.232   4.472  11.745  0.1743  0.3823 -0.0553
 8963TIP3    H151084   1.234   4.535  11.817  2.4936 -1.7503  1.9661
 8963TIP3    H251085   1.320   4.475  11.707  0.0199 -0.8750 -0.5800
 8964TIP3   OH251086   5.103   7.809  12.874 -0.4578  0.3722 -0.4703
 8964TIP3    H151087   5.081   7.864  12.948 -2.7500 -1.2605  0.1979
 8964TIP3    H251088   5.157   7.739  12.910  0.0396  0.6237 -0.7259
 8965TIP3   OH251089   7.532   8.644  12.881  0.6489 -0.3057  0.0543
 8965TIP3    H151090   7.499   8.734  12.883  0.0856 -0.5171  0.4080
 8965TIP3    H251091   7.616   8.651  12.835  0.7380  0.4358  0.3143
 8966TIP3   OH251092   0.135   4.026  12.164 -0.7609 -0.0105 -0.2929
 8966TIP3    H151093   0.061   3.971  12.190 -1.4336  0.5056 -1.0784
 8966TIP3    H251094   0.102   4.115  12.171 -0.6660  0.1872 -1.9115
 8967TIP3   OH251095   7.519   4.205  11.813 -0.6725  0.2867 -0.1306
 8967TIP3    H151096   7.499   4.274  11.749 -0.7886  0.2552 -0.1298
 8967TIP3    H251097   7.433   4.179  11.847 -0.8033 -1.0390 -1.3597
 8968TIP3   OH251098   8.291   5.974  12.543 -0.9445 -0.1226 -0.4030
 8968TIP3    H151099   8.288   6.067  12.519 -0.4861  0.3886  1.3797
 8968TIP3    H251100   8.359   5.937  12.487  0.0852  1.0017  0.0732
 8969TIP3   OH251101   3.737   3.014  11.960 -0.1614  0.4902 -0.4782
 8969TIP3    H151102   3.655   3.001  12.008  0.7132 -2.0166  0.4788
 8969TIP3    H251103   3.741   2.941  11.899  1.3598  0.5616 -0.4972
 8970TIP3   OH251104   7.384   1.180  12.196 -0.0276 -0.0297 -0.0613
 8970TIP3    H151105   7.460   1.126  12.219 -0.9707  0.0694  3.9951
 8970TIP3    H251106   7.421   1.267  12.178  0.8874  0.0978  2.1597
 8971TIP3   OH251107   5.508   2.069  12.610  0.4832 -0.0936  0.3771
 8971TIP3    H151108   5.480   2.065  12.519  0.3764  0.6222  0.3745
 8971TIP3    H251109   5.598   2.038  12.610  1.5960  2.7881 -0.4653
 8972TIP3   OH251110   7.220   0.166  12.068 -0.6493 -0.4990 -0.1302
 8972TIP3    H151111   7.270   0.106  12.013  0.7394  0.1127  0.4080
 8972TIP3    H251112   7.191   0.235  12.008  0.7085  0.0773 -0.1503
 8973TIP3   OH251113   2.548   2.020  12.707 -0.1693 -0.1256  0.0747
 8973TIP3    H151114   2.507   1.934  12.708 -0.1963 -0.1176 -0.2846
 8973TIP3    H251115   2.610   2.017  12.634  1.3765 -0.5487  1.3688
 8974TIP3   OH251116   1.401   2.821  13.035  0.6685  0.1002  0.2314
 8974TIP3    H151117   1.492   2.851  13.042  0.8453 -0.4640  0.4698
 8974TIP3    H251118   1.386   2.771  13.115  0.3924 -0.4381 -0.1430
 8975TIP3   OH251119   6.967   5.329  11.940 -0.2037  0.4168  0.2423
 8975TIP3    H151120   6.953   5.238  11.912 -2.2630  0.0015  2.3138
 8975TIP3    H251121   6.988   5.375  11.859  0.1203 -1.7431 -1.0017
 8976TIP3   OH251122   8.851   6.674  11.808  0.4573 -0.0928  0.0193
 8976TIP3    H151123   8.919   6.650  11.745 -0.9125  0.5132 -1.8183
 8976TIP3    H251124   8.862   6.768  11.821  0.9893 -0.2854  1.0489
 8977TIP3   OH251125   8.159   0.678  11.878 -0.8390  0.1736  0.2597
 8977TIP3    H151126   8.182   0.648  11.966 -0.8205 -2.5201 -0.5681
 8977TIP3    H251127   8.126   0.767  11.890  2.1359  1.1560  2.5707
 8978TIP3   OH251128   7.500   8.573  13.174  0.4545  0.2124  0.1114
 8978TIP3    H151129   7.453   8.646  13.214  0.3957  0.3818 -0.2597
 8978TIP3    H251130   7.544   8.612  13.098  0.5995 -0.0932  0.0378
 8979TIP3   OH251131   5.476   4.183  12.571 -0.2377 -0.6763 -0.2874
 8979TIP3    H151132   5.402   4.122  12.574  0.9267 -2.1502 -0.3942
 8979TIP3    H251133   5.511   4.182  12.660 -0.8485  0.7109 -0.0002
 8980TIP3   OH251134   1.408   5.348  12.144 -0.4391  0.1861 -0.2879
 8980TIP3    H151135   1.424   5.350  12.239  1.6024  0.6270 -0.6073
 8980TIP3    H251136   1.424   5.257  12.119  1.0441  0.4704 -0.4846
 8981TIP3   OH251137   9.194   1.397  11.636  0.0677  0.3959  0.1032
 8981TIP3    H151138   9.217   1.486  11.610  0.6807 -0.1159 -1.2206
 8981TIP3    H251139   9.222   1.343  11.562 -0.7108 -0.8479  0.6859
 8982TIP3   OH251140   5.703   8.015  12.305  0.6234 -0.1671  0.2128
 8982TIP3    H151141   5.705   7.925  12.275 -1.9815  0.0556 -0.9331
 8982TIP3    H251142   5.755   8.063  12.241 -0.4369 -0.4775 -0.9130
 8983TIP3   OH251143   7.824   8.155  11.836 -0.7630 -0.0455 -0.8857
 8983TIP3    H151144   7.863   8.094  11.773 -4.2139 -4.3556  0.6708
 8983TIP3    H251145   7.858   8.127  11.921 -0.6838  1.8147 -0.2675
 8984TIP3   OH251146   8.830   3.381  13.409  0.4243 -0.0835 -0.2317
 8984TIP3    H151147   8.748   3.376  13.459  0.3160 -0.8352 -0.4808
 8984TIP3    H251148   8.806   3.353  13.321  0.4219  2.1072 -0.9900
 8985TIP3   OH251149   7.013   5.114  13.067 -0.2422 -0.1260 -0.4993
 8985TIP3    H151150   7.108   5.116  13.059 -0.1116 -0.2848  0.7975
 8985TIP3    H251151   6.987   5.206  13.071  0.0033 -0.0960  0.5542
 8986TIP3   OH251152   8.827   5.706  12.706  0.7073 -0.1507  0.3267
 8986TIP3    H151153   8.776   5.652  12.767 -0.9398  0.8705 -0.0752
 8986TIP3    H251154   8.855   5.645  12.638 -1.7399 -0.4523 -0.5101
 8987TIP3   OH251155   2.294   7.917  13.518  0.0303 -0.5434  0.5463
 8987TIP3    H151156   2.210   7.875  13.500 -1.4909  1.6966  1.8582
 8987TIP3    H251157   2.329   7.871  13.594 -1.0361 -0.2066  1.2545
 8988TIP3   OH251158   7.790   4.012  12.917 -0.7276 -0.3290  0.0324
 8988TIP3    H151159   7.846   3.938  12.894 -1.1253 -0.3982 -0.7330
 8988TIP3    H251160   7.833   4.051  12.994  1.7030  1.0311 -1.8512
 8989TIP3   OH251161   2.767   1.553  13.477 -0.0703  0.3476 -0.3594
 8989TIP3    H151162   2.685   1.570  13.523 -0.3232  0.8573 -0.9793
 8989TIP3    H251163   2.814   1.492  13.534 -0.8733  0.0490 -0.0008
 8990TIP3   OH251164   1.448   3.040  13.810  0.1316  0.4175 -0.3024
 8990TIP3    H151165   1.368   3.072  13.768  0.0857  1.2923  0.4178
 8990TIP3    H251166   1.453   2.948  13.785 -2.8040 -0.5621  2.1153
 8991TIP3   OH251167   8.189   1.309  12.797  0.0819  0.0418 -0.2651
 8991TIP3    H151168   8.161   1.234  12.745 -0.3496  0.0970 -0.1170
 8991TIP3    H251169   8.179   1.384  12.737 -1.6036  0.2821  0.2469
 8992TIP3   OH251170   6.632   2.841  13.214  0.0429  0.4017 -0.1864
 8992TIP3    H151171   6.564   2.908  13.204  2.1957  3.2337  2.4854
 8992TIP3    H251172   6.701   2.867  13.154  0.4455 -0.1290  0.0358
 8993TIP3   OH251173   2.849   5.513  12.717  0.5077 -0.1854  0.8398
 8993TIP3    H151174   2.860   5.503  12.812  0.0449 -0.0490  0.9071
 8993TIP3    H251175   2.831   5.606  12.704  0.2151 -0.2664  0.6548
 8994TIP3   OH251176   3.178   2.767  12.036  0.3916 -0.1027 -0.9015
 8994TIP3    H151177   3.161   2.847  12.085 -0.9176 -0.0482 -1.3831
 8994TIP3    H251178   3.227   2.711  12.096  0.9275  0.8766 -0.4082
 8995TIP3   OH251179   2.490   0.318  13.558 -0.0562  0.8014 -0.2459
 8995TIP3    H151180   2.419   0.335  13.497 -1.3486  0.7637  1.1879
 8995TIP3    H251181   2.473   0.231  13.592 -0.4486  1.5238  1.5157
 8996TIP3   OH251182   0.239   0.517  12.249  0.3227  0.2460  0.2418
 8996TIP3    H151183   0.233   0.438  12.195 -0.4496  0.7605 -0.4524
 8996TIP3    H251184   0.325   0.554  12.229  0.6285 -0.3381  0.4641
 8997TIP3   OH251185   6.578   2.762  11.829  0.5229  0.4691  0.3633
 8997TIP3    H151186   6.543   2.800  11.749  1.1861  1.2107  0.4103
 8997TIP3    H251187   6.665   2.730  11.805  0.1302 -0.6982  0.4214
 8998TIP3   OH251188   0.654   3.852  11.942 -0.0714  0.2220  0.8091
 8998TIP3    H151189   0.661   3.816  11.853  0.1263  0.7391  0.6137
 8998TIP3    H251190   0.727   3.812  11.989  0.0501  0.2434  0.6392
 8999TIP3   OH251191   0.958   3.795  12.535 -0.1833  0.0267  0.4134
 8999TIP3    H151192   0.956   3.890  12.531  1.3488  0.0509 -0.2543
 8999TIP3    H251193   0.900   3.766  12.465 -0.4942  0.4545  0.4916
 9000TIP3   OH251194   4.289   4.150  11.907 -0.3997  0.1506 -0.1674
 9000TIP3    H151195   4.365   4.092  11.904 -0.8551 -0.5007  0.5231
 9000TIP3    H251196   4.214   4.091  11.908 -0.8625  0.7143  1.2027
 9001TIP3   OH251197   5.132   0.100  12.127 -0.1134 -0.1681  0.3890
 9001TIP3    H151198   5.191   0.138  12.062 -1.6865  1.0230 -0.4041
 9001TIP3    H251199   5.044   0.122  12.096 -0.9439 -0.1054  2.6124
 9002TIP3   OH251200   6.316   5.938  11.566  0.4173 -0.0092  0.4586
 9002TIP3    H151201   6.410   5.948  11.577  0.3492  0.6174  0.5263
 9002TIP3    H251202   6.278   6.008  11.620 -0.1258 -0.9359  1.3250
 9003TIP3   OH251203   3.362   2.875  11.341  0.0171  0.3076 -0.0235
 9003TIP3    H151204   3.310   2.892  11.264 -2.4397 -0.1795  1.4228
 9003TIP3    H251205   3.358   2.956  11.392 -0.1572 -0.0665  0.5630
 9004TIP3   OH251206   8.804   7.280  12.261 -0.5479  0.3450  0.0709
 9004TIP3    H151207   8.750   7.299  12.337 -1.1766 -0.6264 -0.1100
 9004TIP3    H251208   8.829   7.188  12.272 -2.5758 -0.5529 -2.0190
 9005TIP3   OH251209   5.895   4.576  13.096 -0.3906  0.5143 -0.7003
 9005TIP3    H151210   5.841   4.498  13.083  0.8172 -0.8805  1.9873
 9005TIP3    H251211   5.964   4.548  13.157  2.0516  2.8118 -2.1789
 9006TIP3   OH251212   0.470   5.410  12.585 -0.5017  0.2231 -0.1638
 9006TIP3    H151213   0.398   5.463  12.549  0.4617  2.2704  0.7698
 9006TIP3    H251214   0.427   5.338  12.631 -1.9064  0.7446 -0.6259
 9007TIP3   OH251215   3.739   8.922  13.610  0.0097  0.1078 -0.0442
 9007TIP3    H151216   3.834   8.919  13.609  0.0350  0.5050  0.4472
 9007TIP3    H251217   3.718   9.016  13.603 -0.3602 -0.0274 -0.8575
 9008TIP3   OH251218   1.552   5.088  12.135 -0.4838  0.0911 -0.1369
 9008TIP3    H151219   1.579   5.008  12.181  0.2443  0.6964  0.5395
 9008TIP3    H251220   1.586   5.077  12.046  2.2615  0.8504  0.6920
 9009TIP3   OH251221   3.517   3.340  12.733  0.5217  0.1650  0.1716
 9009TIP3    H151222   3.513   3.336  12.829 -1.1905 -0.8217  0.1130
 9009TIP3    H251223   3.522   3.249  12.706  0.3531  0.4069 -0.6918
 9010TIP3   OH251224   1.383   2.325  12.611 -0.1327  0.4281 -0.0585
 9010TIP3    H151225   1.448   2.386  12.576  1.0710 -1.3661 -1.1442
 9010TIP3    H251226   1.308   2.380  12.633  0.6656  2.2307 -1.5128
 9011TIP3   OH251227   5.704   6.995  12.872  0.2244 -0.1900 -0.1411
 9011TIP3    H151228   5.632   7.017  12.813 -0.9133 -2.3035  0.3603
 9011TIP3    H251229   5.681   7.036  12.955  0.3408  0.2993 -0.3424
 9012TIP3   OH251230   4.608   6.368  12.613 -0.2076 -0.1146 -0.3314
 9012TIP3    H151231   4.608   6.330  12.525 -1.3608 -1.2006  0.0970
 9012TIP3    H251232   4.700   6.382  12.633  0.1740 -1.2774 -1.1394
 9013TIP3   OH251233   3.812   8.433  13.308 -0.4432 -0.0907 -0.0108
 9013TIP3    H151234   3.818   8.362  13.372 -0.8895 -1.1654 -1.1234
 9013TIP3    H251235   3.789   8.389  13.226 -1.6494  1.4449 -0.5363
 9014TIP3   OH251236   8.105   6.943  12.777 -0.0866 -0.1056  0.3001
 9014TIP3    H151237   8.107   7.031  12.815  0.8613  0.2800 -0.6112
 9014TIP3    H251238   8.167   6.893  12.829  0.0213 -0.0044  0.2688
 9015TIP3   OH251239   2.139   6.829  13.194 -0.4996 -0.2720 -0.4539
 9015TIP3    H151240   2.117   6.851  13.284 -1.9330 -1.2905 -0.5207
 9015TIP3    H251241   2.197   6.900  13.165 -0.3643  0.2817  1.1162
 9016TIP3   OH251242   8.610   6.906  13.052  0.0381  0.1274  0.7066
 9016TIP3    H151243   8.517   6.931  13.053 -0.2810 -1.0173  1.4849
 9016TIP3    H251244   8.622   6.858  13.133  0.6071 -2.2061 -0.6876
 9017TIP3   OH251245   7.678   1.586  12.433  0.2132  0.1879  0.1110
 9017TIP3    H151246   7.718   1.500  12.445 -0.2979 -0.4126 -1.9649
 9017TIP3    H251247   7.585   1.567  12.417 -0.0446  1.1882  0.3241
 9018TIP3   OH251248   0.853   2.042  11.772  0.1384  0.3878  0.2837
 9018TIP3    H151249   0.854   2.136  11.785 -0.3050  0.5848 -0.9440
 9018TIP3    H251250   0.783   2.010  11.829 -0.4894  0.9583 -0.1468
 9019TIP3   OH251251   1.418   9.209  13.267  0.0760  0.2186 -0.3201
 9019TIP3    H151252   1.373   9.138  13.313 -0.7851  0.9495 -0.0063
 9019TIP3    H251253   1.453   9.264  13.337  2.4153 -0.8648 -0.5357
 9020TIP3   OH251254   9.091   5.759  12.778  0.2228 -0.2475 -0.1457
 9020TIP3    H151255   9.015   5.718  12.738  1.4153 -2.5444 -0.2275
 9020TIP3    H251256   9.078   5.750  12.872  0.6854 -1.3054 -0.1670
 9021TIP3   OH251257   4.632   0.994  11.764 -0.1096  0.6387  0.7691
 9021TIP3    H151258   4.600   1.063  11.707 -2.0334 -0.8315 -0.0321
 9021TIP3    H251259   4.661   1.040  11.843 -1.3198  2.3492  0.2699
 9022TIP3   OH251260   8.139   2.795  13.259  0.3401  0.1663  0.0273
 9022TIP3    H151261   8.050   2.790  13.295 -0.0752  0.9309 -0.8492
 9022TIP3    H251262   8.178   2.711  13.282 -0.0125  0.4678  1.9136
 9023TIP3   OH251263   6.980   7.939  11.986  0.2664 -0.2200  0.1463
 9023TIP3    H151264   6.920   7.881  11.940  1.8668 -0.9092 -1.1987
 9023TIP3    H251265   7.041   7.881  12.031  1.2370  0.3940 -0.3260
 9024TIP3   OH251266   8.600   5.708  12.202 -0.2097 -0.1885  0.5046
 9024TIP3    H151267   8.667   5.660  12.250  0.4905 -1.4834 -1.6210
 9024TIP3    H251268   8.518   5.667  12.227  0.0151 -0.1250  1.3817
 9025TIP3   OH251269   5.275   8.399  12.532  0.6667  0.1090  0.0475
 9025TIP3    H151270   5.321   8.331  12.482  0.8328 -0.5746  1.0886
 9025TIP3    H251271   5.313   8.394  12.620 -0.7573  0.1343  0.6923
 9026TIP3   OH251272   6.063   4.565  12.441 -0.1651  0.4424  0.3940
 9026TIP3    H151273   6.035   4.556  12.532  1.4350  2.5302  1.1887
 9026TIP3    H251274   6.032   4.652  12.415  2.3384  1.3782  0.1919
 9027TIP3   OH251275   3.530   6.600  13.479 -0.3078 -0.4620  0.0584
 9027TIP3    H151276   3.516   6.664  13.409  0.0687 -0.0312  0.3682
 9027TIP3    H251277   3.589   6.535  13.440  0.6908  0.2904  0.2541
 9028TIP3   OH251278   6.528   2.803  12.414 -0.8494 -0.3327 -0.1756
 9028TIP3    H151279   6.565   2.813  12.327 -0.5814  0.8291  0.0571
 9028TIP3    H251280   6.507   2.710  12.421 -0.3046 -0.5445 -1.2429
 9029TIP3   OH251281   1.383   1.121  11.764  0.0493  0.7548  0.0138
 9029TIP3    H151282   1.360   1.065  11.690  0.1126 -0.2875  0.7561
 9029TIP3    H251283   1.478   1.108  11.774 -0.0732  0.3471  0.6966
 9030TIP3   OH251284   4.115   5.153  12.860 -0.1987  0.1867  0.3726
 9030TIP3    H151285   4.124   5.148  12.955 -0.0062  1.4902  0.4387
 9030TIP3    H251286   4.189   5.103  12.826 -1.2744 -1.8690  0.8683
 9031TIP3   OH251287   5.579   3.083  12.527 -0.3284  0.0001  0.2972
 9031TIP3    H151288   5.514   3.152  12.542 -0.7098  0.0460 -1.3572
 9031TIP3    H251289   5.635   3.119  12.458  3.2933  1.1647  3.5184
 9032TIP3   OH251290   6.945   3.278  12.543 -0.3176  0.1892 -0.2596
 9032TIP3    H151291   7.013   3.259  12.609 -1.4013 -2.2580  0.2562
 9032TIP3    H251292   6.987   3.258  12.459  0.1170  0.4012 -0.0994
 9033TIP3   OH251293   4.534   6.186  12.380  0.3935  0.7710 -0.4385
 9033TIP3    H151294   4.481   6.230  12.314  0.3201  0.6166 -0.4815
 9033TIP3    H251295   4.560   6.104  12.339 -1.0675 -0.1161  0.3368
 9034TIP3   OH251296   7.696   0.449  12.806 -0.1173  0.2814  0.0606
 9034TIP3    H151297   7.614   0.479  12.844 -0.0735  0.7608 -0.2092
 9034TIP3    H251298   7.743   0.529  12.785 -0.1068  0.0355 -0.9210
 9035TIP3   OH251299   1.948   0.242  12.737  0.2899  0.0897 -0.4588
 9035TIP3    H151300   2.004   0.168  12.761 -0.5550 -0.4988 -0.2518
 9035TIP3    H251301   1.881   0.204  12.681 -0.9842  0.4093  0.7944
 9036TIP3   OH251302   7.019   0.542  12.954 -0.6515 -0.0755  0.2635
 9036TIP3    H151303   6.977   0.480  13.013 -0.1354 -1.2991 -0.6025
 9036TIP3    H251304   7.072   0.487  12.896 -0.3250  1.1722 -0.6572
 9037TIP3   OH251305   1.138   2.047  12.330  0.4111 -0.5175 -0.1935
 9037TIP3    H151306   1.069   1.981  12.324 -0.2947  0.2427 -0.6479
 9037TIP3    H251307   1.100   2.116  12.384  0.2213  0.6030 -1.6926
 9038TIP3   OH251308   4.025   1.544  11.525 -0.0971  0.0936 -0.4005
 9038TIP3    H151309   3.983   1.523  11.608 -1.6042 -0.3237 -1.2237
 9038TIP3    H251310   4.069   1.627  11.540 -1.9133  0.9729  0.3075
 9039TIP3   OH251311   3.577   2.752  13.018  0.1540 -0.0798 -0.0151
 9039TIP3    H151312   3.666   2.735  13.048  0.4729 -1.0070 -1.3471
 9039TIP3    H251313   3.521   2.717  13.088  0.8002  1.0222  1.0916
 9040TIP3   OH251314   2.865   7.418  12.827  0.3095 -0.9755  0.7731
 9040TIP3    H151315   2.846   7.477  12.754 -0.5093 -0.5591  1.2989
 9040TIP3    H251316   2.944   7.455  12.867 -0.0444 -0.3788  0.9416
 9041TIP3   OH251317   6.722   1.382  12.919 -0.4048 -1.0637  0.4183
 9041TIP3    H151318   6.746   1.472  12.894  1.4902 -2.1698 -2.2777
 9041TIP3    H251319   6.634   1.390  12.955 -0.4989  1.8265 -0.2022
 9042TIP3   OH251320   2.644   3.073  12.599 -0.0106  0.5052 -0.2717
 9042TIP3    H151321   2.620   2.995  12.648  1.9342  0.1129  0.1344
 9042TIP3    H251322   2.634   3.145  12.662  2.4703  0.0030  0.7789
 9043TIP3   OH251323   8.576   6.642  12.045  0.6512  0.0151 -0.1390
 9043TIP3    H151324   8.664   6.669  12.075  0.1751  1.4122  0.0748
 9043TIP3    H251325   8.566   6.553  12.079  1.6320  0.1714  0.6302
 9044TIP3   OH251326   2.519   1.944  12.180  0.0941  0.0764 -0.0949
 9044TIP3    H151327   2.428   1.941  12.210 -0.1899  1.8638 -0.6878
 9044TIP3    H251328   2.571   1.935  12.260 -0.6381  1.9164  0.6396
 9045TIP3   OH251329   2.603   0.718  11.848  0.7851 -0.1764  0.2600
 9045TIP3    H151330   2.540   0.782  11.813  0.4008  0.4971  2.0527
 9045TIP3    H251331   2.660   0.770  11.906  1.2280 -1.2569  0.8220
 9046TIP3   OH251332   3.677   1.553  12.113  0.3841 -0.4012  0.0206
 9046TIP3    H151333   3.714   1.480  12.162  0.3742 -0.3112  0.1618
 9046TIP3    H251334   3.582   1.540  12.120  0.3157  0.6053  1.5624
 9047TIP3   OH251335   1.015   7.688  12.981 -0.4043  0.4953 -0.0192
 9047TIP3    H151336   1.078   7.635  12.931  0.2616  0.3725  0.9181
 9047TIP3    H251337   0.932   7.675  12.936 -0.2378 -1.2483  0.0908
 9048TIP3   OH251338   6.323   5.441  12.148 -0.0023  0.2495  0.5747
 9048TIP3    H151339   6.231   5.432  12.124  0.2356 -0.8314 -0.0133
 9048TIP3    H251340   6.370   5.432  12.064  0.7013 -0.6914  1.0505
 9049TIP3   OH251341   2.352   8.610  12.573  0.0033  0.1531  0.1335
 9049TIP3    H151342   2.390   8.695  12.552  0.1399 -0.3210 -1.7130
 9049TIP3    H251343   2.399   8.548  12.518 -0.9350 -0.9531  0.5293
 9050TIP3   OH251344   2.841   3.158  12.053  0.6983 -0.3729 -0.5894
 9050TIP3    H151345   2.920   3.129  12.008  0.0629 -1.2568 -1.1681
 9050TIP3    H251346   2.771   3.102  12.019 -0.0762 -0.0331  0.3668
 9051TIP3   OH251347   6.488   2.383  12.870 -0.0517 -0.3082  0.0943
 9051TIP3    H151348   6.401   2.392  12.832  0.6449 -1.0144 -1.8010
 9051TIP3    H251349   6.524   2.471  12.869 -0.7368 -0.0066  0.9157
 9052TIP3   OH251350   7.875   2.253  12.643  0.0630 -0.0327 -0.2797
 9052TIP3    H151351   7.787   2.271  12.675  0.0225  0.6639 -0.7669
 9052TIP3    H251352   7.898   2.330  12.591  0.9651 -0.1969 -0.1396
 9053TIP3   OH251353   3.907   5.658  13.020  0.1518  0.0235 -0.1967
 9053TIP3    H151354   3.924   5.568  13.050 -0.9003  0.1156  0.7453
 9053TIP3    H251355   3.904   5.710  13.100 -0.2609  0.7219 -0.6558
 9054TIP3   OH251356   4.447   8.206  12.786  0.6260  0.5970  0.2813
 9054TIP3    H151357   4.433   8.232  12.877  0.7518  2.6016 -0.2279
 9054TIP3    H251358   4.531   8.160  12.787  0.3306  0.0649  1.2701
 9055TIP3   OH251359   1.368   7.171  13.027  0.6033  0.2075  0.2811
 9055TIP3    H151360   1.346   7.247  13.082  1.2445  1.8561 -1.6272
 9055TIP3    H251361   1.393   7.209  12.943  2.8388 -2.0136 -0.1713
 9056TIP3   OH251362   6.096   5.716  13.002 -0.1194  0.3406 -0.3714
 9056TIP3    H151363   6.036   5.787  13.026  0.4517  0.5997  0.2984
 9056TIP3    H251364   6.063   5.640  13.050 -0.3627  0.2942 -0.6056
 9057TIP3   OH251365   6.807   7.749  11.834  0.0159  0.2238  0.3733
 9057TIP3    H151366   6.804   7.815  11.765  0.1339 -0.4561 -0.2931
 9057TIP3    H251367   6.861   7.679  11.798 -0.9221 -0.6739  0.6688
 9058TIP3   OH251368   3.859   7.024  12.970 -0.0657  0.4173 -0.1989
 9058TIP3    H151369   3.825   7.032  13.059 -0.6281  2.3726 -0.5314
 9058TIP3    H251370   3.886   6.933  12.962 -0.9697 -0.0499  1.6272
 9059TIP3   OH251371   0.031   6.031  11.926 -0.4432  0.2088  0.2475
 9059TIP3    H151372   0.025   6.095  11.855 -0.5933  0.8340  0.8168
 9059TIP3    H251373   0.097   5.969  11.895 -0.3845  0.5611 -0.3681
 9060TIP3   OH251374   8.846   4.953  12.222 -0.3664 -0.4168 -0.7277
 9060TIP3    H151375   8.784   5.003  12.169 -1.4642  2.0992  2.5366
 9060TIP3    H251376   8.803   4.869  12.239 -2.7074  1.0040  0.8531
 9061TIP3   OH251377   0.981   4.567  11.709  0.1159 -0.0241 -0.0912
 9061TIP3    H151378   0.923   4.491  11.716  0.0251  0.1342  1.1609
 9061TIP3    H251379   1.067   4.529  11.692 -0.1609 -0.3139 -0.9347
 9062TIP3   OH251380   0.347   0.976  12.003 -0.3037 -0.4303 -0.1517
 9062TIP3    H151381   0.337   0.951  12.095 -3.8578  2.2396  0.3996
 9062TIP3    H251382   0.427   1.027  12.000 -0.8344  0.5950  1.8314
 9063TIP3   OH251383   6.222   2.046  12.224  0.4814 -0.3771  0.1070
 9063TIP3    H151384   6.171   1.978  12.180  0.5735 -0.1877 -0.2872
 9063TIP3    H251385   6.157   2.107  12.258  0.4381 -0.1949 -0.2990
 9064TIP3   OH251386   2.706   3.241  13.326  0.1702 -0.0936 -0.4238
 9064TIP3    H151387   2.687   3.150  13.306  0.5629 -0.0603 -0.9646
 9064TIP3    H251388   2.780   3.237  13.387  0.5767 -0.1207 -0.9151
 9065TIP3   OH251389   7.861   6.850  11.954 -0.3158 -0.5304  0.2021
 9065TIP3    H151390   7.936   6.903  11.983 -0.5809 -1.7350  3.5101
 9065TIP3    H251391   7.813   6.908  11.895  1.2684  1.6359  0.8945
 9066TIP3   OH251392   8.537   5.309  11.967  0.4264 -0.8978 -0.1062
 9066TIP3    H151393   8.538   5.372  12.039  0.1281 -2.0235  0.8971
 9066TIP3    H251394   8.480   5.350  11.902 -0.1541 -0.3433  0.7240
 9067TIP3   OH251395   3.333   7.294  12.089 -0.1178  0.1790 -0.1721
 9067TIP3    H151396   3.419   7.322  12.058  0.8957 -0.4624  1.9051
 9067TIP3    H251397   3.309   7.223  12.029  1.2954 -0.3473 -0.1548
 9068TIP3   OH251398   1.782   2.591  12.974 -0.4457 -0.1884  0.1345
 9068TIP3    H151399   1.707   2.561  12.924 -0.5688 -0.5164  0.5098
 9068TIP3    H251400   1.770   2.552  13.061  1.1603 -1.8816 -0.3349
 9069TIP3   OH251401   6.266   7.562  12.765  0.1870  1.4758  0.0857
 9069TIP3    H151402   6.294   7.652  12.779  1.7944  0.5689  4.1954
 9069TIP3    H251403   6.173   7.561  12.789  0.1156  2.0328 -0.1589
 9070TIP3   OH251404   1.594   6.120  11.813 -0.0929 -0.1139 -0.1146
 9070TIP3    H151405   1.513   6.111  11.763  0.3750 -1.7634 -0.6595
 9070TIP3    H251406   1.567   6.154  11.898 -1.4646 -1.3034 -0.0425
 9071TIP3   OH251407   2.533   1.417  12.168 -0.3918  0.0130 -0.6915
 9071TIP3    H151408   2.484   1.412  12.086 -0.5035 -0.0027 -0.6242
 9071TIP3    H251409   2.495   1.493  12.213 -0.5006 -0.1306 -0.5428
 9072TIP3   OH251410   8.549   2.483  12.224  0.1964  0.2084  0.5475
 9072TIP3    H151411   8.569   2.402  12.178  0.3852 -0.8730  2.4118
 9072TIP3    H251412   8.627   2.538  12.213  1.3198 -1.0843  1.7316
 9073TIP3   OH251413   1.613   5.751  12.094 -0.0764  0.1255 -0.2896
 9073TIP3    H151414   1.693   5.804  12.102 -0.3265  0.7539 -1.6790
 9073TIP3    H251415   1.643   5.661  12.105  0.4731  0.4892  1.3772
 9074TIP3   OH251416   0.066   7.957  12.367  0.2772  0.3004 -0.1513
 9074TIP3    H151417   0.092   7.919  12.450 -0.0756 -3.2623 -1.4998
 9074TIP3    H251418   0.136   8.019  12.345  1.7057 -0.6468  1.5334
 9075TIP3   OH251419   1.932   1.662  12.786 -0.0781  0.5692  0.0849
 9075TIP3    H151420   1.851   1.615  12.805 -0.2783  0.5958 -0.6564
 9075TIP3    H251421   1.905   1.754  12.781 -0.5811  0.3668 -2.8691
 9076TIP3   OH251422   1.274   4.985  11.654 -0.7040 -0.0453  0.0175
 9076TIP3    H151423   1.246   5.024  11.737 -2.9422 -0.1383 -0.6347
 9076TIP3    H251424   1.204   5.007  11.592  0.2515 -1.1326 -1.5146
 9077TIP3   OH251425   5.139   1.635  13.218 -0.0471  0.5084  0.1001
 9077TIP3    H151426   5.201   1.650  13.289 -0.7836  2.8772  0.3132
 9077TIP3    H251427   5.053   1.633  13.261 -0.3190 -0.5116 -0.4552
 9078TIP3   OH251428   0.355   2.012  13.379  0.1212  0.2059 -0.6342
 9078TIP3    H151429   0.336   2.104  13.396  0.3858  0.1640 -0.0917
 9078TIP3    H251430   0.435   2.012  13.327  1.1190  0.2358  0.8406
 9079TIP3   OH251431   0.711   6.906  12.029  0.4817  0.3478  0.7598
 9079TIP3    H151432   0.756   6.910  12.114  1.5221  0.7764  0.2016
 9079TIP3    H251433   0.621   6.880  12.051  0.3642  1.7628  2.1178
 9080TIP3   OH251434   6.290   6.284  13.118 -0.3058 -0.3948  0.9458
 9080TIP3    H151435   6.243   6.364  13.096  0.4541 -0.4755 -1.1848
 9080TIP3    H251436   6.222   6.217  13.124 -0.9666  0.3875  2.9038
 9081TIP3   OH251437   9.150   3.490  13.054  0.3421 -0.7551 -0.0360
 9081TIP3    H151438   9.096   3.421  13.014 -2.1863  0.3854  1.1477
 9081TIP3    H251439   9.125   3.488  13.146  2.3269 -0.0610  0.5506
 9082TIP3   OH251440   5.622   6.277  13.476 -0.1932  0.0037 -0.3959
 9082TIP3    H151441   5.712   6.251  13.456  0.7391  2.6156  0.0008
 9082TIP3    H251442   5.574   6.194  13.480  1.6952 -1.3427 -2.7591
 9083TIP3   OH251443   3.081   0.335  12.451  0.5707 -0.5145 -0.2767
 9083TIP3    H151444   3.084   0.422  12.410 -1.1327 -0.1181  0.3427
 9083TIP3    H251445   3.164   0.329  12.498  1.0445  0.4705 -0.9363
 9084TIP3   OH251446   5.806   0.206  11.965 -0.6897  0.2772  0.2365
 9084TIP3    H151447   5.773   0.137  12.023  2.3249 -0.5597  1.1094
 9084TIP3    H251448   5.730   0.231  11.912 -2.3240 -2.4610  1.0915
 9085TIP3   OH251449   5.703   5.806  12.021 -0.4261 -0.0561  0.1295
 9085TIP3    H151450   5.718   5.712  12.021 -0.4587 -0.0726 -0.8050
 9085TIP3    H251451   5.643   5.821  12.095  0.2135 -0.6483  0.7746
 9086TIP3   OH251452   8.298   0.336  12.688 -0.1716 -0.8082  0.2808
 9086TIP3    H151453   8.308   0.246  12.660  1.1135 -0.4330 -0.5312
 9086TIP3    H251454   8.220   0.335  12.744 -0.7480 -2.2218 -0.4997
 9087TIP3   OH251455   7.952   4.490  12.025  0.0543 -0.7047 -0.2415
 9087TIP3    H151456   7.894   4.499  12.101  0.8906 -0.7521  0.4237
 9087TIP3    H251457   7.921   4.410  11.981 -0.4251 -0.6932  0.0630
 9088TIP3   OH251458   4.495   1.144  13.386 -0.8064 -0.3850 -0.0528
 9088TIP3    H151459   4.400   1.154  13.380 -0.9428 -1.5486 -0.0532
 9088TIP3    H251460   4.514   1.156  13.479 -0.8085  0.8898 -0.2004
 9089TIP3   OH251461   1.572   1.795  13.580  0.3434  0.2079  0.3482
 9089TIP3    H151462   1.479   1.775  13.588 -0.2706  2.5439  0.0223
 9089TIP3    H251463   1.603   1.741  13.507 -0.5993 -1.0157  0.8356
 9090TIP3   OH251464   3.022   6.472  12.477  0.5647 -0.0264  0.1045
 9090TIP3    H151465   3.109   6.439  12.501  1.2321  0.6646 -1.2335
 9090TIP3    H251466   3.034   6.510  12.390 -0.8678  0.9717  0.3051
 9091TIP3   OH251467   3.287   1.287  13.224 -0.2384  0.3001 -0.1841
 9091TIP3    H151468   3.346   1.248  13.160 -0.1805  0.9413 -0.5298
 9091TIP3    H251469   3.201   1.281  13.183  0.0276  2.3676 -1.1633
 9092TIP3   OH251470   2.406   0.702  12.109 -0.0647 -0.0929 -0.4773
 9092TIP3    H151471   2.324   0.725  12.153  0.2627  0.1031  0.0401
 9092TIP3    H251472   2.466   0.772  12.134  0.9013 -1.3721  0.9619
 9093TIP3   OH251473   8.929   2.784  12.422 -0.0073  0.1623  0.0022
 9093TIP3    H151474   9.001   2.839  12.391  1.5444 -1.5455  0.4230
 9093TIP3    H251475   8.910   2.816  12.510 -0.1525  0.9796 -0.3180
 9094TIP3   OH251476   1.123   4.176  11.783 -0.3230 -0.1680  0.5606
 9094TIP3    H151477   1.176   4.249  11.748 -0.0849 -1.2341 -1.4714
 9094TIP3    H251478   1.113   4.196  11.876  0.4682  2.0093  0.2378
 9095TIP3   OH251479   4.083   1.355  12.443 -0.1550 -0.5519  0.5207
 9095TIP3    H151480   4.070   1.266  12.476 -1.1607 -0.3358  0.7455
 9095TIP3    H251481   4.032   1.410  12.503  0.8416  0.2307  0.6645
 9096TIP3   OH251482   3.598   0.590  13.750 -0.0606  0.0706 -0.1356
 9096TIP3    H151483   3.648   0.672  13.742  0.8092 -0.5191 -0.9746
 9096TIP3    H251484   3.658   0.523  13.718 -0.2557 -1.1018  1.8465
 9097TIP3   OH251485   2.257   6.288  11.589 -0.0175 -0.2192  0.4218
 9097TIP3    H151486   2.315   6.360  11.564 -0.8257 -0.1097 -1.2774
 9097TIP3    H251487   2.315   6.212  11.598  0.4898  0.0125 -0.7012
 9098TIP3   OH251488   6.575   5.427  12.279 -0.6968 -0.1916  0.2625
 9098TIP3    H151489   6.489   5.443  12.240 -1.0543 -1.3925  0.5084
 9098TIP3    H251490   6.618   5.367  12.218 -0.6894 -0.9154  0.9752
 9099TIP3   OH251491   8.367   2.677  12.227  0.4024 -0.6189  0.0312
 9099TIP3    H151492   8.417   2.733  12.168  1.4725  1.4838  2.7492
 9099TIP3    H251493   8.417   2.596  12.232  1.4361 -0.0089 -0.2956
 9100TIP3   OH251494   7.997   7.378  12.288 -0.5517 -0.3915  0.2073
 9100TIP3    H151495   8.021   7.389  12.379 -2.0979  0.4103  0.5497
 9100TIP3    H251496   7.980   7.284  12.279 -0.8036 -0.4114  0.8555
 9101TIP3   OH251497   6.944   6.579  13.069  0.1861  0.0404 -1.1401
 9101TIP3    H151498   6.913   6.662  13.033 -1.1532 -0.6951 -1.7646
 9101TIP3    H251499   6.971   6.528  12.993  0.6053 -0.2453 -0.8042
 9102TIP3   OH251500   2.861   4.726  11.463  0.7793  0.5028  0.0725
 9102TIP3    H151501   2.767   4.715  11.479  1.4174 -0.6698  4.1433
 9102TIP3    H251502   2.876   4.821  11.471  0.0352  0.6310 -0.0238
 9103TIP3   OH251503   3.111   6.817  11.965 -0.2125  0.3829 -0.1763
 9103TIP3    H151504   3.103   6.771  12.049  3.0300 -0.4160 -0.1748
 9103TIP3    H251505   3.048   6.773  11.908 -0.5575 -0.8788  1.1226
 9104TIP3   OH251506   3.361   5.127  12.304  0.3931  0.4636 -0.5875
 9104TIP3    H151507   3.437   5.073  12.321 -0.2662 -0.3209 -0.0582
 9104TIP3    H251508   3.290   5.064  12.286 -0.4657  1.1295  0.3526
 9105TIP3   OH251509   1.638   7.656  12.010  0.1286 -0.0270 -0.2280
 9105TIP3    H151510   1.713   7.665  12.069  0.0190  1.5472 -0.2965
 9105TIP3    H251511   1.672   7.608  11.935  0.8872  0.0516  0.0595
 9106TIP3   OH251512   1.450   4.885  12.781  0.4845  0.5262 -0.0699
 9106TIP3    H151513   1.544   4.879  12.762  0.4257  1.5811 -0.7722
 9106TIP3    H251514   1.437   4.976  12.807 -0.3967  0.4570 -0.2465
 9107TIP3   OH251515   2.758   1.308  12.718 -0.7863 -0.1199 -0.1309
 9107TIP3    H151516   2.727   1.244  12.654  0.6997  0.3559 -1.3802
 9107TIP3    H251517   2.848   1.281  12.737 -0.8852  0.3191  1.0328
 9108TIP3   OH251518   7.287   5.154  13.027  0.5305 -0.0231  0.1417
 9108TIP3    H151519   7.272   5.173  12.935  0.3035 -0.4165  0.0945
 9108TIP3    H251520   7.290   5.240  13.069 -2.2140  0.1380  0.1960
 9109TIP3   OH251521   0.405   3.048  12.468 -0.0647  0.0709 -0.5161
 9109TIP3    H151522   0.396   3.091  12.553  2.6106  1.0513 -0.6503
 9109TIP3    H251523   0.445   2.963  12.488 -1.1069 -0.4815 -0.6784
 9110TIP3   OH251524   8.235   3.784  11.640  0.0972 -0.1754  0.8239
 9110TIP3    H151525   8.181   3.705  11.645 -2.1235  1.2889  1.4652
 9110TIP3    H251526   8.224   3.815  11.550 -0.2922  0.2008  0.9955
 9111TIP3   OH251527   4.168   8.871  11.948 -0.4703 -0.4033  0.5764
 9111TIP3    H151528   4.171   8.865  11.852 -1.3174 -0.4154  0.5435
 9111TIP3    H251529   4.076   8.888  11.968 -0.3862 -0.8832  1.4137
 9112TIP3   OH251530   4.800   3.974  12.931 -0.0794  0.1388  0.4257
 9112TIP3    H151531   4.882   4.023  12.929 -0.8091  1.3823  0.3232
 9112TIP3    H251532   4.747   4.018  12.997 -1.0863  0.0498 -0.2966
 9113TIP3   OH251533   1.123   5.288  13.669  0.4824 -0.2152 -0.1735
 9113TIP3    H151534   1.067   5.314  13.596 -0.7969  1.1654  1.2246
 9113TIP3    H251535   1.065   5.239  13.727  0.6651  1.2762  1.3338
 9114TIP3   OH251536   7.820   3.436  12.800 -0.5117 -0.3339 -0.0788
 9114TIP3    H151537   7.808   3.451  12.894  1.9510 -0.0042  0.2534
 9114TIP3    H251538   7.853   3.346  12.795 -1.7403 -0.7806 -0.7928
 9115TIP3   OH251539   5.194   0.867  12.078  0.2836 -0.4733 -0.1235
 9115TIP3    H151540   5.103   0.858  12.053  0.8521 -0.5247 -2.3794
 9115TIP3    H251541   5.242   0.810  12.018  1.9477  1.0004 -0.3058
 9116TIP3   OH251542   0.870   3.053  13.049 -0.6535  0.0170 -0.6121
 9116TIP3    H151543   0.951   3.077  13.004 -0.0438 -0.0421  0.4240
 9116TIP3    H251544   0.885   3.078  13.140 -1.5188 -0.6756 -0.2673
 9117TIP3   OH251545   2.785   4.756  12.135 -0.6005  0.0188  0.3553
 9117TIP3    H151546   2.813   4.666  12.154  0.3386  0.3760  0.7251
 9117TIP3    H251547   2.768   4.756  12.041  0.2250 -0.3356  0.1986
 9118TIP3   OH251548   4.151   4.570  12.021  0.0252  0.3089 -0.3476
 9118TIP3    H151549   4.235   4.539  12.053 -0.9927 -0.4385  1.8188
 9118TIP3    H251550   4.135   4.651  12.070 -0.7931  0.0971 -0.2549
 9119TIP3   OH251551   3.366   2.111  12.699 -0.1001  0.4029  0.4859
 9119TIP3    H151552   3.380   2.164  12.621 -0.6130 -0.8068 -0.4731
 9119TIP3    H251553   3.371   2.020  12.667 -0.9782 -0.1143  1.7284
 9120TIP3   OH251554   0.089   6.117  12.199  0.3443 -0.3770 -0.4035
 9120TIP3    H151555   0.061   6.142  12.111 -0.3716  0.2242 -0.0179
 9120TIP3    H251556   0.178   6.084  12.188  0.2620 -0.2930 -1.3501
 9121TIP3   OH251557   3.263   1.293  12.079  0.3827  0.2047  0.3648
 9121TIP3    H151558   3.356   1.313  12.086  0.0595  2.2017 -0.5500
 9121TIP3    H251559   3.223   1.339  12.153 -0.0694  0.7321 -0.2022
 9122TIP3   OH251560   5.317   5.897  12.553  0.4237  0.0748  0.0108
 9122TIP3    H151561   5.294   5.984  12.521 -1.0479 -0.5617 -0.7572
 9122TIP3    H251562   5.374   5.860  12.485  0.2322  0.0666 -0.1453
 9123TIP3   OH251563   3.713   0.751  12.285 -0.2890  0.5891 -0.7139
 9123TIP3    H151564   3.747   0.811  12.218 -0.4263 -0.2609 -1.5749
 9123TIP3    H251565   3.658   0.806  12.340  0.5241  1.4848 -0.7723
 9124TIP3   OH251566   0.137   1.512  11.919  1.1359 -0.2277 -0.1585
 9124TIP3    H151567   0.111   1.500  12.010 -1.4444  0.5010 -0.7445
 9124TIP3    H251568   0.128   1.425  11.879 -1.5077  0.1587 -0.5559
 9125TIP3   OH251569   6.199   3.231  12.058  0.4563  0.5506  0.0221
 9125TIP3    H151570   6.116   3.276  12.073  0.1105 -0.3249  0.7999
 9125TIP3    H251571   6.175   3.155  12.005  1.0145  1.1683 -1.1541
 9126TIP3   OH251572   6.002   6.012  12.610  0.1137  0.8458  0.4364
 9126TIP3    H151573   6.092   6.011  12.576  0.4850 -2.5441  1.1615
 9126TIP3    H251574   6.007   6.066  12.689  1.8696 -0.2760  1.1532
 9127TIP3   OH251575   9.004   6.544  12.593  0.1135  0.2580 -0.9438
 9127TIP3    H151576   9.073   6.496  12.548  1.9220  3.3888 -1.7912
 9127TIP3    H251577   8.930   6.542  12.533  0.0334 -1.5793 -0.8377
 9128TIP3   OH251578   3.518   0.034  12.896 -0.4136 -0.1624  0.1767
 9128TIP3    H151579   3.513  -0.060  12.878 -0.8348 -0.3335  1.1259
 9128TIP3    H251580   3.612   0.053  12.901 -0.2839 -0.2343 -1.4310
 9129TIP3   OH251581   6.264   2.456  11.675  0.4012 -0.1718  0.3376
 9129TIP3    H151582   6.188   2.462  11.733 -0.7134  1.2027 -1.1715
 9129TIP3    H251583   6.250   2.373  11.628 -0.7138  0.5018 -0.5846
 9130TIP3   OH251584   0.882   7.847  12.118  0.0844 -0.0343 -0.4327
 9130TIP3    H151585   0.841   7.898  12.049 -0.3710 -0.2221 -0.3041
 9130TIP3    H251586   0.976   7.859  12.105  0.0288 -0.6382 -1.5214
 9131TIP3   OH251587   0.441   1.108  12.875 -0.2729  0.4735  0.2392
 9131TIP3    H151588   0.457   1.120  12.969 -0.7296 -1.6656  0.6459
 9131TIP3    H251589   0.423   1.014  12.866  0.4130  0.5230 -2.1033
 9132TIP3   OH251590   1.941   6.864  12.535 -0.3272  0.3324  0.1391
 9132TIP3    H151591   2.004   6.925  12.573 -0.1871  0.4768 -0.3125
 9132TIP3    H251592   1.984   6.779  12.540 -0.6831  0.2006  1.1278
 9133TIP3   OH251593   9.201   2.584  11.839  0.1164  0.2346 -0.3519
 9133TIP3    H151594   9.203   2.510  11.900 -0.5453 -0.2543 -0.9058
 9133TIP3    H251595   9.178   2.545  11.755  1.3964  0.8516 -1.0084
 9134TIP3   OH251596   8.629   4.590  11.867 -0.3492  0.0362 -0.6294
 9134TIP3    H151597   8.686   4.516  11.848  1.5750  1.2721  0.1107
 9134TIP3    H251598   8.604   4.579  11.959 -0.5491 -0.0035 -0.6874
 9135TIP3   OH251599   5.425   7.897  12.633 -0.4106 -0.0250 -0.5540
 9135TIP3    H151600   5.467   7.811  12.635  0.6614  0.4846 -0.2447
 9135TIP3    H251601   5.334   7.879  12.614 -0.5309 -1.3761  1.0228
 9136TIP3   OH251602   7.370   0.601  12.555 -0.4313  0.0821 -0.3487
 9136TIP3    H151603   7.451   0.551  12.566 -1.6271 -1.9844 -0.3030
 9136TIP3    H251604   7.397   0.693  12.556  1.6283 -0.4473  2.0115
 9137TIP3   OH251605   5.123   5.471  13.449  0.1304  0.0439  0.1524
 9137TIP3    H151606   5.201   5.417  13.435  0.8038  1.3414 -1.3397
 9137TIP3    H251607   5.153   5.542  13.505  0.7062  1.8062 -2.2128
 9138TIP3   OH251608   5.237   7.414  13.218 -0.2367 -0.2086 -0.1245
 9138TIP3    H151609   5.181   7.362  13.274 -0.8166  0.0910 -0.4125
 9138TIP3    H251610   5.309   7.443  13.275 -0.3753 -0.5874  0.2451
 9139TIP3   OH251611   8.965   5.755  13.624 -0.2230 -0.3201 -0.1023
 9139TIP3    H151612   8.913   5.675  13.638 -0.6664  0.1477  1.1259
 9139TIP3    H251613   8.978   5.759  13.530 -0.5360 -1.6333 -0.2268
 9140TIP3   OH251614   2.809   2.234  13.255 -0.1048 -0.2949  0.1297
 9140TIP3    H151615   2.881   2.253  13.316  0.4092  1.1950 -0.8927
 9140TIP3    H251616   2.826   2.290  13.179 -0.5032 -2.4159 -1.5991
 9141TIP3   OH251617   5.162   3.806  12.724  0.4110 -0.0948 -0.5437
 9141TIP3    H151618   5.236   3.760  12.763  0.4107  0.1220 -0.2868
 9141TIP3    H251619   5.089   3.792  12.785  0.2170 -0.3696 -0.8314
 9142TIP3   OH251620   3.361   5.707  11.855 -0.3745  0.3410  0.2688
 9142TIP3    H151621   3.413   5.779  11.818 -0.2681  0.2671  0.2767
 9142TIP3    H251622   3.422   5.634  11.863 -0.3467  0.4240  0.7989
 9143TIP3   OH251623   6.908   6.144  12.108 -0.1324  0.2598  0.5311
 9143TIP3    H151624   6.962   6.131  12.186 -1.8680  0.4675  1.8321
 9143TIP3    H251625   6.861   6.226  12.124  0.1779  0.8137 -1.1851
 9144TIP3   OH251626   2.291   8.999  13.046  0.1234  0.4721  0.3456
 9144TIP3    H151627   2.376   9.041  13.061  0.2026 -0.0369  1.4111
 9144TIP3    H251628   2.241   9.016  13.125 -0.9856  1.2110 -0.4790
 9145TIP3   OH251629   8.385   6.318  12.800 -0.5469  0.3093 -0.3287
 9145TIP3    H151630   8.370   6.412  12.787  0.6147  0.5181 -0.2572
 9145TIP3    H251631   8.453   6.313  12.867 -1.7833 -0.6335  0.9047
 9146TIP3   OH251632   2.299   1.863  12.877 -0.3093  0.1864 -0.1722
 9146TIP3    H151633   2.384   1.846  12.836 -0.4741 -0.2697 -0.3272
 9146TIP3    H251634   2.277   1.781  12.920 -0.2522  0.5759  0.6309
 9147TIP3   OH251635   7.490   1.243  11.856 -0.1841  0.3474 -0.4353
 9147TIP3    H151636   7.511   1.171  11.915  0.2938 -0.3600 -1.4465
 9147TIP3    H251637   7.474   1.317  11.914  0.8104 -0.1849  0.5590
 9148TIP3   OH251638   8.067   6.235  12.111 -0.1372 -0.0053  0.0062
 9148TIP3    H151639   8.158   6.252  12.135  0.1493  1.2541 -1.7539
 9148TIP3    H251640   8.073   6.178  12.034 -0.9118 -1.3662  0.9215
 9149TIP3   OH251641   7.658   7.861  12.092 -0.3041  0.0867 -0.2187
 9149TIP3    H151642   7.693   7.939  12.050 -0.2957  0.2738  0.1365
 9149TIP3    H251643   7.728   7.829  12.148 -0.9757  0.9575  1.1676
 9150TIP3   OH251644   4.463   5.101  12.875  0.2773  0.3911 -0.3860
 9150TIP3    H151645   4.480   5.183  12.921  1.3013  0.0709 -0.1773
 9150TIP3    H251646   4.401   5.055  12.931  1.5396 -0.0101  0.7200
 9151TIP3   OH251647   1.458   6.406  12.480  0.7123  0.1750  0.1725
 9151TIP3    H151648   1.473   6.320  12.518 -1.3850 -0.8215 -1.0549
 9151TIP3    H251649   1.385   6.443  12.529  1.2865  1.0721  0.3824
 9152TIP3   OH251650   1.285   1.665  12.097 -0.4897 -0.1458  0.2192
 9152TIP3    H151651   1.252   1.582  12.064  1.4523 -0.9603  0.1985
 9152TIP3    H251652   1.296   1.719  12.019 -1.4764  0.0356  0.2007
 9153TIP3   OH251653   5.480   4.491  12.557 -0.4363  0.3302 -0.4226
 9153TIP3    H151654   5.472   4.396  12.549  2.3607  0.0488 -1.0633
 9153TIP3    H251655   5.477   4.522  12.466 -0.8758  0.8139 -0.2455
 9154TIP3   OH251656   0.965   1.686  12.690 -0.1205  0.0633  0.8677
 9154TIP3    H151657   0.877   1.722  12.682 -0.0199  1.1955  3.5874
 9154TIP3    H251658   0.951   1.595  12.717 -0.5010  0.3270  1.5987
 9155TIP3   OH251659   1.524   5.079  11.798 -0.0821  0.0720 -0.3743
 9155TIP3    H151660   1.470   5.034  11.733 -1.7578 -0.2531  1.1661
 9155TIP3    H251661   1.595   5.018  11.817 -1.3040 -1.1693  0.3336
 9156TIP3   OH251662   8.337   6.496  12.504 -0.5673 -0.1848 -0.5222
 9156TIP3    H151663   8.299   6.563  12.561  0.5173 -1.5064  1.9064
 9156TIP3    H251664   8.412   6.538  12.463 -0.2047  0.2528  0.5737
 9157TIP3   OH251665   6.953   6.500  11.695 -0.4092 -0.1555 -0.2437
 9157TIP3    H151666   7.048   6.492  11.700 -0.3387  1.0641  0.8235
 9157TIP3    H251667   6.937   6.594  11.700 -1.7605 -0.4390  1.6205
 9158TIP3   OH251668   5.269   1.624  11.440  0.6252  0.7186  0.3312
 9158TIP3    H151669   5.212   1.700  11.427  0.0000  0.1417 -0.4178
 9158TIP3    H251670   5.209   1.549  11.442  1.1411  0.3210  2.0832
 9159TIP3   OH251671   4.380   2.229  13.460  0.0778  0.1972  0.4413
 9159TIP3    H151672   4.318   2.210  13.390 -0.0324 -2.1094  1.0654
 9159TIP3    H251673   4.327   2.231  13.540  0.4468  1.0002  0.6779
 9160TIP3   OH251674   1.026   6.712  13.323  0.0319  0.3477  0.1983
 9160TIP3    H151675   0.963   6.675  13.384  1.2745 -2.1255  0.1414
 9160TIP3    H251676   1.103   6.655  13.332  0.9742  1.1294 -2.1958
 9161TIP3   OH251677   3.091   3.563  12.299  0.0758 -0.3500 -0.5272
 9161TIP3    H151678   3.127   3.573  12.387  0.0682 -0.1045 -0.5510
 9161TIP3    H251679   3.059   3.473  12.296 -2.8316  0.5048  0.8350
 9162TIP3   OH251680   8.484   4.184  12.778  0.0499 -0.0769 -0.1434
 9162TIP3    H151681   8.565   4.150  12.817  1.4704  1.4950 -1.4922
 9162TIP3    H251682   8.458   4.117  12.715  0.3084 -0.5977  0.2951
 9163TIP3   OH251683   1.531   1.026  12.093  0.0266  0.0882 -0.3182
 9163TIP3    H151684   1.564   1.084  12.024  2.0305  0.0375  0.5362
 9163TIP3    H251685   1.581   0.946  12.083 -1.7739 -1.0530 -0.6348
 9164TIP3   OH251686   0.856   4.117  11.962  0.3348  0.1978  0.0862
 9164TIP3    H151687   0.828   4.029  11.986  0.2698  0.3242  0.4710
 9164TIP3    H251688   0.889   4.155  12.043  1.6240  0.0564 -0.3585
 9165TIP3   OH251689   5.647   7.697  12.344  0.4262  0.6139  0.4671
 9165TIP3    H151690   5.652   7.696  12.439 -1.8293  0.2769  0.6509
 9165TIP3    H251691   5.553   7.687  12.325  1.0606 -2.7393 -1.8433
 9166TIP3   OH251692   2.169   0.881  12.680  0.1181  0.4531 -0.5462
 9166TIP3    H151693   2.242   0.931  12.716  1.3210 -0.3336 -1.7782
 9166TIP3    H251694   2.176   0.795  12.722  1.3549 -0.3753 -2.3286
 9167TIP3   OH251695   4.912   0.244  12.084  0.2278 -0.4562  0.1520
 9167TIP3    H151696   4.820   0.223  12.100 -0.0185  0.4871  0.0635
 9167TIP3    H251697   4.916   0.263  11.990  0.5033 -0.4797  0.1585
 9168TIP3   OH251698   7.668   3.721  13.255 -0.0995  0.0276 -0.2267
 9168TIP3    H151699   7.627   3.808  13.262  0.6735  0.4604 -0.9070
 9168TIP3    H251700   7.761   3.738  13.269  0.3612 -0.3420 -2.5083
 9169TIP3   OH251701   3.829   6.253  12.037  0.0904  0.0739  0.5331
 9169TIP3    H151702   3.800   6.261  11.946  1.1190  0.2062  0.2060
 9169TIP3    H251703   3.763   6.197  12.078 -0.1338 -0.3795 -0.4047
 9170TIP3   OH251704   8.717   8.435  12.429 -0.3775 -0.1074  0.6059
 9170TIP3    H151705   8.799   8.471  12.461  1.1594 -1.5932 -1.4267
 9170TIP3    H251706   8.719   8.343  12.457 -1.0138 -0.3427 -0.0841
 9171TIP3   OH251707   6.363   4.499  13.162 -0.2936 -0.1841 -0.0848
 9171TIP3    H151708   6.406   4.547  13.091  0.4085  1.0496  1.1293
 9171TIP3    H251709   6.433   4.446  13.201 -0.7407 -1.0849 -0.4781
 9172TIP3   OH251710   0.876   5.930  12.865  0.6409 -0.1887 -0.6784
 9172TIP3    H151711   0.878   5.916  12.960  2.2898 -1.7155 -0.8812
 9172TIP3    H251712   0.946   5.993  12.849  1.2509 -0.9328 -0.9942
 9173TIP3   OH251713   1.003   6.238  11.709 -0.0207 -0.2832 -0.0832
 9173TIP3    H151714   1.078   6.290  11.740  0.9102 -2.0434  0.8061
 9173TIP3    H251715   0.927   6.277  11.752  0.5136  0.9573 -0.2457
 9174TIP3   OH251716   8.304   0.932  12.787 -0.1294  0.6562 -0.5705
 9174TIP3    H151717   8.233   0.992  12.768 -1.1439  0.0768  1.1163
 9174TIP3    H251718   8.352   0.923  12.705 -2.2883  0.6881 -1.9073
 9175TIP3   OH251719   4.818   7.056  12.771 -0.3734  0.0932 -0.4785
 9175TIP3    H151720   4.812   6.962  12.757 -0.5587  0.3083 -2.0410
 9175TIP3    H251721   4.813   7.067  12.866 -1.6985 -1.3668 -0.3476
 9176TIP3   OH251722   5.000   6.185  12.636 -0.1139 -0.3521 -0.2590
 9176TIP3    H151723   5.092   6.211  12.625 -0.4467  1.5374  1.1153
 9176TIP3    H251724   4.989   6.112  12.574  2.4852 -1.1122  0.0551
 9177TIP3   OH251725   0.501   7.571  13.174  0.0917 -0.4771 -0.3544
 9177TIP3    H151726   0.583   7.555  13.220 -0.6065 -2.1389  0.4269
 9177TIP3    H251727   0.485   7.490  13.126 -1.3206 -0.3917 -0.0749
 9178TIP3   OH251728   3.935   0.169  12.576  0.3608  0.4305  0.6277
 9178TIP3    H151729   3.990   0.228  12.526  0.4322 -1.2467 -1.4383
 9178TIP3    H251730   3.847   0.184  12.542  0.3043 -0.2563  0.4557
 9179TIP3   OH251731   8.053   3.591  11.743  0.0989  0.6101  0.6764
 9179TIP3    H151732   8.086   3.637  11.821  2.3293  1.8543 -0.8891
 9179TIP3    H251733   7.979   3.645  11.714  1.2719  2.0050  0.1581
 9180TIP3   OH251734   8.845   8.634  11.764 -0.4998 -0.1813  0.1320
 9180TIP3    H151735   8.759   8.627  11.722 -0.4323 -1.1447  0.1456
 9180TIP3    H251736   8.882   8.714  11.727 -1.9306  0.9874  1.1049
 9181TIP3   OH251737   0.163   1.326  13.214 -0.2847 -0.2962  0.5168
 9181TIP3    H151738   0.090   1.370  13.258 -0.4857 -1.3024  1.2187
 9181TIP3    H251739   0.133   1.316  13.124  0.1381  1.8053  0.0892
 9182TIP3   OH251740   3.747   8.720  12.637  0.5001  0.1502  0.1341
 9182TIP3    H151741   3.774   8.720  12.729  1.0330  0.7319 -0.0139
 9182TIP3    H251742   3.651   8.720  12.640  0.5111 -0.3567  0.6811
 9183TIP3   OH251743   5.399   6.445  12.537 -0.1737  0.1239 -0.0425
 9183TIP3    H151744   5.334   6.514  12.548 -0.0446  0.0711  1.1958
 9183TIP3    H251745   5.461   6.480  12.473 -0.6289  0.7545 -0.1428
 9184TIP3   OH251746   0.265   5.719  14.013  0.4169  0.7149 -0.1753
 9184TIP3    H151747   0.279   5.626  14.031  1.5745  0.7901 -0.6190
 9184TIP3    H251748   0.348   5.761  14.037 -0.2328  1.6909  0.4011
 9185TIP3   OH251749   8.854   6.139  12.636 -0.3869 -0.3367 -0.5143
 9185TIP3    H151750   8.925   6.176  12.584 -0.4392  0.7548  0.1588
 9185TIP3    H251751   8.790   6.210  12.644 -0.4369 -0.5093  0.9300
 9186TIP3   OH251752   8.326   0.910  11.645 -0.7526  0.2568  0.2278
 9186TIP3    H151753   8.321   0.951  11.558 -0.4480  0.8065  0.4684
 9186TIP3    H251754   8.307   0.818  11.628 -0.6485  0.3465 -0.4340
 9187TIP3   OH251755   3.654   3.018  11.599  0.5097 -0.0460  0.0334
 9187TIP3    H151756   3.564   3.047  11.589  0.3065 -1.1549 -1.6391
 9187TIP3    H251757   3.662   2.941  11.544  2.7566  0.6052 -0.7011
 9188TIP3   OH251758   1.390   6.758  11.877 -0.0077  0.1099 -0.2507
 9188TIP3    H151759   1.403   6.823  11.946  0.2331  1.1758 -1.2708
 9188TIP3    H251760   1.357   6.681  11.923 -1.6703  1.4020  0.8527
 9189TIP3   OH251761   2.783   2.280  11.459 -0.5091  0.1677  0.2377
 9189TIP3    H151762   2.728   2.329  11.520  0.7755 -0.8583  2.3179
 9189TIP3    H251763   2.723   2.216  11.420 -1.3422  0.7810  0.4789
 9190TIP3   OH251764   7.192   7.016  11.628 -0.9947  0.2735 -0.8016
 9190TIP3    H151765   7.199   6.970  11.712 -1.9334 -1.0454 -1.3986
 9190TIP3    H251766   7.236   6.958  11.566  0.1079  1.4582 -1.1633
 9191TIP3   OH251767   1.773   9.101  12.777  0.2127 -0.2052  0.0584
 9191TIP3    H151768   1.763   9.187  12.737  0.8483 -0.9147 -1.7020
 9191TIP3    H251769   1.693   9.054  12.753  0.5371 -0.5920 -0.2689
 9192TIP3   OH251770   4.412   7.428  13.111 -0.7161  0.3046 -0.3478
 9192TIP3    H151771   4.419   7.461  13.201  0.2064  2.8766 -1.2841
 9192TIP3    H251772   4.340   7.479  13.073  0.1390  0.6031 -1.6025
 9193TIP3   OH251773   7.148   3.622  12.683 -0.3638  0.6406 -0.3614
 9193TIP3    H151774   7.212   3.552  12.681 -0.3802  0.6378 -1.8524
 9193TIP3    H251775   7.063   3.577  12.679 -0.3632  0.7199 -2.1866
 9194TIP3   OH251776   0.469   4.204  11.882 -0.7276  0.0015 -0.5701
 9194TIP3    H151777   0.479   4.277  11.944 -0.5436 -0.7704  0.3374
 9194TIP3    H251778   0.495   4.241  11.797 -1.4852  1.2301 -0.2992
 9195TIP3   OH251779   0.824   8.719  12.293  0.3882 -0.1411  0.4042
 9195TIP3    H151780   0.915   8.707  12.266 -0.0638 -1.0729 -0.8056
 9195TIP3    H251781   0.801   8.636  12.335  0.2293  0.2621  1.1231
 9196TIP3   OH251782   8.776   2.164  11.740  0.2451  0.1869  0.2736
 9196TIP3    H151783   8.779   2.209  11.655 -1.4913  0.5701  0.3720
 9196TIP3    H251784   8.791   2.233  11.804 -2.5975  0.7975  0.4341
 9197TIP3   OH251785   4.028   2.836  13.344  0.4568 -0.0093  0.2008
 9197TIP3    H151786   4.071   2.752  13.329  0.8124  0.2437 -0.2041
 9197TIP3    H251787   4.098   2.901  13.339  0.2797  0.2629  1.0917
 9198TIP3   OH251788   2.475   6.086  12.846 -0.2194  0.2425 -0.1740
 9198TIP3    H151789   2.562   6.126  12.854 -1.0673  2.0126  0.7851
 9198TIP3    H251790   2.489   5.994  12.869  1.4640  0.4073 -0.4245
 9199TIP3   OH251791   3.048   0.199  12.768 -0.2682  0.5589 -0.1083
 9199TIP3    H151792   3.087   0.280  12.735  1.7199 -0.2949 -0.0252
 9199TIP3    H251793   3.103   0.176  12.844 -0.0845 -1.4081 -0.7763
 9200TIP3   OH251794   6.693   0.199  12.988 -0.5568 -0.1062 -0.0171
 9200TIP3    H151795   6.636   0.258  12.938  0.1487  0.6503  0.0557
 9200TIP3    H251796   6.773   0.249  13.001 -0.6514 -0.3494  1.7271
 9201TIP3   OH251797   3.116   6.795  12.912 -0.8949  0.2022  0.3817
 9201TIP3    H151798   3.038   6.748  12.941 -0.1923 -0.8156  0.6954
 9201TIP3    H251799   3.186   6.763  12.969 -0.5342  2.3509  1.2575
 9202TIP3   OH251800   0.931   5.399  13.143  0.3023 -0.1317 -0.1383
 9202TIP3    H151801   0.904   5.394  13.052 -1.1329 -0.4445  0.2790
 9202TIP3    H251802   0.920   5.492  13.166  0.2493 -0.1292 -0.1741
 9203TIP3   OH251803   1.916   7.072  12.003  0.1867 -0.2738 -0.2442
 9203TIP3    H151804   1.947   7.110  12.085 -1.4028 -0.6938  0.5967
 9203TIP3    H251805   1.822   7.087  12.003 -0.1519 -2.1229 -0.9949
 9204TIP3   OH251806   5.535   1.215  11.981  0.1759 -0.8226 -0.0905
 9204TIP3    H151807   5.450   1.189  12.017 -0.1564 -0.6351 -0.7270
 9204TIP3    H251808   5.589   1.137  11.988  0.5793 -0.3957  2.1485
 9205TIP3   OH251809   6.353   8.421  11.580 -0.0133  0.1837  0.4170
 9205TIP3    H151810   6.420   8.449  11.643  0.9919  2.4265 -1.4807
 9205TIP3    H251811   6.373   8.329  11.562 -0.2033 -0.4658  3.1178
 9206TIP3   OH251812   2.567   3.199  11.629  0.3036  0.1332  0.0574
 9206TIP3    H151813   2.578   3.140  11.554 -0.1799  1.4255 -1.0763
 9206TIP3    H251814   2.473   3.203  11.643  0.4038 -0.3123  0.9468
 9207TIP3   OH251815   7.449   4.866  11.879  0.3134 -0.1946 -0.4425
 9207TIP3    H151816   7.537   4.890  11.908  0.2583 -1.0381  0.4460
 9207TIP3    H251817   7.462   4.805  11.807  0.4882 -1.6868  0.8149
 9208TIP3   OH251818   1.333   8.951  13.650 -0.2974  0.3101 -0.3160
 9208TIP3    H151819   1.371   8.865  13.669 -0.4021 -0.2807 -2.5260
 9208TIP3    H251820   1.238   8.938  13.660 -0.2562  0.4721  0.3631
 9209TIP3   OH251821   7.103   6.274  12.353  0.0216 -0.4149  0.0426
 9209TIP3    H151822   7.194   6.246  12.344  0.0132 -0.6010  0.5209
 9209TIP3    H251823   7.054   6.193  12.368 -0.0734 -0.1996  0.9112
 9210TIP3   OH251824   2.020   0.592  11.935 -0.3139  0.3967 -0.0303
 9210TIP3    H151825   2.082   0.519  11.939 -0.0449  0.5281 -1.1957
 9210TIP3    H251826   2.072   0.666  11.902 -0.9865  0.6191 -0.6233
 9211TIP3   OH251827   8.634   6.050  11.973 -0.1333  0.4154 -0.4211
 9211TIP3    H151828   8.709   6.044  12.032 -0.6540 -1.5615  0.0954
 9211TIP3    H251829   8.671   6.085  11.891  1.4147 -0.8009 -0.2886
 9212TIP3   OH251830   3.957   0.543  11.678 -0.7405  0.0201  0.2896
 9212TIP3    H151831   3.913   0.493  11.610 -1.3453 -0.1729  0.8070
 9212TIP3    H251832   4.048   0.548  11.650 -0.9558 -0.1789 -0.4541
 9213TIP3   OH251833   7.095   6.586  12.649 -0.0018 -0.6018 -0.0042
 9213TIP3    H151834   7.165   6.600  12.713  1.5547 -1.1692 -1.4807
 9213TIP3    H251835   7.050   6.670  12.645  2.5063  0.8234 -1.0984
 9214TIP3   OH251836   5.816   8.206  12.130  0.1737 -0.0483 -0.5645
 9214TIP3    H151837   5.810   8.194  12.035 -0.5950 -1.4976 -0.3591
 9214TIP3    H251838   5.909   8.201  12.150  0.2760 -0.5215 -1.1538
 9215TIP3   OH251839   7.424   8.699  11.667  0.7609 -0.2802 -0.1268
 9215TIP3    H151840   7.514   8.671  11.655  1.0315  0.0111  1.0621
 9215TIP3    H251841   7.428   8.795  11.668  0.6654 -0.2672  1.3059
 9216TIP3   OH251842   1.881   3.558  13.485  0.3850  0.4890 -0.2151
 9216TIP3    H151843   1.857   3.552  13.577 -1.9121 -1.2678 -0.8657
 9216TIP3    H251844   1.841   3.640  13.455 -0.8193 -0.0574 -0.1508
 9217TIP3   OH251845   2.208   1.018  13.582 -0.0121  0.0837  0.6850
 9217TIP3    H151846   2.243   0.952  13.641  0.6741  1.4814  1.8934
 9217TIP3    H251847   2.210   0.976  13.496 -0.5580 -1.8114  1.5275
 9218TIP3   OH251848   2.542   6.172  13.186  0.5551  0.2960  0.3389
 9218TIP3    H151849   2.587   6.228  13.122 -2.5420  2.1945 -0.3520
 9218TIP3    H251850   2.459   6.151  13.145 -0.4907 -0.5513  2.7466
 9219TIP3   OH251851   1.395   7.395  11.930  0.2476  0.2278  0.5999
 9219TIP3    H151852   1.322   7.429  11.878  0.4580  1.2040  0.9119
 9219TIP3    H251853   1.432   7.473  11.972  0.2232 -0.5019  2.0375
 9220TIP3   OH251854   6.177   2.245  12.400  0.5642  0.0496 -0.3154
 9220TIP3    H151855   6.262   2.206  12.420  0.4031 -0.3074 -0.3096
 9220TIP3    H251856   6.119   2.215  12.471  0.1808 -0.5763 -0.8846
 9221TIP3   OH251857   8.663   5.711  11.902  0.0950  0.5224  0.0757
 9221TIP3    H151858   8.620   5.685  11.983  0.1953 -1.3735 -0.4197
 9221TIP3    H251859   8.647   5.805  11.894 -0.6908  0.5608  1.8085
 9222TIP3   OH251860   8.257   2.435  11.581  0.5783 -0.1767 -0.1088
 9222TIP3    H151861   8.270   2.341  11.578 -0.6580 -0.4554  1.6387
 9222TIP3    H251862   8.171   2.449  11.542  0.4143  0.1384  0.3606
 9223TIP3   OH251863   3.758   5.513  13.301  0.0516  0.2020 -0.3779
 9223TIP3    H151864   3.850   5.527  13.280  0.2458  2.2277  1.5174
 9223TIP3    H251865   3.721   5.601  13.308 -0.8237 -0.2955  3.6902
 9224TIP3   OH251866   3.735   8.426  12.203  0.5774  0.3078 -0.1207
 9224TIP3    H151867   3.807   8.452  12.261 -0.2891  2.7494 -0.0267
 9224TIP3    H251868   3.773   8.430  12.115  0.3889  2.4668 -0.1489
 9225TIP3   OH251869   1.057   8.385  11.885  0.1270 -0.1526 -0.1069
 9225TIP3    H151870   1.027   8.435  11.961  1.6580  0.1257  0.3487
 9225TIP3    H251871   1.140   8.425  11.861 -0.3241 -0.2079 -1.9802
 9226TIP3   OH251872   2.019   3.618  12.087 -0.6359 -0.6528  0.2368
 9226TIP3    H151873   2.097   3.637  12.139 -0.8256 -2.7451  1.3978
 9226TIP3    H251874   2.052   3.566  12.014 -0.6077  0.8486 -0.8610
 9227TIP3   OH251875   3.474   8.110  13.232  0.0731  0.4762  0.5306
 9227TIP3    H151876   3.550   8.052  13.228  0.0256  0.4905 -1.1344
 9227TIP3    H251877   3.499   8.185  13.177 -1.3627  0.1923 -0.5640
 9228TIP3   OH251878   1.987   3.325  13.741 -0.5076 -0.3806  0.5359
 9228TIP3    H151879   2.023   3.242  13.772 -1.0737 -1.1867 -0.8834
 9228TIP3    H251880   2.064   3.382  13.732  0.0331 -1.0983  0.4654
 9229TIP3   OH251881   7.181   8.887  11.880  0.2133  0.3078 -0.5415
 9229TIP3    H151882   7.136   8.970  11.861  0.0963  0.1269 -1.0425
 9229TIP3    H251883   7.270   8.900  11.848  1.0853  1.3127  1.9996
 9230TIP3   OH251884   0.918   0.549  11.722 -0.2602  0.0506 -0.1927
 9230TIP3    H151885   0.857   0.596  11.778  0.4670  0.3747  0.3462
 9230TIP3    H251886   0.863   0.490  11.671 -0.8078 -1.3196  1.8710
 9231TIP3   OH251887   6.083   7.553  13.172 -0.0565 -0.5491 -0.7083
 9231TIP3    H151888   6.023   7.502  13.225 -0.8624 -0.3899 -1.4429
 9231TIP3    H251889   6.155   7.492  13.153 -0.8945 -1.3642 -1.3856
 9232TIP3   OH251890   9.106   9.075  13.350 -0.6420 -0.1640  0.0909
 9232TIP3    H151891   9.071   9.078  13.261 -0.6241 -1.2145  0.0362
 9232TIP3    H251892   9.051   9.135  13.399 -0.9307  0.0958 -0.5411
 9233TIP3   OH251893   8.711   9.209  12.858  0.0002 -0.2800  0.3682
 9233TIP3    H151894   8.748   9.293  12.884  0.0950 -0.3180  0.3552
 9233TIP3    H251895   8.679   9.223  12.769 -0.9757  0.0628  0.7619
 9234TIP3   OH251896   2.004   0.556  12.403  0.5148 -0.0451  0.2104
 9234TIP3    H151897   1.946   0.609  12.459 -1.7043 -2.4498  0.3675
 9234TIP3    H251898   1.953   0.540  12.324  0.9843 -2.1290  0.2832
 9235TIP3   OH251899   8.922   2.476  13.586 -0.2627  0.2591 -0.2778
 9235TIP3    H151900   8.964   2.529  13.519  1.7022  0.4793  1.0436
 9235TIP3    H251901   8.981   2.401  13.598 -0.6452  0.1411  1.0557
 9236TIP3   OH251902   0.797   8.273  11.800  0.0173 -0.3755  0.1416
 9236TIP3    H151903   0.878   8.313  11.832  0.0872  0.0041 -0.4890
 9236TIP3    H251904   0.822   8.228  11.719 -0.6203  0.7976 -0.7499
 9237TIP3   OH251905   7.784   9.085  12.139  0.2844  0.1037  0.2285
 9237TIP3    H151906   7.707   9.111  12.087  0.3534  0.0333  0.0906
 9237TIP3    H251907   7.762   8.997  12.171 -0.1047  0.4633  0.9967
 9238TIP3   OH251908   4.852   0.260  11.802 -0.4237  0.0405  0.2047
 9238TIP3    H151909   4.870   0.318  11.727  2.1259  0.1396  0.7922
 9238TIP3    H251910   4.761   0.279  11.825 -0.3167  2.3448 -0.8751
 9239TIP3   OH251911   4.199   4.150  11.643 -0.3191 -0.1698  0.1242
 9239TIP3    H151912   4.225   4.076  11.698  0.1509  0.3829  0.6622
 9239TIP3    H251913   4.106   4.161  11.661 -0.5022 -0.9382 -0.3327
 9240TIP3   OH251914   8.024   8.896  12.855  0.1252 -0.2090 -0.0399
 9240TIP3    H151915   8.019   8.820  12.913 -1.9545 -0.4075 -0.4080
 9240TIP3    H251916   8.005   8.861  12.768  1.1714  0.4287 -0.5449
 9241TIP3   OH251917   6.092   6.591  12.134  0.0653 -0.1693 -0.0768
 9241TIP3    H151918   6.180   6.578  12.172 -0.2217  0.5570  0.8764
 9241TIP3    H251919   6.033   6.576  12.208 -0.6636 -1.3468 -0.8779
 9242TIP3   OH251920   6.355   2.998  12.143 -0.1366  0.7614 -0.5347
 9242TIP3    H151921   6.303   2.982  12.222  1.3964 -0.3882  0.3195
 9242TIP3    H251922   6.313   3.072  12.100 -1.2434  1.1798  1.1861
 9243TIP3   OH251923   7.137   4.587  12.089  0.0303  0.0357  0.4631
 9243TIP3    H151924   7.077   4.575  12.016 -1.2420 -1.0512  1.6216
 9243TIP3    H251925   7.170   4.677  12.079  0.2724 -0.2424 -1.6715
 9244TIP3   OH251926   3.108   6.501  13.990  0.2940  0.6236  0.2650
 9244TIP3    H151927   3.026   6.494  13.940  0.2949 -0.4953  0.3867
 9244TIP3    H251928   3.111   6.592  14.019 -1.1381  0.5832  0.6235
 9245TIP3   OH251929   7.068   7.112  13.048 -0.3399 -0.2537 -0.1505
 9245TIP3    H151930   7.025   7.110  12.962  0.4863  0.0468 -0.5807
 9245TIP3    H251931   7.063   7.022  13.079 -1.5136 -0.1747 -0.0653
 9246TIP3   OH251932   0.127   6.937  12.919  0.3346 -0.2716 -0.2570
 9246TIP3    H151933   0.121   6.843  12.937  2.1901 -0.2975  0.4338
 9246TIP3    H251934   0.181   6.971  12.990  0.4037  1.1717 -0.9809
 9247TIP3   OH251935   0.463   2.290  11.824  0.0190  0.2295 -0.0065
 9247TIP3    H151936   0.449   2.196  11.813  1.7381  0.1124 -1.7334
 9247TIP3    H251937   0.395   2.317  11.886 -1.6402 -1.8094 -0.8065
 9248TIP3   OH251938   0.079   2.333  12.084  0.4553 -0.0182 -0.0602
 9248TIP3    H151939   0.126   2.382  12.152 -2.1619  1.9371  0.4973
 9248TIP3    H251940  -0.007   2.374  12.081  0.1676 -0.5817 -4.0021
 9249TIP3   OH251941   2.532   5.712  12.275  0.2286 -0.5522 -0.0359
 9249TIP3    H151942   2.446   5.751  12.291 -0.0582 -1.3676  0.4497
 9249TIP3    H251943   2.564   5.757  12.196  0.1795  1.0949  0.8273
 9250TIP3   OH251944   1.355   8.335  12.824 -0.6210 -0.5976 -0.2350
 9250TIP3    H151945   1.314   8.294  12.900 -1.3041 -1.0178 -0.8149
 9250TIP3    H251946   1.302   8.307  12.750  0.5844 -0.9782 -0.9938
 9251TIP3   OH251947   4.729   4.867  11.498  0.4669 -0.4368  0.0282
 9251TIP3    H151948   4.749   4.920  11.575  0.5807 -1.1207  0.4823
 9251TIP3    H251949   4.814   4.837  11.466  0.3556 -1.0429  0.2880
 9252TIP3   OH251950   3.961   7.421  12.666  0.1253 -0.0552 -0.2427
 9252TIP3    H151951   3.967   7.512  12.695 -1.0250  0.1789 -0.7228
 9252TIP3    H251952   4.046   7.383  12.690  0.9730  1.3800 -0.8802
 9253TIP3   OH251953   6.114   0.025  12.095 -0.1350 -0.8414  0.4989
 9253TIP3    H151954   6.159   0.110  12.089  0.1123 -1.0523 -2.3011
 9253TIP3    H251955   6.128  -0.003  12.185  2.7766  0.5247  0.6141
 9254TIP3   OH251956   5.669   0.824  13.058  0.2643 -0.4585  0.0132
 9254TIP3    H151957   5.605   0.890  13.083  1.2187  0.9675 -1.1438
 9254TIP3    H251958   5.718   0.806  13.138  1.7618  2.3203 -0.1363
 9255TIP3   OH251959   7.796   4.745  12.793 -0.5315 -0.7086 -0.0246
 9255TIP3    H151960   7.706   4.715  12.795 -0.4220 -1.0716 -0.4038
 9255TIP3    H251961   7.826   4.737  12.884 -0.7581 -0.9535  0.0280
 9256TIP3   OH251962   8.596   3.416  12.068 -0.0139 -0.1805  0.3869
 9256TIP3    H151963   8.690   3.428  12.054 -0.3425  2.3655 -0.1126
 9256TIP3    H251964   8.555   3.474  12.004 -1.9399 -0.7778  1.0194
 9257TIP3   OH251965   0.353   3.836  11.969 -0.6785 -0.2012 -0.1059
 9257TIP3    H151966   0.431   3.821  11.917 -0.6213 -3.4057  0.7114
 9257TIP3    H251967   0.344   3.758  12.024 -4.1708  0.2391  0.2241
 9258TIP3   OH251968   7.745   2.573  11.611 -0.1712  0.5701  0.0963
 9258TIP3    H151969   7.760   2.558  11.704 -0.1096  0.6177  0.0936
 9258TIP3    H251970   7.664   2.624  11.607 -0.8150 -0.4377  0.0637
 9259TIP3   OH251971   7.180   6.542  11.846 -0.4582  0.3191 -0.7166
 9259TIP3    H151972   7.239   6.468  11.835 -1.2717 -0.2053 -1.7153
 9259TIP3    H251973   7.154   6.538  11.938 -0.7026 -0.8048 -0.8251
 9260TIP3   OH251974   4.381   5.677  11.729 -0.2957  0.0276 -0.7480
 9260TIP3    H151975   4.309   5.713  11.677 -0.9423  1.1681  0.8440
 9260TIP3    H251976   4.345   5.599  11.770 -1.4748  1.7894  1.8229
 9261TIP3   OH251977   2.749   6.684  12.071  0.7443 -0.6480  0.4901
 9261TIP3    H151978   2.707   6.656  12.153 -0.1218 -0.5345  0.0939
 9261TIP3    H251979   2.797   6.764  12.095 -0.8299  0.3159  0.5568
 9262TIP3   OH251980   7.053   9.158  11.831 -0.2822 -0.3765  0.0223
 9262TIP3    H151981   7.066   9.170  11.737 -1.0759  0.5311  0.0072
 9262TIP3    H251982   6.994   9.230  11.856  1.2603  0.4241  1.5291
 9263TIP3   OH251983   0.524   0.154  12.815 -0.2591 -0.2870 -0.7836
 9263TIP3    H151984   0.503   0.176  12.906 -0.8903  0.7352 -1.1577
 9263TIP3    H251985   0.444   0.114  12.781 -0.8176  1.3968 -1.5210
 9264TIP3   OH251986   4.684   3.588  13.094 -0.1175  0.4616  0.2818
 9264TIP3    H151987   4.702   3.568  13.186 -0.1375  1.0103  0.4095
 9264TIP3    H251988   4.766   3.568  13.049 -0.2149 -0.1391  0.3627
 9265TIP3   OH251989   5.625   2.151  12.146  0.5988  0.2476 -0.4818
 9265TIP3    H151990   5.602   2.240  12.171 -0.6096  0.3585 -1.8440
 9265TIP3    H251991   5.716   2.141  12.171  0.4936  1.5680  0.4875
 9266TIP3   OH251992   2.038   5.752  12.200 -0.0385 -0.2593  0.7250
 9266TIP3    H151993   2.002   5.766  12.113  2.1584  0.8429 -0.0904
 9266TIP3    H251994   1.967   5.711  12.250 -1.9974  0.8727 -0.9953
 9267TIP3   OH251995   0.855   5.768  12.121 -0.5213 -0.1011  0.0168
 9267TIP3    H151996   0.847   5.746  12.028  0.4704 -0.7869  0.0852
 9267TIP3    H251997   0.914   5.843  12.123 -0.7180  0.0542  0.0860
 9268TIP3   OH251998   0.137   3.650  12.686 -0.2997 -0.3337  0.1372
 9268TIP3    H151999   0.214   3.593  12.694  0.0896 -0.2527 -2.2214
 9268TIP3    H252000   0.130   3.668  12.592 -0.4302  3.4663  0.6875
 9269TIP3   OH252001   8.738   5.624  13.438 -0.0076  0.0911 -0.2779
 9269TIP3    H152002   8.683   5.671  13.502  1.9986  0.7757  1.0387
 9269TIP3    H252003   8.757   5.540  13.481  1.1262  0.4434 -0.0688
 9270TIP3   OH252004   8.098   7.141  11.306 -0.3218  0.1879  0.4519
 9270TIP3    H152005   8.186   7.118  11.336 -0.8157 -1.0380  1.0379
 9270TIP3    H252006   8.104   7.134  11.210  0.4374  1.0129  0.4230
 9271TIP3   OH252007   0.974   3.061  12.127  0.5906 -0.3583 -0.2431
 9271TIP3    H152008   0.881   3.083  12.120  0.2662 -1.1912  1.1001
 9271TIP3    H252009   0.982   2.978  12.080  0.6862 -0.1890 -0.5221
 9272TIP3   OH252010   4.623   8.455  11.796  0.1540  0.0733 -0.4217
 9272TIP3    H152011   4.707   8.411  11.798  0.1883  0.1508 -0.1560
 9272TIP3    H252012   4.619   8.504  11.878 -1.1009 -1.7078  0.6789
 9273TIP3   OH252013   8.224   5.846  13.063 -0.4969 -0.1811  0.1144
 9273TIP3    H152014   8.176   5.811  12.988  0.9969  0.3575 -1.1252
 9273TIP3    H252015   8.249   5.934  13.037  1.6997 -0.6444  0.4320
 9274TIP3   OH252016   0.746   0.925  12.732  0.5535  0.5124 -0.2804
 9274TIP3    H152017   0.682   0.923  12.661  0.5049  1.1344 -0.2586
 9274TIP3    H252018   0.752   0.834  12.762 -2.6718  0.8269  1.8295
 9275TIP3   OH252019   0.747   9.126  11.813  0.1038  0.0282 -0.4991
 9275TIP3    H152020   0.763   9.036  11.782 -0.6634 -0.1053 -0.5179
 9275TIP3    H252021   0.656   9.143  11.791  0.6707  1.4349 -2.0212
 9276TIP3   OH252022   2.757   8.304  12.673  0.3724 -0.4410  0.1099
 9276TIP3    H152023   2.721   8.312  12.585 -0.4387 -3.2277  0.1000
 9276TIP3    H252024   2.828   8.239  12.665 -1.6749 -3.1277  1.8991
 9277TIP3   OH252025   6.229   5.338  11.875 -0.4873 -0.0532 -0.0890
 9277TIP3    H152026   6.308   5.387  11.852 -0.7235 -0.5058 -2.0177
 9277TIP3    H252027   6.258   5.275  11.941  0.1853  1.4618  1.1377
 9278TIP3   OH252028   8.662   7.389  12.480 -0.0703 -0.0487  0.1763
 9278TIP3    H152029   8.727   7.453  12.508 -0.2122  0.4585 -0.6142
 9278TIP3    H252030   8.579   7.423  12.514 -0.0539 -0.1876  0.3581
 9279TIP3   OH252031   7.465   2.884  12.041 -0.1720  0.0036  0.0829
 9279TIP3    H152032   7.398   2.860  11.976 -2.0171  0.3274  1.7702
 9279TIP3    H252033   7.465   2.980  12.040  1.1746  0.0208 -0.7355
 9280TIP3   OH252034   3.700   0.460  13.321 -0.0166  0.3572  0.4787
 9280TIP3    H152035   3.651   0.541  13.307 -0.9166 -0.1123  0.8270
 9280TIP3    H252036   3.681   0.406  13.244  1.5479  0.9281 -0.3352
 9281TIP3   OH252037   8.393   3.724  12.137 -0.1883 -0.1353 -0.0302
 9281TIP3    H152038   8.371   3.805  12.091 -1.9781 -0.5736 -0.0080
 9281TIP3    H252039   8.371   3.654  12.075  1.1170 -0.6460  0.0372
 9282TIP3   OH252040   0.726   5.471  13.450  0.0689 -0.9101  0.5257
 9282TIP3    H152041   0.756   5.523  13.524  0.3385  1.3567 -1.0821
 9282TIP3    H252042   0.631   5.467  13.460 -0.1834  1.5714 -0.2726
 9283TIP3   OH252043   1.783   7.996  12.073 -0.6055  0.3670 -0.4966
 9283TIP3    H152044   1.851   7.997  12.140 -0.5845 -1.4501 -0.4333
 9283TIP3    H252045   1.803   8.070  12.017  2.0594 -0.6702 -1.0657
 9284TIP3   OH252046   5.797   4.249  11.880 -0.4174  0.3716  0.1802
 9284TIP3    H152047   5.724   4.250  11.820 -1.9056  1.0539  1.8972
 9284TIP3    H252048   5.759   4.226  11.965  1.0982  1.9089  1.3752
 9285TIP3   OH252049   2.713   3.408  12.045 -0.8113 -0.7726 -0.4703
 9285TIP3    H152050   2.761   3.336  12.085  0.0333  0.2969  0.4925
 9285TIP3    H252051   2.639   3.366  12.001  0.5008 -2.3785 -1.2689
 9286TIP3   OH252052   8.769   2.314  11.492 -0.0422 -0.4779 -0.4750
 9286TIP3    H152053   8.759   2.408  11.476  0.0834 -0.6818 -1.8697
 9286TIP3    H252054   8.858   2.294  11.461  0.5097 -0.8097  1.1832
 9287TIP3   OH252055   2.594   8.406  13.299 -0.5605  0.1246  0.7673
 9287TIP3    H152056   2.662   8.370  13.358 -0.3493  2.1384  1.8500
 9287TIP3    H252057   2.560   8.482  13.346 -2.5672  0.0286 -0.4265
 9288TIP3   OH252058   5.808   3.934  12.698  0.4752  0.0411  0.1863
 9288TIP3    H152059   5.713   3.940  12.692  0.5964  2.4515 -0.1882
 9288TIP3    H252060   5.824   3.856  12.751 -1.7888  1.0452  2.5479
 9289TIP3   OH252061   4.666   4.212  12.303  0.1019 -0.0314 -0.5225
 9289TIP3    H152062   4.634   4.145  12.363  0.3619  0.3388  0.0388
 9289TIP3    H252063   4.761   4.198  12.300 -0.1187 -1.5400 -2.6744
 9290TIP3   OH252064   4.408   4.233  13.124  0.7714 -0.0602 -0.4116
 9290TIP3    H152065   4.396   4.312  13.070 -0.3644  0.2065  0.1978
 9290TIP3    H252066   4.322   4.217  13.161  1.1145 -1.3225 -0.1349
 9291TIP3   OH252067   0.781   8.868  12.759  0.1375 -0.6612  0.6985
 9291TIP3    H152068   0.732   8.928  12.815 -0.0216 -1.2796  1.2288
 9291TIP3    H252069   0.802   8.920  12.682 -0.5159 -0.0989  0.8862
 9292TIP3   OH252070   0.438   0.653  12.118 -0.9184  0.4357 -0.0784
 9292TIP3    H152071   0.450   0.685  12.029 -1.7595  0.9790 -0.0006
 9292TIP3    H252072   0.435   0.731  12.172 -0.9549  0.1322  0.3649
 9293TIP3   OH252073   2.913   5.806  12.745 -0.0128  0.2370  0.4018
 9293TIP3    H152074   2.930   5.837  12.834  0.3377  1.6866 -0.1364
 9293TIP3    H252075   2.983   5.846  12.693  1.0036 -2.1869 -0.2450
 9294TIP3   OH252076   7.236   1.602  12.566 -0.3402 -0.4818 -0.1456
 9294TIP3    H152077   7.286   1.578  12.645  0.3016  2.2215  0.3721
 9294TIP3    H252078   7.213   1.694  12.580  0.3382  0.2874 -3.3767
 9295TIP3   OH252079   5.504   3.004  11.604 -0.1107 -0.0477  0.6071
 9295TIP3    H152080   5.575   3.012  11.540 -0.6520 -0.1814 -0.0259
 9295TIP3    H252081   5.491   3.092  11.638  0.6399 -0.0968  1.0500
 9296TIP3   OH252082   0.245   2.367  13.676 -0.2199  0.1903  0.1855
 9296TIP3    H152083   0.304   2.310  13.726  0.1002  1.4635  1.3247
 9296TIP3    H252084   0.185   2.307  13.633 -0.0347 -1.0164  1.5141
 9297TIP3   OH252085   2.410   3.671  13.012  0.1454  0.2710 -0.3748
 9297TIP3    H152086   2.321   3.669  12.977  0.8341 -1.3550 -2.2073
 9297TIP3    H252087   2.401   3.641  13.103 -1.3500  1.9562  0.1058
 9298TIP3   OH252088   0.903   6.578  12.138 -0.0191 -0.0437  0.5519
 9298TIP3    H152089   0.819   6.533  12.145 -0.7130  0.9629 -0.8833
 9298TIP3    H252090   0.928   6.567  12.046  0.5837  1.1296  0.5644
 9299TIP3   OH252091   0.679   5.254  11.990  0.0085  0.4316 -0.2993
 9299TIP3    H152092   0.691   5.344  11.961 -0.8971  0.9765  0.9648
 9299TIP3    H252093   0.747   5.205  11.943  0.3651  1.7158 -1.1781
 9300TIP3   OH252094   1.153   8.612  12.987 -0.1875 -0.5429  0.4834
 9300TIP3    H152095   1.093   8.664  12.933 -0.1396 -0.7756  0.2067
 9300TIP3    H252096   1.109   8.527  12.996  1.0955 -1.5046 -1.5942
 9301TIP3   OH252097   1.977   8.205  12.711  0.4236 -0.4977 -0.3091
 9301TIP3    H152098   2.032   8.239  12.640  0.6670 -0.7853 -0.2614
 9301TIP3    H252099   1.911   8.273  12.725 -0.6279 -1.1298 -1.9088
 9302TIP3   OH252100   2.587   0.631  12.617  0.4015  0.0766 -0.1216
 9302TIP3    H152101   2.568   0.625  12.711 -0.5551  0.5975 -0.2661
 9302TIP3    H252102   2.575   0.542  12.584  0.9185 -0.1451  0.2803
 9303TIP3   OH252103   9.060   6.594  12.857  0.1472  0.1572 -0.1118
 9303TIP3    H152104   8.995   6.621  12.922  1.2379 -0.9709  1.5235
 9303TIP3    H252105   9.008   6.563  12.783 -1.1451  0.8245  0.4806
 9304TIP3   OH252106   3.659   0.463  12.284  0.0229  0.0535  0.0338
 9304TIP3    H152107   3.650   0.476  12.379 -1.8675 -0.5666 -0.0126
 9304TIP3    H252108   3.682   0.549  12.250  2.5022 -0.0699  1.1990
 9305TIP3   OH252109   5.838   1.981  11.581 -0.0749 -0.3086  0.4260
 9305TIP3    H152110   5.770   2.031  11.536  0.0129  1.1829  1.8925
 9305TIP3    H252111   5.803   1.892  11.584 -0.6144 -0.2159 -1.4674
 9306TIP3   OH252112   4.017   0.149  12.839  0.0937  0.3559 -0.5136
 9306TIP3    H152113   3.976   0.158  12.753  0.8800  1.6870 -0.7697
 9306TIP3    H252114   4.108   0.127  12.821  0.4327  1.3193 -0.0590
 9307TIP3   OH252115   2.276   6.386  12.507  0.1163 -0.1158  0.0112
 9307TIP3    H152116   2.306   6.328  12.577  0.6540  0.1629  0.0212
 9307TIP3    H252117   2.181   6.375  12.505  0.1459 -0.4853  0.4619
 9308TIP3   OH252118   7.757   2.632  12.344  0.4905 -0.0270  0.2324
 9308TIP3    H152119   7.670   2.618  12.382  0.6179 -0.3513  0.4124
 9308TIP3    H252120   7.767   2.727  12.343  1.1012 -0.0007  2.4898
 9309TIP3   OH252121   3.452   9.031  11.886 -0.5676 -0.5471  0.3839
 9309TIP3    H152122   3.422   8.969  11.952 -1.1900  0.1287  0.7441
 9309TIP3    H252123   3.373   9.059  11.841 -0.7680  2.2582  2.2183
 9310TIP3   OH252124   4.292   3.532  11.519  0.4763 -0.2540  0.8252
 9310TIP3    H152125   4.265   3.494  11.436  1.1938  0.9453  0.0092
 9310TIP3    H252126   4.362   3.475  11.550 -1.1769 -1.9062  1.6826
 9311TIP3   OH252127   7.776   4.872  12.281 -0.9935 -0.0133  0.2245
 9311TIP3    H152128   7.817   4.790  12.309  0.3857  0.7793  0.6291
 9311TIP3    H252129   7.747   4.914  12.362 -0.2425  0.6304  0.1678
 9312TIP3   OH252130   4.274   9.061  12.147 -0.4376  0.5456 -0.3649
 9312TIP3    H152131   4.208   9.081  12.213  0.5452  0.3712  0.7086
 9312TIP3    H252132   4.226   9.016  12.077 -1.4833  0.6457  0.2757
 9313TIP3   OH252133   5.888   7.420  12.122  0.4161  0.5163  0.2867
 9313TIP3    H152134   5.888   7.465  12.207 -1.8735 -1.6750  1.5804
 9313TIP3    H252135   5.864   7.488  12.059  1.7485  2.1109  1.3927
 9314TIP3   OH252136   6.793   6.880  12.283  0.0966  0.3332 -0.7474
 9314TIP3    H152137   6.848   6.857  12.357  2.2251  0.4667 -2.1949
 9314TIP3    H252138   6.723   6.816  12.284 -0.5191  0.9369  1.9180
 9315TIP3   OH252139   3.439   1.181  11.867  0.1222  0.3747 -0.8039
 9315TIP3    H152140   3.495   1.253  11.839 -0.9949  1.3699 -0.5923
 9315TIP3    H252141   3.370   1.223  11.919 -1.0611 -0.7253 -1.4172
 9316TIP3   OH252142   3.667   5.265  11.748  0.1326  0.1523  0.1445
 9316TIP3    H152143   3.601   5.224  11.693  0.6464  0.8605 -1.0454
 9316TIP3    H252144   3.734   5.198  11.759  0.2623  0.1664 -0.5277
 9317TIP3   OH252145   1.232   5.868  11.729  0.2717  0.2462  0.4569
 9317TIP3    H152146   1.307   5.927  11.723  1.1189 -0.8108  0.3888
 9317TIP3    H252147   1.247   5.819  11.810 -0.0124 -0.4123  0.1148
 9318TIP3   OH252148   2.329   2.538  11.513  0.5180  0.3911 -0.2842
 9318TIP3    H152149   2.346   2.600  11.442  1.4446  0.6054  0.1162
 9318TIP3    H252150   2.338   2.589  11.593  1.1178 -0.2153  0.0482
 9319TIP3   OH252151   7.890   7.828  12.257 -0.2829 -0.0666  0.3103
 9319TIP3    H152152   7.907   7.900  12.318 -0.7638  1.1487 -0.9411
 9319TIP3    H252153   7.881   7.750  12.313  1.1250  0.6676  1.6323
 9320TIP3   OH252154   2.882   2.599  11.556  0.4756  0.1804 -0.4839
 9320TIP3    H152155   2.897   2.509  11.525  0.4376  0.3417 -0.9806
 9320TIP3    H252156   2.795   2.595  11.596  1.0557 -0.3277  0.7652
 9321TIP3   OH252157   0.230   6.022  12.646  0.1623  0.0398 -0.7952
 9321TIP3    H152158   0.182   5.954  12.693  0.2857 -0.9758 -2.0948
 9321TIP3    H252159   0.289   6.059  12.712 -0.5857 -0.4462  0.1688
 9322TIP3   OH252160   8.390   5.993  12.084 -0.2039 -0.1910 -0.5150
 9322TIP3    H152161   8.470   6.010  12.034 -0.4799  0.9928 -0.6046
 9322TIP3    H252162   8.414   5.924  12.146  0.7053 -0.2828 -0.9534
 9323TIP3   OH252163   7.184   2.337  12.249  0.4259 -0.4756  0.2946
 9323TIP3    H152164   7.220   2.264  12.298  2.0468  0.1248  0.0746
 9323TIP3    H252165   7.199   2.413  12.305  2.6261  0.2758 -1.1622
 9324TIP3   OH252166   8.234   4.045  12.258  0.4173 -0.1084 -0.3088
 9324TIP3    H152167   8.266   3.978  12.318 -0.4323  0.8262  1.2557
 9324TIP3    H252168   8.305   4.110  12.255 -0.6828  1.3546  2.1877
 9325TIP3   OH252169   6.719   0.733  11.783 -0.1415  0.3696 -0.4943
 9325TIP3    H152170   6.797   0.777  11.815 -0.3632 -0.7235  1.8017
 9325TIP3    H252171   6.744   0.696  11.698  1.3107  1.3379 -0.5171
 9326TIP3   OH252172   0.780   8.471  12.400 -0.3676 -0.3836 -0.2030
 9326TIP3    H152173   0.739   8.413  12.336  0.5044 -0.9591 -0.2518
 9326TIP3    H252174   0.838   8.414  12.451 -1.3982 -0.0447  1.4374
 9327TIP3   OH252175   8.212   2.765  11.956  0.3072  0.2205 -0.1339
 9327TIP3    H152176   8.201   2.732  12.045  1.4235  1.4884  0.5026
 9327TIP3    H252177   8.271   2.839  11.965 -0.9555  1.4900 -1.7007
 9328TIP3   OH252178   8.088   0.527  12.426 -0.1742  0.0828  0.0251
 9328TIP3    H152179   8.096   0.516  12.331  0.2960  0.4746  0.0132
 9328TIP3    H252180   8.008   0.576  12.438 -0.2541  0.0004 -0.1677
 9329TIP3   OH252181   9.161   0.059  12.668  0.3737 -0.5926 -0.1757
 9329TIP3    H152182   9.250   0.049  12.634  0.7194 -0.3165  0.6322
 9329TIP3    H252183   9.113   0.102  12.597  1.6019  1.8897  0.3987
 9330TIP3   OH252184   0.656   4.800  12.065  0.0802 -0.2860 -0.7277
 9330TIP3    H152185   0.622   4.827  12.150  0.9527 -2.7501  0.4796
 9330TIP3    H252186   0.743   4.839  12.060  0.0055 -0.0911 -0.5332
 9331TIP3   OH252187   3.260   3.540  13.084  0.5235  0.1721 -0.0840
 9331TIP3    H152188   3.344   3.568  13.122 -0.2338 -0.1496  1.9423
 9331TIP3    H252189   3.238   3.460  13.131 -0.9425  0.2695 -0.5661
 9332TIP3   OH252190   7.998   2.422  13.191 -0.0768  0.1744  0.0543
 9332TIP3    H152191   8.079   2.463  13.220 -1.0335  1.1218  1.5185
 9332TIP3    H252192   8.007   2.414  13.096  0.2097  3.7926 -0.3581
 9333TIP3   OH252193   8.186   1.328  11.612 -0.0954  0.2311 -0.1668
 9333TIP3    H152194   8.107   1.281  11.639 -1.6009  1.9332 -1.3202
 9333TIP3    H252195   8.206   1.386  11.685  1.1299 -1.3521  0.8127
 9334TIP3   OH252196   0.203   7.080  12.469  0.4401 -0.0876  0.8320
 9334TIP3    H152197   0.176   7.078  12.377  1.2832 -2.2350  0.5785
 9334TIP3    H252198   0.121   7.071  12.518  0.0236  0.6786  0.3031
 9335TIP3   OH252199   2.162   6.547  12.796  0.5020  0.1260 -0.0348
 9335TIP3    H152200   2.121   6.599  12.727  0.8147  0.2492 -0.1315
 9335TIP3    H252201   2.092   6.532  12.860 -0.0374 -0.7834 -0.8161
 9336TIP3   OH252202   7.773   0.345  13.093 -0.0111  0.8797 -0.1619
 9336TIP3    H152203   7.711   0.325  13.162 -1.3806  1.9114 -1.0573
 9336TIP3    H252204   7.828   0.266  13.087 -2.2576 -0.7440 -0.4479
 9337TIP3   OH252205   8.691   1.320  12.352 -0.5961 -0.3283 -0.0001
 9337TIP3    H152206   8.714   1.228  12.343 -0.3379 -0.2759  0.1217
 9337TIP3    H252207   8.632   1.323  12.428 -0.6775 -0.4050 -0.0611
 9338TIP3   OH252208   7.764   9.011  12.710  0.4835  0.6042  0.1794
 9338TIP3    H152209   7.772   9.009  12.805 -0.6491  2.1717  0.3504
 9338TIP3    H252210   7.840   9.062  12.681  0.8501  0.0935  0.2311
 9339TIP3   OH252211   8.968   1.970  11.257 -0.2381  0.4351 -0.6735
 9339TIP3    H152212   8.893   1.993  11.201 -1.4719 -0.2340  0.6348
 9339TIP3    H252213   8.934   1.901  11.315  1.7377 -0.7610 -0.8297
 9340TIP3   OH252214   4.745   0.993  12.193 -0.6153  0.5127  0.1236
 9340TIP3    H152215   4.830   1.018  12.230  1.7953 -4.3685 -1.2332
 9340TIP3    H252216   4.743   1.036  12.107 -1.6626  3.9697  1.7184
 9341TIP3   OH252217   6.560   1.081  11.803 -0.2275  0.2643  0.2837
 9341TIP3    H152218   6.530   0.991  11.815  0.8746 -0.0411  0.8998
 9341TIP3    H252219   6.614   1.099  11.880  1.0580  0.8139 -0.7167
 9342TIP3   OH252220   3.789   3.961  11.605  0.2046 -0.1526 -0.1093
 9342TIP3    H152221   3.697   3.952  11.582  0.5120  0.2047 -1.5966
 9342TIP3    H252222   3.800   3.909  11.685 -1.4452  0.4741  0.5559
 9343TIP3   OH252223   3.340   7.165  12.351  0.6200  0.5927 -0.4381
 9343TIP3    H152224   3.426   7.175  12.393  1.3053 -2.0792 -1.0085
 9343TIP3    H252225   3.339   7.232  12.283  2.1337  0.9096 -0.1828
 9344TIP3   OH252226   3.405   4.331  11.921  0.4517 -0.3901 -0.2689
 9344TIP3    H152227   3.479   4.320  11.980 -0.9271  0.4394  1.6935
 9344TIP3    H252228   3.349   4.254  11.938  0.4010 -0.5458 -1.0756
 9345TIP3   OH252229   3.495   2.916  12.029  0.2743  0.8520  0.2461
 9345TIP3    H152230   3.503   2.865  11.948 -1.4365 -0.8159  1.0452
 9345TIP3    H252231   3.522   2.856  12.098 -0.7919  1.3600  1.1359
 9346TIP3   OH252232   0.643   7.318  11.853  0.7229 -0.3560  0.1764
 9346TIP3    H152233   0.707   7.271  11.906 -0.9652 -2.7078  0.2844
 9346TIP3    H252234   0.647   7.276  11.767  1.1636  1.2815 -0.6535
 9347TIP3   OH252235   6.548   4.221  12.886  0.7169 -0.1726 -0.1953
 9347TIP3    H152236   6.464   4.215  12.933  0.9319 -2.3441 -0.0086
 9347TIP3    H252237   6.528   4.274  12.809 -0.0474  2.0697  1.4388
 9348TIP3   OH252238   6.454   8.982  12.692  0.4195  0.0015 -0.1404
 9348TIP3    H152239   6.495   8.992  12.606  1.0644 -0.1244  0.1442
 9348TIP3    H252240   6.476   9.062  12.738 -1.2921  0.7924 -0.6293
 9349TIP3   OH252241   2.070   0.289  12.487 -0.0801 -0.1669 -0.1314
 9349TIP3    H152242   2.014   0.281  12.564 -0.2876 -0.1426 -0.2801
 9349TIP3    H252243   2.043   0.371  12.445  0.8534  0.4468  0.4272
 9350TIP3   OH252244   4.301   5.515  11.963  0.0293  0.3654  0.7889
 9350TIP3    H152245   4.314   5.496  12.056  0.9259  0.2216  0.6512
 9350TIP3    H252246   4.231   5.457  11.936 -0.3727  0.5442  1.4214
 9351TIP3   OH252247   5.563   7.669  13.233  0.5369  0.3421  0.7228
 9351TIP3    H152248   5.580   7.707  13.147  1.0776  0.1287  0.7358
 9351TIP3    H252249   5.471   7.691  13.251  0.8711  1.7692  0.7938
 9352TIP3   OH252250   0.042   1.948  12.658 -0.0260  0.1171 -0.0090
 9352TIP3    H152251  -0.029   1.989  12.609 -0.3426 -1.4448 -0.9531
 9352TIP3    H252252   0.007   1.862  12.683  0.8899  0.0487  1.1340
 9353TIP3   OH252253   6.575   7.613  12.747 -0.4113  0.5786  0.4191
 9353TIP3    H152254   6.486   7.649  12.748 -0.0416  1.4982  1.5705
 9353TIP3    H252255   6.567   7.530  12.794 -0.7985  0.2636 -0.1770
 9354TIP3   OH252256   8.928   3.664  12.286  0.2320  0.0756 -0.5018
 9354TIP3    H152257   8.896   3.688  12.199  0.1907  1.1383 -0.2055
 9354TIP3    H252258   8.912   3.569  12.292 -1.4589  0.2939 -0.9443
 9355TIP3   OH252259   7.481   0.393  12.283  0.3086 -0.0779 -0.0777
 9355TIP3    H152260   7.508   0.422  12.370 -0.0879  1.8958 -0.5661
 9355TIP3    H252261   7.494   0.298  12.284  1.8337  0.1044  1.5778
 9356TIP3   OH252262   8.883   2.389  11.887  0.1568  0.1957 -0.3710
 9356TIP3    H152263   8.898   2.479  11.857  0.3414 -0.4253 -2.2215
 9356TIP3    H252264   8.937   2.382  11.966 -1.0254  2.1581  0.7109
 9357TIP3   OH252265   4.423   0.601  12.949 -0.7302 -1.1413  0.2370
 9357TIP3    H152266   4.360   0.619  12.879 -0.6227  0.1178  0.4397
 9357TIP3    H252267   4.371   0.559  13.017 -1.6057  0.7164  0.7910
 9358TIP3   OH252268   3.206   2.771  12.816 -0.3464 -0.1321 -0.2978
 9358TIP3    H152269   3.181   2.784  12.725 -0.2912 -1.3319 -0.5061
 9358TIP3    H252270   3.123   2.764  12.863 -0.3880  1.3892 -0.0807
 9359TIP3   OH252271   4.467   4.090  13.709  0.2323 -0.1485  0.0931
 9359TIP3    H152272   4.544   4.039  13.734  0.1598  0.0128  0.6637
 9359TIP3    H252273   4.503   4.173  13.677  0.2675  0.2431  1.1286
 9360TIP3   OH252274   7.214   5.328  13.243 -0.4022  0.0226 -0.1255
 9360TIP3    H152275   7.173   5.391  13.302 -1.5851  0.8216 -1.7164
 9360TIP3    H252276   7.217   5.246  13.292 -0.2424  0.9257  1.4395
 9361TIP3   OH252277   4.182   8.624  13.112  0.5689 -0.2203  0.0780
 9361TIP3    H152278   4.086   8.632  13.114  0.6152  0.3220  0.2259
 9361TIP3    H252279   4.213   8.689  13.174  1.0979  0.6298 -1.0314
 9362TIP3   OH252280   6.581   2.819  12.118  0.1002 -0.2250 -0.0977
 9362TIP3    H152281   6.492   2.855  12.120  0.4551  0.6604  1.2421
 9362TIP3    H252282   6.595   2.797  12.026 -1.2946  0.1600 -0.4365
 9363TIP3   OH252283   8.327   3.808  12.409 -0.8857  0.1739 -0.0451
 9363TIP3    H152284   8.240   3.772  12.398 -0.5071 -1.4059  1.6322
 9363TIP3    H252285   8.379   3.770  12.338 -1.3525  0.4777 -0.5565
 9364TIP3   OH252286   8.434   5.767  12.695 -0.3707  0.2526 -0.3116
 9364TIP3    H152287   8.349   5.804  12.668 -0.7072 -0.3612 -0.1154
 9364TIP3    H252288   8.488   5.843  12.715 -0.5968  0.6820 -1.2695
 9365TIP3   OH252289   8.659   7.375  11.528  0.3638  0.0911  0.1589
 9365TIP3    H152290   8.731   7.386  11.590 -0.5491  0.9467  1.1080
 9365TIP3    H252291   8.610   7.457  11.533 -0.9870 -0.6699 -0.0595
 9366TIP3   OH252292   0.731   4.137  13.262  0.1034  0.5883  0.2988
 9366TIP3    H152293   0.789   4.079  13.311 -0.8406  0.3700  1.1878
 9366TIP3    H252294   0.731   4.220  13.311  1.3673  1.3420 -0.9080
 9367TIP3   OH252295   4.414   6.562  13.636 -0.6743  0.2740  0.0609
 9367TIP3    H152296   4.448   6.473  13.627 -1.9814 -0.4179  1.5075
 9367TIP3    H252297   4.491   6.618  13.634  0.1193 -0.8186 -1.5712
 9368TIP3   OH252298   6.462   7.112  12.154  0.3520 -0.2594  0.1468
 9368TIP3    H152299   6.475   7.204  12.175  0.2383 -0.1856 -0.0913
 9368TIP3    H252300   6.452   7.111  12.058  2.0204 -0.7216 -0.0500
 9369TIP3   OH252301   0.390   6.501  12.116 -0.1568  0.4525  0.2371
 9369TIP3    H152302   0.458   6.566  12.128  0.4486 -0.2938  0.9206
 9369TIP3    H252303   0.435   6.417  12.120 -1.1585 -0.0761  1.1885
 9370TIP3   OH252304   4.190   2.189  13.226  0.2770 -0.6655 -0.4517
 9370TIP3    H152305   4.168   2.271  13.181  1.1986 -0.5396 -0.6827
 9370TIP3    H252306   4.106   2.143  13.232 -0.8012  1.3302  1.8937
 9371TIP3   OH252307   3.759   0.761  12.594 -0.1935  0.5753 -0.3155
 9371TIP3    H152308   3.811   0.778  12.673  0.2214 -1.8030  0.0260
 9371TIP3    H252309   3.742   0.847  12.557  1.3788  1.6363  1.2490
 9372TIP3   OH252310   3.729   8.008  12.641  0.1916 -0.0990 -0.6246
 9372TIP3    H152311   3.696   7.918  12.646  0.8059 -0.3313 -0.6752
 9372TIP3    H252312   3.687   8.053  12.715  0.0866 -0.4958 -0.4390
 9373TIP3   OH252313   9.184   6.227  11.753 -0.5974  0.1385  0.3536
 9373TIP3    H152314   9.180   6.305  11.808 -0.0614 -0.6216  1.5104
 9373TIP3    H252315   9.193   6.260  11.664  0.7400  1.4058  0.9191
 9374TIP3   OH252316   7.468   2.881  12.957  0.5842 -0.3334  0.9147
 9374TIP3    H152317   7.401   2.924  12.903  0.4636 -1.8885 -0.2369
 9374TIP3    H252318   7.501   2.951  13.014  0.9176  1.4837 -1.3548
 9375TIP3   OH252319   3.129   7.843  12.639  0.6722 -0.8513  0.6365
 9375TIP3    H152320   3.124   7.913  12.704  1.5252  0.3251 -0.5201
 9375TIP3    H252321   3.213   7.856  12.596 -0.8669  0.0662 -2.4479
 9376TIP3   OH252322   5.462   1.465  11.562 -0.0457 -0.4632 -0.2139
 9376TIP3    H152323   5.543   1.467  11.512 -0.8736  0.6362 -1.6031
 9376TIP3    H252324   5.405   1.528  11.518 -1.9932 -1.8891  0.1214
 9377TIP3   OH252325   0.426   1.374  13.142  0.0044  0.3063  0.0780
 9377TIP3    H152326   0.438   1.279  13.140 -2.0945 -0.0063 -0.0049
 9377TIP3    H252327   0.333   1.386  13.162  0.1359  2.3450 -0.3124
 9378TIP3   OH252328   1.278   6.822  13.786 -0.0863  0.3779 -0.3869
 9378TIP3    H152329   1.371   6.838  13.769 -0.0997 -0.5162 -1.4147
 9378TIP3    H252330   1.242   6.802  13.700 -0.6788 -2.0155  0.3441
 9379TIP3   OH252331   8.687   7.715  13.294 -0.2204  0.0891 -0.2233
 9379TIP3    H152332   8.757   7.709  13.359 -0.0467 -1.2934 -0.5233
 9379TIP3    H252333   8.630   7.641  13.313 -0.6045  0.1412 -1.1365
 9380TIP3   OH252334   8.478   4.162  12.255  0.2097  0.0540  0.8001
 9380TIP3    H152335   8.520   4.076  12.262  0.9213  0.4294  1.2453
 9380TIP3    H252336   8.522   4.204  12.181 -2.3693 -1.1670 -1.6029
 9381TIP3   OH252337   6.711   3.789  12.411 -0.2620  0.3269  0.1926
 9381TIP3    H152338   6.732   3.717  12.352  0.7632  0.3771  0.4854
 9381TIP3    H252339   6.750   3.867  12.371  0.0629  0.4326  0.7000
 9382TIP3   OH252340   1.947   1.920  12.994  0.9169 -0.2232 -0.4318
 9382TIP3    H152341   1.852   1.936  12.991  1.0629  0.9630  0.3950
 9382TIP3    H252342   1.983   1.975  12.925  1.1273  0.5449  0.2695
 9383TIP3   OH252343   5.738   3.271  12.415  0.1455  0.0441  0.0638
 9383TIP3    H152344   5.825   3.231  12.410  0.3833  0.3092  1.6036
 9383TIP3    H252345   5.737   3.316  12.499 -0.7555  1.8020 -0.8435
 9384TIP3   OH252346   8.123   7.726  11.578 -0.2853 -0.3437 -0.1497
 9384TIP3    H152347   8.141   7.658  11.644 -0.8655 -1.0750 -0.7227
 9384TIP3    H252348   8.133   7.808  11.625  0.3228 -0.8258  0.5974
 9385TIP3   OH252349   6.742   8.494  12.277 -0.2457  0.3643 -0.3232
 9385TIP3    H152350   6.711   8.570  12.226 -0.1305  0.6466  0.0261
 9385TIP3    H252351   6.807   8.453  12.221  0.9996  1.5486  0.2044
 9386TIP3   OH252352   5.587   1.993  12.885  0.1087  0.1771  0.1104
 9386TIP3    H152353   5.607   1.963  12.796  0.5297 -2.0295  0.8901
 9386TIP3    H252354   5.661   2.049  12.908  0.8418 -0.5634 -0.3609
 9387TIP3   OH252355   0.465   2.851  13.629 -0.3498 -0.3644  0.2390
 9387TIP3    H152356   0.399   2.782  13.636 -0.6735 -0.0105  0.7553
 9387TIP3    H252357   0.415   2.932  13.640 -0.0401 -0.0245 -0.7937
 9388TIP3   OH252358   7.220   6.232  12.886 -0.2244  0.0181 -0.2635
 9388TIP3    H152359   7.210   6.212  12.979 -2.5021 -1.8787 -0.7905
 9388TIP3    H252360   7.314   6.239  12.872  0.2356 -1.0692  1.9294
 9389TIP3   OH252361   8.628   8.933  11.824 -0.1100 -0.3295 -0.4915
 9389TIP3    H152362   8.567   8.872  11.782  2.3213 -2.2517 -1.4531
 9389TIP3    H252363   8.625   8.910  11.917  0.7554 -2.0076 -0.8333
 9390TIP3   OH252364   7.994   4.493  12.636 -0.5407  0.0269 -0.4507
 9390TIP3    H152365   8.047   4.496  12.716  0.7803  1.3285 -1.3284
 9390TIP3    H252366   7.914   4.448  12.662 -0.3295  0.8135  1.7120
 9391TIP3   OH252367   8.142   1.277  13.076  0.3980 -0.0282 -0.0775
 9391TIP3    H152368   8.158   1.298  12.985 -2.5911  1.3284 -0.4313
 9391TIP3    H252369   8.178   1.351  13.125  0.1259  0.2974 -0.3645
 9392TIP3   OH252370   4.643   8.221  12.066 -0.1220  0.3836 -0.0203
 9392TIP3    H152371   4.569   8.187  12.116  0.2881 -0.9430 -0.2658
 9392TIP3    H252372   4.651   8.312  12.093 -1.3216  0.3166  0.6232
 9393TIP3   OH252373   1.299   8.732  12.063  0.3301  0.0724  0.9157
 9393TIP3    H152374   1.309   8.825  12.044 -0.5875 -0.1898 -1.1549
 9393TIP3    H252375   1.373   8.690  12.018 -0.2314 -0.3343  0.3505
 9394TIP3   OH252376   1.868   1.927  11.814 -0.6335 -0.8845 -0.3194
 9394TIP3    H152377   1.888   1.841  11.778 -3.0462 -0.5723 -2.7477
 9394TIP3    H252378   1.809   1.909  11.887 -1.1523 -1.3154 -0.8390
 9395TIP3   OH252379   6.426   2.123  12.404 -0.3137 -0.5003 -0.1576
 9395TIP3    H152380   6.501   2.072  12.433 -0.3586  0.3976  1.7108
 9395TIP3    H252381   6.404   2.088  12.317  2.2276 -0.7858 -0.7421
 9396TIP3   OH252382   4.550   1.568  13.425 -0.4706  0.1619 -0.2112
 9396TIP3    H152383   4.530   1.659  13.448 -1.3106 -0.2035  0.5576
 9396TIP3    H252384   4.632   1.550  13.471 -0.3268  0.5104 -0.3219
 9397TIP3   OH252385   4.898   5.615  13.665 -0.0062 -0.4676  0.0183
 9397TIP3    H152386   4.987   5.641  13.689 -0.0769 -0.9614  0.8264
 9397TIP3    H252387   4.846   5.694  13.674 -0.0881 -0.6940  1.7979
 9398TIP3   OH252388   4.574   4.323  13.659 -0.1257  0.3190 -0.3918
 9398TIP3    H152389   4.661   4.299  13.691 -0.6308  1.2925  1.8480
 9398TIP3    H252390   4.580   4.417  13.640 -0.6799  0.3785 -0.2833
 9399TIP3   OH252391   3.456   3.696  12.798 -0.2304  0.0437 -0.3456
 9399TIP3    H152392   3.374   3.652  12.778 -0.2049  0.5805 -1.7507
 9399TIP3    H252393   3.442   3.736  12.884 -1.2652 -0.2855 -0.3554
 9400TIP3   OH252394   1.292   4.972  11.949  0.3031 -0.2479  0.0015
 9400TIP3    H152395   1.368   5.019  11.915 -0.3508  0.1476 -0.9737
 9400TIP3    H252396   1.245   5.038  12.001  0.3349 -0.3340  0.1391
 9401TIP3   OH252397   1.883   8.390  13.264  0.2577  0.7166 -0.3092
 9401TIP3    H152398   1.856   8.482  13.268 -0.9744  0.3485  0.8648
 9401TIP3    H252399   1.967   8.387  13.308  0.9883  1.4827 -1.6034
 9402TIP3   OH252400   5.888   6.875  12.035  0.0321  0.5452  0.7328
 9402TIP3    H152401   5.933   6.901  12.115 -0.2512  2.9136  0.1956
 9402TIP3    H252402   5.833   6.801  12.062  1.2799  0.0974  2.2619
 9403TIP3   OH252403   0.708   5.376  13.782 -0.1552  0.3055  0.3799
 9403TIP3    H152404   0.665   5.458  13.757  0.0324 -0.0472 -1.2052
 9403TIP3    H252405   0.795   5.402  13.812 -0.5813  0.7958  1.2194
 9404TIP3   OH252406   8.429   7.242  13.139 -0.7130  0.3254  0.2401
 9404TIP3    H152407   8.523   7.223  13.135 -0.3398  2.1320 -0.5246
 9404TIP3    H252408   8.387   7.156  13.135  0.8267 -0.4319 -2.6605
 9405TIP3   OH252409   4.422   4.875  12.079  0.1939 -0.1878 -0.2809
 9405TIP3    H152410   4.336   4.909  12.054 -0.1799  0.1901  1.3371
 9405TIP3    H252411   4.440   4.918  12.163  1.7006 -0.7189 -0.3044
 9406TIP3   OH252412   7.422   5.384  12.228  0.3965 -0.4754  0.0425
 9406TIP3    H152413   7.350   5.411  12.285  0.1119 -0.5306 -0.2858
 9406TIP3    H252414   7.389   5.400  12.139  1.2712  0.7204 -0.0823
 9407TIP3   OH252415   2.116   5.891  12.540 -0.1686 -0.1786  0.4960
 9407TIP3    H152416   2.032   5.905  12.498  0.3308 -0.5722 -0.6681
 9407TIP3    H252417   2.153   5.978  12.551 -1.2953  0.1375  2.3051
 9408TIP3   OH252418   5.872   0.766  12.450  0.1964  0.1317 -0.4352
 9408TIP3    H152419   5.799   0.801  12.500  0.2318 -0.5369  0.0990
 9408TIP3    H252420   5.882   0.676  12.482  0.2782 -0.2798 -1.5806
 9409TIP3   OH252421   7.872   5.370  11.868  0.2569 -0.6797 -0.8316
 9409TIP3    H152422   7.844   5.279  11.874 -0.5644 -0.3581  1.2245
 9409TIP3    H252423   7.964   5.370  11.894 -0.0190 -0.8250  0.1824
 9410TIP3   OH252424   3.608   6.771  11.890 -0.1566  0.1890 -0.0713
 9410TIP3    H152425   3.700   6.773  11.862  0.0646  1.8310  0.7000
 9410TIP3    H252426   3.566   6.843  11.843 -0.4527  1.0646  1.4707
 9411TIP3   OH252427   3.140   1.459  12.288  0.3734  0.0418 -0.8099
 9411TIP3    H152428   3.058   1.508  12.284 -0.3428 -1.0122  0.5288
 9411TIP3    H252429   3.193   1.505  12.353  0.4750  0.1577 -0.9722
 9412TIP3   OH252430   8.206   4.728  11.849 -0.0008 -0.6594  0.5798
 9412TIP3    H152431   8.244   4.650  11.890  0.3004 -0.6494  0.3173
 9412TIP3    H252432   8.263   4.800  11.876 -0.0036 -0.6011  0.4315
 9413TIP3   OH252433   7.849   9.123  11.785 -0.3375 -0.0044  0.0735
 9413TIP3    H152434   7.784   9.165  11.729  0.0403  1.7791  0.9005
 9413TIP3    H252435   7.852   9.032  11.754 -2.0511  0.2571 -1.0137
 9414TIP3   OH252436   7.400   1.227  11.478 -0.2568 -0.1584  0.0651
 9414TIP3    H152437   7.461   1.299  11.463  0.0575 -0.2957  0.6608
 9414TIP3    H252438   7.341   1.230  11.403 -0.4599  0.9338  0.2437
 9415TIP3   OH252439   2.614   4.891  11.578  0.4757 -0.0973  0.5015
 9415TIP3    H152440   2.681   4.958  11.566  0.4021 -0.0912  0.1046
 9415TIP3    H252441   2.532   4.940  11.589  0.5075 -0.1092  0.7966
 9416TIP3   OH252442   3.189   5.602  12.846 -0.2567  0.2447  0.4338
 9416TIP3    H152443   3.236   5.613  12.929 -0.7174  3.1626  0.4276
 9416TIP3    H252444   3.124   5.672  12.846  0.1306  0.7431 -2.6561
 9417TIP3   OH252445   3.679   6.129  12.353 -0.0729  0.7607 -0.2696
 9417TIP3    H152446   3.737   6.078  12.298 -0.9561 -1.5017  0.7793
 9417TIP3    H252447   3.708   6.111  12.443 -1.9200  0.1065  0.2433
 9418TIP3   OH252448   3.476   8.319  12.174 -0.1749  0.4390  0.2234
 9418TIP3    H152449   3.499   8.238  12.129 -1.6815  0.3300 -0.4103
 9418TIP3    H252450   3.560   8.361  12.192  0.5676 -0.5783 -0.6989
 9419TIP3   OH252451   5.231   2.418  11.815  0.6773  0.5658 -0.1792
 9419TIP3    H152452   5.318   2.457  11.815 -0.0396  2.2871 -0.9081
 9419TIP3    H252453   5.226   2.369  11.897  2.0035  1.1908  0.2968
 9420TIP3   OH252454   2.962   6.456  12.925 -0.4531  0.1927 -0.0322
 9420TIP3    H152455   2.944   6.528  12.865 -0.9606 -0.6049 -0.8733
 9420TIP3    H252456   3.020   6.398  12.875  1.2004  0.7502  1.1881
 9421TIP3   OH252457   7.846   4.641  12.396 -0.4702  0.2944  0.6741
 9421TIP3    H152458   7.823   4.592  12.317 -1.9954  0.4344  1.0002
 9421TIP3    H252459   7.833   4.580  12.468 -0.4785  0.5859  0.9245
 9422TIP3   OH252460   1.788   4.128  12.713  0.4321 -0.6762  0.1551
 9422TIP3    H152461   1.810   4.221  12.712  1.5597 -0.9038 -1.3094
 9422TIP3    H252462   1.765   4.109  12.804 -1.7869  1.4347  0.1391
 9423TIP3   OH252463   2.145   6.667  11.703 -0.2488 -0.1894 -0.0089
 9423TIP3    H152464   2.182   6.619  11.777  0.3542  0.0269 -0.1654
 9423TIP3    H252465   2.059   6.696  11.734 -0.5270 -1.1731  0.1623
 9424TIP3   OH252466   3.292   3.112  12.652  0.0761 -1.0078  0.3511
 9424TIP3    H152467   3.292   3.023  12.689 -0.4528  0.1031  3.3421
 9424TIP3    H252468   3.270   3.168  12.727 -0.3010  1.5974 -1.5966
 9425TIP3   OH252469   4.091   2.310  11.574  0.2946  0.2764  0.1276
 9425TIP3    H152470   4.129   2.244  11.631 -0.0615  0.3629  0.4704
 9425TIP3    H252471   4.043   2.259  11.508 -0.1445  0.1924  0.5061
 9426TIP3   OH252472   0.726   0.659  11.886 -0.5093 -0.6042 -0.0291
 9426TIP3    H152473   0.749   0.751  11.873 -0.4523 -0.6947 -0.5945
 9426TIP3    H252474   0.632   0.655  11.867 -0.8320 -0.4112  1.3643
 9427TIP3   OH252475   3.274   0.012  13.595  0.4378  0.9559 -0.2994
 9427TIP3    H152476   3.258  -0.050  13.666 -0.7785  1.4564 -0.1080
 9427TIP3    H252477   3.320   0.085  13.636  3.1436 -0.3565 -0.7903
 9428TIP3   OH252478   6.522   1.782  12.977  0.7601 -0.1161 -0.1055
 9428TIP3    H152479   6.503   1.698  12.934  1.4085 -0.5010  0.3394
 9428TIP3    H252480   6.617   1.786  12.982  0.7802  1.2503 -1.2411
 9429TIP3   OH252481   0.942   6.579  11.868  0.1664 -0.0690  0.1357
 9429TIP3    H152482   0.880   6.611  11.802 -0.4267 -1.4464 -0.0077
 9429TIP3    H252483   1.027   6.579  11.823 -0.1838 -0.7034 -0.5443
 9430TIP3   OH252484   7.030   7.340  12.563  0.0008 -0.1756 -0.1941
 9430TIP3    H152485   7.047   7.418  12.511 -0.7668 -0.5811 -1.0722
 9430TIP3    H252486   6.936   7.326  12.555  0.3951 -2.3404 -1.7426
 9431TIP3   OH252487   1.264   6.557  13.196 -0.1634 -0.5499  0.2555
 9431TIP3    H152488   1.305   6.470  13.200 -1.1246 -0.9805  1.3842
 9431TIP3    H252489   1.301   6.604  13.272 -0.4985 -0.3651  0.3054
 9432TIP3   OH252490   1.538   8.469  13.220 -0.5577  0.4937  0.4672
 9432TIP3    H152491   1.576   8.467  13.132  1.5087 -1.2503  1.3066
 9432TIP3    H252492   1.502   8.557  13.229  0.7210  1.2836 -1.5019
 9433TIP3   OH252493   1.577   0.525  13.394  0.2155  0.5967 -0.2088
 9433TIP3    H152494   1.562   0.456  13.330 -3.4191  1.8456 -0.8855
 9433TIP3    H252495   1.619   0.480  13.468  2.2894 -1.3300 -2.3735
 9434TIP3   OH252496   7.226   6.886  12.303  0.3770 -0.6408  0.0452
 9434TIP3    H152497   7.141   6.890  12.348 -0.5418 -3.3613 -1.2118
 9434TIP3    H252498   7.278   6.826  12.357  1.6703  1.2081  0.9475
 9435TIP3   OH252499   1.788   8.790  12.851  0.3107  0.0476  0.1243
 9435TIP3    H152500   1.877   8.759  12.831  0.5421 -0.3188  1.5851
 9435TIP3    H252501   1.753   8.817  12.767  2.0410  0.7978 -0.4002
 9436TIP3   OH252502   4.023   6.872  13.763  0.3819 -0.2504  0.3630
 9436TIP3    H152503   3.955   6.885  13.829 -0.1457 -0.7241 -0.0766
 9436TIP3    H252504   4.074   6.954  13.765 -0.9418  0.6176 -0.1630
 9437TIP3   OH252505   3.670   2.875  12.670  0.5375 -0.2522  0.0478
 9437TIP3    H152506   3.599   2.876  12.734 -0.7566  1.9081 -1.3074
 9437TIP3    H252507   3.749   2.892  12.722 -0.5974  2.5668  1.0252
 9438TIP3   OH252508   3.633   4.082  13.582 -0.0755  0.0450  0.2674
 9438TIP3    H152509   3.709   4.128  13.547 -0.5125  1.0333  0.5559
 9438TIP3    H252510   3.665   4.041  13.663  0.3578 -0.2834 -0.0688
 9439TIP3   OH252511   1.706   4.266  11.713 -0.1117  0.0699  0.0955
 9439TIP3    H152512   1.739   4.196  11.657 -0.3358 -0.6151  0.8005
 9439TIP3    H252513   1.776   4.281  11.776 -0.7032 -0.6863  0.9678
 9440TIP3   OH252514   2.216   4.588  12.036  0.2973 -0.0518 -0.3930
 9440TIP3    H152515   2.307   4.614  12.047  1.0012 -2.7819  0.9617
 9440TIP3    H252516   2.211   4.500  12.073 -2.6855 -0.3870 -1.3278
 9441TIP3   OH252517   3.492   1.813  12.480 -0.1551  0.2084  0.4838
 9441TIP3    H152518   3.411   1.859  12.460 -0.1523 -0.1354 -0.3566
 9441TIP3    H252519   3.557   1.882  12.492 -0.9476  0.6121  3.1665
 9442TIP3   OH252520   4.419   6.087  12.622  0.0804 -0.1475 -0.6585
 9442TIP3    H152521   4.452   6.115  12.537  2.7556 -1.9499 -0.3111
 9442TIP3    H252522   4.497   6.078  12.677 -1.2516 -1.9962  1.0829
 9443TIP3   OH252523   2.944   3.742  12.803  0.3786 -0.0513 -0.0347
 9443TIP3    H152524   2.876   3.792  12.849  2.0052  1.1769  1.1800
 9443TIP3    H252525   2.910   3.731  12.714 -0.9444  1.4945  0.2327
 9444TIP3   OH252526   7.205   8.762  12.123  0.0482 -0.5645 -0.0976
 9444TIP3    H152527   7.193   8.823  12.050 -2.4456 -1.7225 -0.7610
 9444TIP3    H252528   7.189   8.676  12.085  0.3290 -1.3555  1.4939
 9445TIP3   OH252529   8.564   4.918  13.289  0.9985  0.1218  0.5279
 9445TIP3    H152530   8.611   4.841  13.322  1.0499  0.1615  0.5465
 9445TIP3    H252531   8.627   4.990  13.296  0.2686  0.6448  2.6077
 9446TIP3   OH252532   4.287   1.707  13.724  0.2510 -0.0467 -0.9586
 9446TIP3    H152533   4.381   1.701  13.710  0.7995 -0.8478  2.2916
 9446TIP3    H252534   4.255   1.618  13.705  0.3018 -0.0551 -1.0085
 9447TIP3   OH252535   5.523   2.822  12.411 -0.3250 -0.0566  0.2599
 9447TIP3    H152536   5.559   2.888  12.470 -0.2626 -0.7055  0.9621
 9447TIP3    H252537   5.540   2.857  12.323  2.8252 -0.6976  0.5085
 9448TIP3   OH252538   4.649   1.811  11.161  0.4639 -0.5358  0.3243
 9448TIP3    H152539   4.636   1.806  11.255  0.8933 -1.3098  0.3492
 9448TIP3    H252540   4.620   1.726  11.128  0.0403 -0.1656 -0.2768
 9449TIP3   OH252541   2.898   6.174  13.380  0.2174 -0.6645  0.0740
 9449TIP3    H152542   2.954   6.138  13.312 -1.2071  0.4806 -1.7999
 9449TIP3    H252543   2.958   6.227  13.433  0.8173  1.8654 -2.8151
 9450TIP3   OH252544   3.201   2.418  12.659 -0.0378 -0.3419  0.0583
 9450TIP3    H152545   3.142   2.384  12.726  0.4586 -1.7116 -0.1688
 9450TIP3    H252546   3.278   2.447  12.707  1.4298 -3.6628  0.0140
 9451TIP3   OH252547   8.362   3.107  12.692  0.4208 -0.3294 -0.3513
 9451TIP3    H152548   8.306   3.076  12.620  1.0351  1.2932 -1.5736
 9451TIP3    H252549   8.451   3.092  12.662  0.7042 -1.4626  0.9440
 9452TIP3   OH252550   1.033   5.021  12.467 -0.6880  0.6240 -0.0189
 9452TIP3    H152551   1.081   5.099  12.440 -0.3390  0.2915 -0.3802
 9452TIP3    H252552   1.038   4.962  12.391 -1.3260  0.4247  0.0862
 9453TIP3   OH252553   4.550   2.994  12.542 -0.4836 -0.2394 -0.1608
 9453TIP3    H152554   4.483   3.050  12.503 -1.5912 -1.5591 -0.2272
 9453TIP3    H252555   4.511   2.963  12.624  0.0964 -0.9455 -0.1398
 9454TIP3   OH252556   5.889   7.476  12.399 -0.4594  0.5987  0.5357
 9454TIP3    H152557   5.831   7.459  12.473  0.1417 -0.4406  0.7941
 9454TIP3    H252558   5.958   7.532  12.434 -1.5900  2.3647  0.0777
 9455TIP3   OH252559   2.601   1.037  12.820 -0.2083 -0.0291  0.1070
 9455TIP3    H152560   2.571   0.965  12.877 -0.6115  2.2653  3.0352
 9455TIP3    H252561   2.521   1.074  12.785 -0.2505  0.8227  1.0615
 9456TIP3   OH252562   1.878   4.079  11.515 -0.6400  0.4436  0.2401
 9456TIP3    H152563   1.886   4.075  11.420 -3.1588 -0.4550  0.0043
 9456TIP3    H252564   1.957   4.125  11.543  1.3303 -1.2881 -2.0468
 9457TIP3   OH252565   0.836   0.661  12.855  0.2413 -0.5356 -0.2587
 9457TIP3    H152566   0.853   0.566  12.855  2.2359 -0.2197 -0.4237
 9457TIP3    H252567   0.920   0.700  12.879 -0.2946  1.2411 -1.1567
 9458TIP3   OH252568   4.513   1.353  12.092  0.4406  0.0594 -0.1185
 9458TIP3    H152569   4.449   1.311  12.035 -0.5121  0.6269  0.5075
 9458TIP3    H252570   4.487   1.327  12.180  0.3078  1.3097  0.2266
 9459TIP3   OH252571   8.151   1.310  12.381 -0.1480 -0.5116  0.3363
 9459TIP3    H152572   8.146   1.365  12.303 -1.2763  0.4566  1.0553
 9459TIP3    H252573   8.126   1.223  12.350 -1.2452 -0.0041 -0.2792
 9460TIP3   OH252574   1.647   5.802  12.392 -0.2432 -0.2152 -0.0231
 9460TIP3    H152575   1.692   5.722  12.363  0.5555 -0.4756  1.7787
 9460TIP3    H252576   1.576   5.813  12.330 -0.6371 -2.5820 -0.1094
 9461TIP3   OH252577   1.681   4.783  13.849  0.2486 -0.2612  0.8109
 9461TIP3    H152578   1.764   4.830  13.840  0.2464 -0.5794 -4.9498
 9461TIP3    H252579   1.616   4.842  13.810 -1.4198 -1.6550  1.3584
 9462TIP3   OH252580   4.287   4.361  12.366 -0.0391 -0.3688 -0.5044
 9462TIP3    H152581   4.318   4.307  12.293  0.7842 -0.6842  0.0580
 9462TIP3    H252582   4.192   4.363  12.356 -0.0911 -1.9133 -0.5607
 9463TIP3   OH252583   2.313   6.170  13.053 -0.3017  0.0943  0.0919
 9463TIP3    H152584   2.362   6.116  12.990 -2.8338 -1.8025 -0.3980
 9463TIP3    H252585   2.262   6.230  12.998 -0.0720  0.7039  0.5277
 9464TIP3   OH252586   6.810   0.322  12.689  0.1131 -0.3667  0.2778
 9464TIP3    H152587   6.806   0.388  12.759  0.0662 -1.8549  1.7577
 9464TIP3    H252588   6.851   0.368  12.616 -0.0851  1.3535  1.1768
 9465TIP3   OH252589   2.194   2.209  12.133 -0.0567 -0.2836  0.3697
 9465TIP3    H152590   2.246   2.252  12.200  0.8942  0.7786 -0.9885
 9465TIP3    H252591   2.167   2.280  12.074  0.1546 -1.3058 -1.0190
 9466TIP3   OH252592   6.628   3.432  11.681 -0.6495  0.1989  0.2978
 9466TIP3    H152593   6.694   3.426  11.750 -0.6677  0.3415  0.3263
 9466TIP3    H252594   6.612   3.340  11.656 -1.4022  0.0678  1.2006
 9467TIP3   OH252595   2.267   7.092  11.939 -0.3932  0.4155  0.2577
 9467TIP3    H152596   2.204   7.148  11.984 -1.7184 -0.1464 -0.8318
 9467TIP3    H252597   2.345   7.146  11.930 -1.5992  2.1024 -0.6935
 9468TIP3   OH252598   1.126   2.818  12.168  0.5794 -0.1515 -0.1592
 9468TIP3    H152599   1.071   2.742  12.146  0.7602 -0.4764  0.4819
 9468TIP3    H252600   1.072   2.870  12.227  1.1947 -0.8279  1.0416
 9469TIP3   OH252601   1.402   5.735  13.565  0.4838 -0.1372 -0.3373
 9469TIP3    H152602   1.332   5.682  13.527  0.0605  0.1873 -0.0140
 9469TIP3    H252603   1.461   5.752  13.492 -0.2802  0.4040 -0.8533
 9470TIP3   OH252604   4.857   4.993  11.702 -0.5408 -0.3035 -0.5487
 9470TIP3    H152605   4.890   4.946  11.779  2.7462  3.2600  0.5268
 9470TIP3    H252606   4.805   5.064  11.737  0.7436  1.1855 -1.5380
 9471TIP3   OH252607   7.182   2.127  11.748 -0.0624  0.0460 -0.5269
 9471TIP3    H152608   7.154   2.176  11.825 -0.8398 -0.9753 -0.1287
 9471TIP3    H252609   7.107   2.071  11.728 -0.3393  1.1044 -2.7423
 9472TIP3   OH252610   0.121   7.065  12.201 -0.0184  0.3590  0.1257
 9472TIP3    H152611   0.144   7.136  12.141  0.4920 -0.5681 -0.8013
 9472TIP3    H252612   0.028   7.050  12.185 -0.0892  0.6860  0.2062
 9473TIP3   OH252613   0.132   5.810  12.801 -0.0223 -0.1071 -0.2461
 9473TIP3    H152614   0.039   5.794  12.783 -1.3372  2.6231  2.8569
 9473TIP3    H252615   0.146   5.771  12.888  1.2891  0.7995 -0.0303
 9474TIP3   OH252616   5.909   8.863  12.727 -0.2802 -0.1427  0.2206
 9474TIP3    H152617   5.957   8.943  12.706 -2.2073  0.9335 -0.2885
 9474TIP3    H252618   5.880   8.876  12.817 -1.6190  0.2992 -0.2553
 9475TIP3   OH252619   7.494   2.704  12.700 -0.3839 -0.1182 -0.5366
 9475TIP3    H152620   7.509   2.744  12.785 -1.4145 -1.8000  0.4838
 9475TIP3    H252621   7.422   2.643  12.714 -1.1133  0.1078 -2.8007
 9476TIP3   OH252622   4.482   6.343  12.889 -0.1003  0.7268 -0.3092
 9476TIP3    H152623   4.522   6.353  12.803 -0.4839  2.9265 -0.2916
 9476TIP3    H252624   4.509   6.421  12.937  0.2091 -0.4918  1.6429
 9477TIP3   OH252625   7.030   6.089  12.713 -0.5829 -0.1666 -0.7245
 9477TIP3    H152626   7.093   6.133  12.770 -1.9335 -1.1859  1.6912
 9477TIP3    H252627   7.079   6.014  12.677  0.3701  0.6546 -1.2036
 9478TIP3   OH252628   2.654   0.472  11.756 -0.4847 -0.1842  0.3305
 9478TIP3    H152629   2.629   0.564  11.763  0.5206  0.3529 -2.0693
 9478TIP3    H252630   2.687   0.463  11.667  0.0558 -2.7433  0.7094
 9479TIP3   OH252631   0.101   6.652  12.938 -0.1766  0.1607 -0.0084
 9479TIP3    H152632   0.009   6.629  12.922 -0.6073  0.1346  2.1735
 9479TIP3    H252633   0.151   6.577  12.906 -1.2099 -1.5942  2.2501
 9480TIP3   OH252634   6.836   6.232  11.680 -0.3730 -0.3503 -0.1763
 9480TIP3    H152635   6.880   6.314  11.656 -0.0720 -0.3383  0.4086
 9480TIP3    H252636   6.897   6.188  11.739 -1.1640 -0.3152  0.6934
 9481TIP3   OH252637   7.905   7.581  11.480 -0.0998  0.0558 -0.3789
 9481TIP3    H152638   7.964   7.656  11.491 -1.0881  1.0047 -1.2828
 9481TIP3    H252639   7.963   7.508  11.459  0.7369  1.1235 -2.0411
 9482TIP3   OH252640   2.066   8.861  12.945  0.0863 -0.1013 -0.0773
 9482TIP3    H152641   2.134   8.887  13.008  0.5767  1.0113 -1.0347
 9482TIP3    H252642   2.113   8.810  12.879 -0.3334 -0.8146  0.1687
 9483TIP3   OH252643   2.591   0.799  12.970 -0.0944  0.0888 -0.0387
 9483TIP3    H152644   2.522   0.748  13.012 -1.6344  1.0144 -1.2842
 9483TIP3    H252645   2.666   0.740  12.966 -1.1087 -1.3036  0.5199
 9484TIP3   OH252646   3.562   2.282  12.242 -1.0455  0.7346  0.6120
 9484TIP3    H152647   3.522   2.256  12.159 -2.0975  1.9109  0.7213
 9484TIP3    H252648   3.656   2.279  12.226 -1.1541 -1.3992  0.1309
 9485TIP3   OH252649   3.203   6.444  13.209 -0.0443 -0.3372 -0.1715
 9485TIP3    H152650   3.249   6.371  13.251  1.0520  0.9994  1.0620
 9485TIP3    H252651   3.240   6.448  13.121 -0.8330 -1.8389 -0.6184
 9486TIP3   OH252652   0.080   6.666  12.416  0.2127  0.2162 -0.2383
 9486TIP3    H152653   0.085   6.570  12.413 -0.7967  0.1347  0.1953
 9486TIP3    H252654   0.056   6.685  12.506 -0.8416  0.8058 -0.6334
 9487TIP3   OH252655   6.978   5.625  11.832 -0.1173  0.0291  0.1103
 9487TIP3    H152656   6.975   5.666  11.918  1.3924 -0.0504  0.2236
 9487TIP3    H252657   6.886   5.611  11.809 -0.5699  0.9965  1.2422
 9488TIP3   OH252658   4.671   8.892  11.795 -0.0949  1.0578  0.0718
 9488TIP3    H152659   4.709   8.979  11.807  0.4635  0.7300  0.8342
 9488TIP3    H252660   4.605   8.885  11.864  1.4439  0.0591  1.5381
 9489TIP3   OH252661   5.476   7.669  11.773 -0.3404 -0.2525  0.0051
 9489TIP3    H152662   5.503   7.581  11.747 -0.1951 -0.5724  1.1821
 9489TIP3    H252663   5.431   7.656  11.857  0.1311  0.8529  0.4438
 9490TIP3   OH252664   1.595   4.467  12.061  0.2830 -0.2389 -0.4884
 9490TIP3    H152665   1.568   4.539  12.119  0.3601  0.2802 -1.0814
 9490TIP3    H252666   1.523   4.404  12.068 -0.4317  0.5005 -0.9737
 9491TIP3   OH252667   5.793   5.063  12.862 -0.7698  0.0971  0.4720
 9491TIP3    H152668   5.766   5.151  12.835 -1.8872 -0.0157  1.1347
 9491TIP3    H252669   5.833   5.076  12.948 -0.4805  0.0186  0.3489
 9492TIP3   OH252670   2.037   2.669  12.888 -0.3041  0.0524  0.1627
 9492TIP3    H152671   2.065   2.593  12.836  0.0172  1.0393 -1.1962
 9492TIP3    H252672   1.942   2.660  12.896 -0.7312  0.9462 -2.5840
 9493TIP3   OH252673   1.671   7.434  11.822 -0.0351  0.3233  0.3415
 9493TIP3    H152674   1.717   7.351  11.809 -1.1507 -0.1242 -0.9550
 9493TIP3    H252675   1.583   7.407  11.852 -0.7310  0.9769 -1.0608
 9494TIP3   OH252676   8.821   2.850  12.727  0.2619  0.2558  0.3217
 9494TIP3    H152677   8.764   2.795  12.673  0.5602  2.0465 -1.9728
 9494TIP3    H252678   8.885   2.789  12.764 -1.0338 -1.2968  0.1198
 9495TIP3   OH252679   6.413   4.923  13.083 -0.0719  0.0698 -0.0162
 9495TIP3    H152680   6.400   4.865  13.008 -0.9094  1.4066 -0.9681
 9495TIP3    H252681   6.331   4.918  13.131  0.5224 -0.9067  0.9391
 9496TIP3   OH252682   0.062   9.004  12.057 -0.2379  0.2052  0.5204
 9496TIP3    H152683   0.041   8.912  12.068  0.6318  0.0674  1.0575
 9496TIP3    H252684   0.026   9.026  11.970 -1.2283 -0.3951  0.7610
 9497TIP3   OH252685   2.246   0.409  11.990 -0.4170  0.0106  0.4745
 9497TIP3    H152686   2.232   0.449  12.076  0.0178  0.4958  0.3263
 9497TIP3    H252687   2.340   0.419  11.974 -0.5075  0.0003 -0.0911
 9498TIP3   OH252688   4.716   1.546  12.823 -0.3279 -0.0802  0.2171
 9498TIP3    H152689   4.772   1.481  12.781 -1.9087 -1.8412  0.7109
 9498TIP3    H252690   4.658   1.495  12.879 -0.6611  1.8990  1.7854
 9499TIP3   OH252691   5.434   1.762  12.545  0.2369 -0.8511  0.3781
 9499TIP3    H152692   5.414   1.816  12.621 -2.6449 -0.8248 -0.2816
 9499TIP3    H252693   5.428   1.822  12.470 -0.1092 -1.4858 -0.1171
 9500TIP3   OH252694   6.596   8.996  12.369 -0.6865 -0.1693  0.3270
 9500TIP3    H152695   6.650   9.075  12.367  0.6503 -0.7519  4.2866
 9500TIP3    H252696   6.651   8.928  12.330 -0.1552  0.0706  0.6458
 9501TIP3   OH252697   0.113   0.000  13.494 -0.4750 -1.0581 -0.6272
 9501TIP3    H152698   0.041  -0.024  13.437 -0.1645 -1.1406 -0.9924
 9501TIP3    H252699   0.107   0.095  13.502 -0.1364 -0.9732 -1.3267
 9502TIP3   OH252700   2.212   0.461  12.253 -0.1466  0.1511  0.7443
 9502TIP3    H152701   2.296   0.424  12.278 -0.1011 -0.3464 -0.1362
 9502TIP3    H252702   2.167   0.476  12.337  1.0746  1.0786  1.2562
 9503TIP3   OH252703   3.963   1.496  11.784 -0.2786 -0.2752 -0.0323
 9503TIP3    H152704   4.034   1.478  11.846 -0.5718 -3.0081 -0.3954
 9503TIP3    H252705   3.921   1.574  11.819  0.7924 -0.5816  2.0945
 9504TIP3   OH252706   3.860   7.497  12.368 -0.0781  0.7543 -0.0571
 9504TIP3    H152707   3.941   7.521  12.413  0.0521 -0.1892  0.2468
 9504TIP3    H252708   3.877   7.408  12.335 -1.1849  0.3150  0.5194
 9505TIP3   OH252709   5.755   7.902  12.003 -0.2780  0.0668 -0.2337
 9505TIP3    H152710   5.790   7.990  11.987 -0.6303  0.6380  1.9208
 9505TIP3    H252711   5.677   7.897  11.947 -0.5579  1.3339  0.0241
 9506TIP3   OH252712   1.888   8.509  12.013  0.4324 -1.0256 -0.1793
 9506TIP3    H152713   1.850   8.596  12.000 -0.4038 -1.2984  0.3695
 9506TIP3    H252714   1.976   8.526  12.046  0.1538 -0.3867  0.2549
 9507TIP3   OH252715   1.246   7.799  13.732 -0.0500  0.5096 -0.2242
 9507TIP3    H152716   1.223   7.716  13.775 -1.6926  0.4017 -1.2399
 9507TIP3    H252717   1.340   7.810  13.751 -0.6325  0.4712  3.3003
 9508TIP3   OH252718   7.481   6.120  11.758 -0.4050  0.0003  0.0995
 9508TIP3    H152719   7.552   6.184  11.753 -0.9195  0.4583 -2.0435
 9508TIP3    H252720   7.525   6.039  11.784  0.9809  0.2120 -1.4333
 9509TIP3   OH252721   4.981   2.553  12.722 -0.2880  0.0080  0.1150
 9509TIP3    H152722   4.921   2.480  12.705 -1.1987  0.7468  0.0662
 9509TIP3    H252723   4.956   2.584  12.810 -0.4504  0.7637 -0.1944
 9510TIP3   OH252724   8.970   4.131  11.815 -0.0510  0.3230  0.3367
 9510TIP3    H152725   8.893   4.133  11.871 -1.7387 -0.8182 -1.8119
 9510TIP3    H252726   8.986   4.222  11.792  0.5718  0.7962  2.4188
 9511TIP3   OH252727   0.662   5.914  12.701 -0.1687  0.1163  0.0212
 9511TIP3    H152728   0.731   5.911  12.767  1.6157 -0.7204 -1.7856
 9511TIP3    H252729   0.700   5.962  12.628 -1.5796 -0.2014 -0.9673
 9512TIP3   OH252730   0.011   8.079  13.106 -0.0430  0.0926 -0.2132
 9512TIP3    H152731  -0.072   8.049  13.144 -0.7390  1.6937 -0.4279
 9512TIP3    H252732   0.024   8.166  13.142  1.0699  0.2411 -0.9443
 9513TIP3   OH252733   7.220   2.591  11.666 -0.2151  0.0720 -0.4438
 9513TIP3    H152734   7.176   2.590  11.582 -0.2242 -2.6364 -0.5121
 9513TIP3    H252735   7.150   2.582  11.731 -0.0805  0.2127 -0.2769
 9514TIP3   OH252736   5.675   1.307  13.162  0.7572 -0.1512  0.0703
 9514TIP3    H152737   5.759   1.272  13.133  0.9361  0.9795 -0.8730
 9514TIP3    H252738   5.698   1.381  13.218  0.3856  0.1843 -0.2180
 9515TIP3   OH252739   8.010   2.698  11.779  0.0542  0.4993  0.7414
 9515TIP3    H152740   7.943   2.760  11.750  0.1220 -0.5421 -1.9313
 9515TIP3    H252741   8.062   2.747  11.843 -2.5174  1.6961  2.0692
 9516TIP3   OH252742   1.819   5.433  13.187  0.2488  0.4474 -0.0601
 9516TIP3    H152743   1.773   5.517  13.187  1.9888  1.4314  0.0647
 9516TIP3    H252744   1.896   5.447  13.132 -0.0186 -1.4266 -0.9943
 9517TIP3   OH252745   8.662   5.388  12.809  0.2281  0.1953  0.5168
 9517TIP3    H152746   8.573   5.418  12.795  0.7983  0.7407 -2.7028
 9517TIP3    H252747   8.683   5.336  12.731  1.9051 -2.1181  2.3401
 9518TIP3   OH252748   6.962   6.350  12.874 -1.0424 -0.7601  0.2154
 9518TIP3    H152749   6.878   6.331  12.917 -1.3011 -1.9823 -0.7744
 9518TIP3    H252750   7.024   6.290  12.916 -0.5268  0.4582  1.2687
 9519TIP3   OH252751   8.231   3.592  12.995 -0.1420 -0.3335  0.3577
 9519TIP3    H152752   8.199   3.518  13.046  3.3273 -2.0089  0.3650
 9519TIP3    H252753   8.308   3.624  13.043 -0.0183  1.6239 -0.9866
 9520TIP3   OH252754   0.377   0.397  13.333  0.1182 -0.0153 -0.0396
 9520TIP3    H152755   0.465   0.429  13.316  0.2003  0.0684  0.5027
 9520TIP3    H252756   0.387   0.302  13.342 -0.2808 -0.3586 -2.6263
 9521TIP3   OH252757   7.706   1.307  11.675  0.3553  0.1935  0.9647
 9521TIP3    H152758   7.654   1.369  11.624  1.0932 -0.0653 -0.1273
 9521TIP3    H252759   7.645   1.272  11.740  0.0713  2.4876  2.0181
 9522TIP3   OH252760   5.246   6.482  12.188  0.0234 -0.0262 -0.0487
 9522TIP3    H152761   5.183   6.418  12.221  0.3696 -0.5430 -0.3803
 9522TIP3    H252762   5.195   6.562  12.178  0.1227  0.4666  2.6837
 9523TIP3   OH252763   1.294   4.669  12.804  0.5966  0.1175  0.5539
 9523TIP3    H152764   1.215   4.723  12.798  0.9127  0.4675 -0.8228
 9523TIP3    H252765   1.365   4.730  12.785  0.8611 -1.0073 -2.5265
 9524TIP3   OH252766   0.237   1.081  11.632 -0.1426 -0.2566 -0.0157
 9524TIP3    H152767   0.266   1.171  11.620  0.0493 -0.1425  1.1577
 9524TIP3    H252768   0.162   1.072  11.573  0.5696  0.2814 -1.0424
 9525TIP3   OH252769   5.090   6.271  12.341 -0.0769 -0.6176 -0.3225
 9525TIP3    H152770   5.158   6.216  12.378 -0.5401  0.6634  2.7060
 9525TIP3    H252771   5.017   6.212  12.324 -0.3846 -1.1271  2.3891
 9526TIP3   OH252772   4.823   7.495  12.718  0.4033  0.3111  0.1664
 9526TIP3    H152773   4.735   7.514  12.750 -1.0176 -0.5623 -2.8059
 9526TIP3    H252774   4.852   7.576  12.677 -0.6650 -0.3286 -2.0512
 9527TIP3   OH252775   8.415   7.501  12.490  0.2979 -0.2911  0.3072
 9527TIP3    H152776   8.431   7.581  12.439  3.0512 -0.9986 -0.0717
 9527TIP3    H252777   8.354   7.528  12.559  1.5808  2.2871  0.5307
 9528TIP3   OH252778   1.108   5.220  11.764  0.3350  0.2530 -0.4829
 9528TIP3    H152779   1.091   5.267  11.682 -0.4980 -0.2021 -0.5820
 9528TIP3    H252780   1.121   5.290  11.829  0.4987  0.6172 -0.9014
 9529TIP3   OH252781   9.184   2.427  11.623 -0.2287  0.3213 -0.7335
 9529TIP3    H152782   9.125   2.385  11.560  1.5110  0.7348 -2.7554
 9529TIP3    H252783   9.265   2.376  11.617  0.7245  1.7620 -0.5466
 9530TIP3   OH252784   3.193   6.730  13.181 -0.1726  0.2982 -0.3806
 9530TIP3    H152785   3.158   6.641  13.170 -2.5222  1.1366 -0.2712
 9530TIP3    H252786   3.280   6.717  13.219  0.1503 -1.9880 -1.7447
 9531TIP3   OH252787   3.391   2.567  12.776 -0.0221 -0.0720 -0.5525
 9531TIP3    H152788   3.470   2.581  12.828 -1.0880  1.0349  0.8474
 9531TIP3    H252789   3.335   2.641  12.797 -0.7074  0.1730 -2.9607
 9532TIP3   OH252790   4.367   3.034  11.908  0.6872  0.8059  0.1428
 9532TIP3    H152791   4.370   2.957  11.851  1.7866  1.4831 -0.7557
 9532TIP3    H252792   4.313   3.098  11.861 -0.3024  0.5781  0.9293
 9533TIP3   OH252793   3.344   2.361  11.887 -0.1099 -0.3201  0.1544
 9533TIP3    H152794   3.405   2.401  11.825 -0.7734  1.0057  0.3374
 9533TIP3    H252795   3.257   2.384  11.855 -0.4702  1.0630  1.9536
 9534TIP3   OH252796   5.309   8.966  11.814  0.2064  0.6860 -0.6779
 9534TIP3    H152797   5.289   9.047  11.861 -0.7852 -0.7421  1.4881
 9534TIP3    H252798   5.227   8.944  11.769 -0.4448 -0.4665  0.9526
 9535TIP3   OH252799   8.487   0.599  11.564 -0.5635 -0.2058 -0.2161
 9535TIP3    H152800   8.482   0.519  11.616  0.0709  0.8784  1.6058
 9535TIP3    H252801   8.481   0.569  11.473 -2.0291 -2.1433  0.4577
 9536TIP3   OH252802   8.603   3.603  11.851  0.2516  0.0250  0.5125
 9536TIP3    H152803   8.629   3.540  11.783  1.0901  0.0365  0.8086
 9536TIP3    H252804   8.629   3.688  11.816 -1.7216  0.3551 -0.2995
 9537TIP3   OH252805   0.060   4.009  12.502 -0.0438  0.0549 -0.2776
 9537TIP3    H152806   0.009   4.000  12.582 -0.8149  0.8568 -0.6516
 9537TIP3    H252807   0.003   3.975  12.433  0.0604  0.6100 -0.6500
 9538TIP3   OH252808   3.917   4.280  12.649 -0.0217 -0.9257 -0.3089
 9538TIP3    H152809   3.949   4.361  12.608  0.4704 -0.6564  0.5897
 9538TIP3    H252810   3.906   4.219  12.576 -0.5324 -0.0094 -1.0155
 9539TIP3   OH252811   8.648   2.632  12.705 -0.2250 -0.1790 -0.6270
 9539TIP3    H152812   8.657   2.551  12.656  2.0126 -0.4719  0.1429
 9539TIP3    H252813   8.554   2.644  12.716 -0.6345 -2.0010 -1.8149
 9540TIP3   OH252814   4.606   0.333  11.896 -0.0784  0.1420 -0.0785
 9540TIP3    H152815   4.523   0.293  11.924 -1.0331  0.9852 -1.5772
 9540TIP3    H252816   4.590   0.427  11.901  1.1713  0.3464  0.6060
 9541TIP3   OH252817   7.881   6.894  12.628 -0.3676 -0.3628  0.6071
 9541TIP3    H152818   7.961   6.897  12.681  0.7932  0.6647 -1.1068
 9541TIP3    H252819   7.867   6.985  12.602 -2.0469 -0.5538  0.7775
 9542TIP3   OH252820   5.926   4.757  13.357 -0.2212 -0.7958  0.2553
 9542TIP3    H152821   5.877   4.683  13.393 -0.9918 -1.0137 -1.1729
 9542TIP3    H252822   5.964   4.724  13.276 -2.2002  0.8339 -1.4774
 9543TIP3   OH252823   1.740   6.441  12.068 -0.2712  0.4137 -0.7387
 9543TIP3    H152824   1.804   6.461  12.136  1.3874 -1.1310 -1.7696
 9543TIP3    H252825   1.712   6.526  12.036  1.6192  1.1413 -0.5663
 9544TIP3   OH252826   5.879   2.904  11.806 -0.4094 -0.1879 -0.6366
 9544TIP3    H152827   5.815   2.962  11.847 -0.2245  0.2238 -0.9236
 9544TIP3    H252828   5.846   2.816  11.823  0.5902 -0.1291  1.9747
 9545TIP3   OH252829   4.712   4.299  11.815 -0.6860  0.2394 -0.2812
 9545TIP3    H152830   4.717   4.219  11.762  1.9203  0.3143 -0.2788
 9545TIP3    H252831   4.656   4.276  11.889 -1.1726 -1.1060 -1.0427
 9546TIP3   OH252832   4.584   8.855  13.237  0.6058  0.2324  0.0061
 9546TIP3    H152833   4.680   8.847  13.238  0.5342 -1.3625  1.9905
 9546TIP3    H252834   4.553   8.766  13.218 -0.4316  0.0604  2.1913
 9547TIP3   OH252835   4.109   3.119  12.709  0.3850 -0.2399 -0.1416
 9547TIP3    H152836   4.163   3.164  12.774  1.1583  0.4556 -1.2167
 9547TIP3    H252837   4.108   3.028  12.737  1.3372 -0.0907  0.4255
 9548TIP3   OH252838   8.087   5.376  12.016  0.6759 -0.0975 -0.0837
 9548TIP3    H152839   8.091   5.300  12.074 -0.9202  1.1241  1.7625
 9548TIP3    H252840   8.036   5.441  12.065  2.0657  2.2292 -1.5123
 9549TIP3   OH252841   2.768   8.349  13.490  0.1830  0.0917  0.4645
 9549TIP3    H152842   2.705   8.367  13.559  0.6748  3.3662  0.2364
 9549TIP3    H252843   2.853   8.363  13.531  0.4682  2.7458 -0.8157
 9550TIP3   OH252844   6.997   0.814  12.468 -0.3805 -0.3176 -0.0541
 9550TIP3    H152845   7.082   0.772  12.452 -0.8414 -0.6172 -1.8291
 9550TIP3    H252846   6.971   0.849  12.383 -2.4552 -1.0044  0.2413
 9551TIP3   OH252847   2.697   6.943  12.181 -0.0904 -0.0262  0.3446
 9551TIP3    H152848   2.602   6.931  12.178  0.0803 -1.4719  0.0060
 9551TIP3    H252849   2.720   6.931  12.273 -0.2274  0.3585  0.4327
 9552TIP3   OH252850   6.224   4.075  12.100 -0.2004  0.0893  0.1879
 9552TIP3    H152851   6.284   4.144  12.129 -0.2275  0.2765 -0.1992
 9552TIP3    H252852   6.137   4.114  12.111 -0.4427 -1.0007  3.0270
 9553TIP3   OH252853   1.742   8.798  13.411  0.0345 -0.4172  0.2283
 9553TIP3    H152854   1.695   8.810  13.328 -0.8961  0.0525  0.8143
 9553TIP3    H252855   1.829   8.835  13.394 -0.2346 -0.0742 -0.4556
 9554TIP3   OH252856   8.681   9.040  13.084  0.0889  0.3662  0.1579
 9554TIP3    H152857   8.754   9.078  13.132 -0.5840  0.5233  1.0727
 9554TIP3    H252858   8.682   9.085  12.999  1.2581  0.1100  0.0151
 9555TIP3   OH252859   2.544   5.989  12.174 -0.2425 -0.0840  0.3548
 9555TIP3    H152860   2.549   6.026  12.087  0.8507 -0.6454  0.1642
 9555TIP3    H252861   2.500   6.056  12.227  0.4348  0.8803 -0.2840
 9556TIP3   OH252862   0.480   5.044  13.193  0.2184  0.0440  0.0082
 9556TIP3    H152863   0.474   4.989  13.271 -1.4205  0.4188  0.1742
 9556TIP3    H252864   0.519   5.125  13.224 -2.4932  1.0787  1.0015
 9557TIP3   OH252865   1.273   8.536  12.467  0.0864  0.2511  0.0745
 9557TIP3    H152866   1.208   8.503  12.404 -0.1533 -1.7017  1.2575
 9557TIP3    H252867   1.357   8.526  12.422 -0.1886  0.1192 -0.4218
 9558TIP3   OH252868   8.812   6.367  11.987  0.2884  0.2820 -0.5625
 9558TIP3    H152869   8.848   6.446  11.948  0.2251 -0.0530 -1.3310
 9558TIP3    H252870   8.828   6.299  11.921 -1.1048 -0.0142 -0.6343
 9559TIP3   OH252871   4.420   8.813  12.881 -0.1671 -0.0393 -0.5315
 9559TIP3    H152872   4.351   8.853  12.828  0.3344 -0.9299 -1.9168
 9559TIP3    H252873   4.495   8.872  12.871  1.0134 -1.8166 -3.6933
 9560TIP3   OH252874   3.028   4.200  12.031  0.2959 -0.0811 -0.5283
 9560TIP3    H152875   3.004   4.216  12.122 -0.8815 -0.9460 -0.6595
 9560TIP3    H252876   3.001   4.279  11.985 -2.1365 -0.8580 -0.6063
 9561TIP3   OH252877   6.510   7.392  12.288 -0.7762 -0.0843  0.0385
 9561TIP3    H152878   6.545   7.424  12.371 -2.4682  2.0140  0.0324
 9561TIP3    H252879   6.437   7.335  12.314  1.1762 -2.7996 -0.0011
 9562TIP3   OH252880   1.789   5.029  12.517 -0.0242 -0.4522  0.0577
 9562TIP3    H152881   1.864   5.013  12.460  0.7508 -0.1117  0.9631
 9562TIP3    H252882   1.747   5.107  12.480 -0.1956 -0.8875 -0.6988
 9563TIP3   OH252883   1.733   0.957  12.381 -0.3175  0.0753  0.2916
 9563TIP3    H152884   1.784   1.009  12.319  0.6818  1.5645  2.2670
 9563TIP3    H252885   1.667   1.017  12.414 -0.2352 -0.3990  1.3441
 9564TIP3   OH252886   3.868   3.700  12.055  0.0307 -0.1057 -0.5826
 9564TIP3    H152887   3.953   3.695  12.098 -0.3492  1.4483  0.4008
 9564TIP3    H252888   3.830   3.613  12.068  0.4550 -0.0711  1.1624
 9565TIP3   OH252889   2.280   6.809  12.320 -0.2694 -0.1753  0.2155
 9565TIP3    H152890   2.243   6.727  12.288 -0.3859 -0.1518  0.2883
 9565TIP3    H252891   2.340   6.782  12.390 -1.1679 -0.1279  1.0269
 9566TIP3   OH252892   8.334   5.749  13.315 -0.2408  0.2346 -0.5419
 9566TIP3    H152893   8.281   5.670  13.327  0.4035  0.0453  1.3505
 9566TIP3    H252894   8.318   5.774  13.224 -3.5095  0.1464 -0.1382
 9567TIP3   OH252895   6.005   4.296  12.122  0.6194 -0.6150  0.0002
 9567TIP3    H152896   5.937   4.266  12.062  0.3974 -0.0448 -0.0420
 9567TIP3    H252897   6.011   4.391  12.106 -0.4281 -0.1942  1.8544
 9568TIP3   OH252898   5.945   0.248  13.222  0.2783 -0.5569 -0.3967
 9568TIP3    H152899   5.857   0.210  13.215 -0.3843  1.1231 -1.8931
 9568TIP3    H252900   5.934   0.340  13.197  1.6811  0.9119  3.6299
 9569TIP3   OH252901   7.348   4.896  12.976 -0.2658  0.6122 -0.4596
 9569TIP3    H152902   7.306   4.981  12.994 -1.1476 -0.1411  1.2765
 9569TIP3    H252903   7.280   4.832  12.997  0.7274 -0.5686 -0.7798
 9570TIP3   OH252904   8.061   0.705  13.514  0.1872  0.4304 -1.0133
 9570TIP3    H152905   8.085   0.797  13.522 -1.0138  0.7124 -0.5058
 9570TIP3    H252906   8.126   0.669  13.453  1.9600  1.1138  0.3566
 9571TIP3   OH252907   5.660   5.371  12.350 -0.2954  0.2090  0.3287
 9571TIP3    H152908   5.615   5.293  12.383 -1.1206  0.5553  0.0409
 9571TIP3    H252909   5.592   5.438  12.344  0.8773  1.8061  3.1630
 9572TIP3   OH252910   7.379   6.862  11.458 -0.0591 -0.5947 -0.7659
 9572TIP3    H152911   7.418   6.796  11.401  1.4854 -0.7676  0.4414
 9572TIP3    H252912   7.447   6.928  11.468 -0.1353 -0.7515  1.1568
 9573TIP3   OH252913   4.035   5.214  12.156  0.4528  0.1507  0.2186
 9573TIP3    H152914   4.004   5.239  12.243  2.3829  0.6755  0.8082
 9573TIP3    H252915   3.977   5.259  12.095 -0.7438  0.0150  1.2269
 9574TIP3   OH252916   7.009   7.575  12.456  0.5308  0.1045  0.2738
 9574TIP3    H152917   7.044   7.664  12.453  1.0203 -0.1065 -2.0532
 9574TIP3    H252918   6.915   7.587  12.469  0.6308  0.9620  0.2656
 9575TIP3   OH252919   5.252   8.326  11.936  0.1187  0.9506 -0.3931
 9575TIP3    H152920   5.340   8.355  11.913  0.8926  0.2970  1.5141
 9575TIP3    H252921   5.208   8.406  11.965  0.5884  1.0438  0.0764
 9576TIP3   OH252922   3.350   6.125  13.089 -0.4329 -0.6181  0.1497
 9576TIP3    H152923   3.444   6.121  13.109 -0.7021 -0.1323  1.6072
 9576TIP3    H252924   3.346   6.158  12.999  0.7610  0.5601  0.4967
 9577TIP3   OH252925   0.056   2.949  12.863 -0.2303  0.0231  0.3270
 9577TIP3    H152926  -0.003   2.941  12.938 -0.5247  2.0868  0.3841
 9577TIP3    H252927  -0.001   2.969  12.789  0.1673 -0.7534 -0.1948
 9578TIP3   OH252928   6.508   6.561  12.041 -0.1749  0.2306  0.7007
 9578TIP3    H152929   6.422   6.545  12.003 -0.0023 -1.3498  0.8967
 9578TIP3    H252930   6.562   6.593  11.969 -0.3106 -1.0651  0.0087
 9579TIP3   OH252931   5.057   7.756  12.128 -0.2162 -0.1591  0.1020
 9579TIP3    H152932   5.014   7.762  12.213  0.9466 -0.2662  0.7316
 9579TIP3    H252933   5.044   7.843  12.089  0.2219  0.2885  0.9032
 9580TIP3   OH252934   0.748   7.584  12.171  0.4415  0.0262 -0.5075
 9580TIP3    H152935   0.718   7.604  12.082 -1.7755 -1.7617 -0.2538
 9580TIP3    H252936   0.796   7.662  12.198 -0.1662  1.2510 -2.7003
 9581TIP3   OH252937   4.050   1.880  12.147  1.0522  0.2347  0.0065
 9581TIP3    H152938   4.070   1.835  12.064 -1.3785  0.8840 -1.0297
 9581TIP3    H252939   3.955   1.888  12.147  0.8788 -0.4218  3.2775
 9582TIP3   OH252940   4.875   3.599  12.491  0.3095 -0.1056  0.0660
 9582TIP3    H152941   4.782   3.619  12.499 -0.6842 -3.8499 -0.0924
 9582TIP3    H252942   4.901   3.637  12.407 -1.1715  0.6967 -0.0658
 9583TIP3   OH252943   8.182   1.493  12.575 -0.0955  0.0900 -0.1993
 9583TIP3    H152944   8.147   1.455  12.495  0.2766 -0.2598 -0.1987
 9583TIP3    H252945   8.134   1.575  12.585 -1.4958 -0.7563  0.2482
 9584TIP3   OH252946   4.363   4.803  12.667  0.5593 -0.2825 -0.1611
 9584TIP3    H152947   4.457   4.807  12.681  0.5143 -1.1713  0.4652
 9584TIP3    H252948   4.348   4.854  12.587  1.4929  0.3176  0.0342
 9585TIP3   OH252949   4.223   0.583  12.737 -0.0234  0.0232  0.0756
 9585TIP3    H152950   4.253   0.493  12.745 -1.3129 -0.4266  0.0856
 9585TIP3    H252951   4.211   0.596  12.642  0.5182  0.3211  0.0410
 9586TIP3   OH252952   8.299   8.735  12.236  0.4619  0.0911  0.2698
 9586TIP3    H152953   8.255   8.761  12.317 -2.7999 -3.3814 -0.1028
 9586TIP3    H252954   8.375   8.686  12.265  0.1667  0.1589  1.1915
 9587TIP3   OH252955   0.419   0.155  11.588 -0.2139 -0.1167  0.3762
 9587TIP3    H152956   0.410   0.110  11.673  1.5539  0.4177  0.8886
 9587TIP3    H252957   0.448   0.086  11.528 -0.4839 -0.2853  0.4363
 9588TIP3   OH252958   7.229   2.912  11.570  0.4229 -0.1109  0.4502
 9588TIP3    H152959   7.183   2.857  11.507  1.7461 -3.0858  1.8712
 9588TIP3    H252960   7.320   2.911  11.540  0.5211  1.1558  0.6603
 9589TIP3   OH252961   0.762   7.808  11.776  1.1805  0.0007  0.3056
 9589TIP3    H152962   0.853   7.778  11.780  1.4803  0.9908  1.2599
 9589TIP3    H252963   0.761   7.889  11.826 -0.0388  0.5146 -0.5077
 9590TIP3   OH252964   1.945   5.632  11.863  0.1530 -0.1165  0.0544
 9590TIP3    H152965   1.949   5.727  11.852 -0.4266 -0.0980 -0.0226
 9590TIP3    H252966   1.852   5.611  11.857  0.2831 -0.6990  0.0078
 9591TIP3   OH252967   8.837   7.555  12.649 -0.1645 -0.2113 -0.8910
 9591TIP3    H152968   8.889   7.475  12.661  0.7751  0.6794  1.6957
 9591TIP3    H252969   8.891   7.625  12.685 -2.2864  1.0905 -0.0152
 9592TIP3   OH252970   3.279   5.271  11.825  0.5182  0.7050 -0.3493
 9592TIP3    H152971   3.260   5.364  11.812 -0.5477  0.8341  1.6534
 9592TIP3    H252972   3.211   5.241  11.885  0.4910 -1.5371 -1.4016
 9593TIP3   OH252973   6.067   3.255  12.418  0.1179  0.4835  0.3659
 9593TIP3    H152974   6.154   3.294  12.425  0.7626 -1.1189  1.7545
 9593TIP3    H252975   6.036   3.284  12.332  1.5619  1.9473  0.2749
 9594TIP3   OH252976   7.494   6.950  12.166  0.1101 -0.4738  0.5522
 9594TIP3    H152977   7.576   6.938  12.118  0.0815  1.4259 -0.0299
 9594TIP3    H252978   7.426   6.926  12.104  0.0470  2.4543 -0.6588
 9595TIP3   OH252979   5.962   6.713  12.582  0.2346  0.4512 -0.0517
 9595TIP3    H152980   5.903   6.730  12.656  0.8334  2.5369 -0.0033
 9595TIP3    H252981   6.036   6.667  12.620  0.1841  0.8328  0.5207
 9596TIP3   OH252982   8.094   7.479  12.841 -0.2497 -0.3856 -0.1997
 9596TIP3    H152983   8.041   7.558  12.851  1.8240  1.0994 -0.2792
 9596TIP3    H252984   8.172   7.496  12.894 -0.3931 -3.0513  1.0079
 9597TIP3   OH252985   1.853   5.911  12.016  0.5313 -0.2714  0.7334
 9597TIP3    H152986   1.805   5.984  12.053 -2.2665 -1.4500 -0.2864
 9597TIP3    H252987   1.854   5.927  11.922  0.8285 -1.0290  0.5934
 9598TIP3   OH252988   8.933   8.518  12.579  0.4478 -0.3064  1.0598
 9598TIP3    H152989   8.936   8.433  12.622 -3.5317 -0.0734  2.2200
 9598TIP3    H252990   8.955   8.581  12.648  0.8127 -0.2545  0.8986
 9599TIP3   OH252991   0.698   9.155  12.146 -0.1700 -0.0611 -0.1056
 9599TIP3    H152992   0.713   9.067  12.111  1.6920  0.1278  0.0735
 9599TIP3    H252993   0.633   9.194  12.088 -0.8933 -1.4752 -0.2953
 9600TIP3   OH252994   4.446   0.058  11.964  0.2838  0.3608 -0.3129
 9600TIP3    H152995   4.369   0.089  12.012 -0.1649 -0.2725 -0.6111
 9600TIP3    H252996   4.414   0.043  11.875  0.1882 -2.0019  0.0643
 9601TIP3   OH252997   0.375   6.985  13.442 -0.3966  0.2722  0.3637
 9601TIP3    H152998   0.446   6.980  13.505  0.1495 -0.4844 -0.2987
 9601TIP3    H252999   0.410   7.036  13.369  1.3715 -4.2156 -2.2973
 9602TIP3   OH253000   9.000   7.979  12.341 -0.3631  0.0349 -0.7603
 9602TIP3    H153001   9.094   7.989  12.354 -0.5382  3.6586 -1.0270
 9602TIP3    H253002   8.991   7.957  12.248  0.2380  1.8707 -1.2975
 9603TIP3   OH253003   4.222   1.447  13.662  0.3107 -0.3372  0.8892
 9603TIP3    H153004   4.147   1.390  13.646  0.3581 -0.5009  1.2408
 9603TIP3    H253005   4.277   1.438  13.584 -1.0596  1.4437 -0.3712
 9604TIP3   OH253006   5.973   5.902  12.115  0.0807 -0.0683  0.2895
 9604TIP3    H153007   5.900   5.845  12.092 -1.7575  1.4407  1.9853
 9604TIP3    H253008   6.046   5.843  12.134 -0.9374 -1.6686 -0.6096
 9605TIP3   OH253009   7.359   5.855  13.439  0.4085  0.1370  0.4581
 9605TIP3    H153010   7.279   5.830  13.393  0.8603 -0.5604  0.0296
 9605TIP3    H253011   7.390   5.774  13.480  1.6983  0.0260 -0.6472
 9606TIP3   OH253012   0.546   3.257  12.313  0.1273  0.0970  0.3612
 9606TIP3    H153013   0.508   3.174  12.341 -0.0962 -0.3484 -1.1461
 9606TIP3    H253014   0.527   3.318  12.384 -0.7694 -0.8513  0.9583
 9607TIP3   OH253015   8.044   9.169  12.126  0.2184 -0.0711 -0.1289
 9607TIP3    H153016   7.957   9.129  12.137  0.4511 -0.5720 -0.0972
 9607TIP3    H253017   8.088   9.155  12.210  0.8407 -1.0725 -0.6076
 9608TIP3   OH253018   2.041   6.936  12.918 -0.2281 -0.6019 -0.5194
 9608TIP3    H153019   2.121   6.887  12.940 -1.7117 -3.0139 -0.0729
 9608TIP3    H253020   2.051   6.955  12.825  0.7195 -1.1873 -0.5620
 9609TIP3   OH253021   0.133   6.119  13.382 -0.2245  0.4250 -0.1355
 9609TIP3    H153022   0.104   6.191  13.438  0.9600  0.5810  0.3061
 9609TIP3    H253023   0.056   6.065  13.371 -0.5707  0.5565  1.4158
 9610TIP3   OH253024   8.421   5.041  12.811  1.1536 -0.7608  0.0908
 9610TIP3    H153025   8.361   4.971  12.838 -0.5484  0.3865 -0.5599
 9610TIP3    H253026   8.498   5.029  12.868 -0.7902 -0.6282  2.9771
 9611TIP3   OH253027   4.098   2.577  11.833  0.1618  0.6375  0.7484
 9611TIP3    H153028   4.034   2.522  11.787  0.5578 -0.8346  1.9023
 9611TIP3    H253029   4.165   2.517  11.863  0.5140  1.7102  2.2513
 9612TIP3   OH253030   8.618   4.577  12.154  0.4148 -0.4312  0.5425
 9612TIP3    H153031   8.527   4.597  12.178 -0.5504 -1.4613 -1.8669
 9612TIP3    H253032   8.671   4.630  12.214 -1.8032  1.9795  0.5780
 9613TIP3   OH253033   1.950   3.903  12.224  0.3340 -0.1237 -0.8548
 9613TIP3    H153034   1.887   3.923  12.294  2.2786  0.3532  0.8349
 9613TIP3    H253035   2.002   3.831  12.259  2.1198  0.9159 -1.2784
 9614TIP3   OH253036   3.644   0.985  12.481  0.5227 -0.4514  0.3072
 9614TIP3    H153037   3.617   1.072  12.510  2.6439  1.6530 -3.3238
 9614TIP3    H253038   3.571   0.955  12.427  0.1168 -0.6505  0.9444
 9615TIP3   OH253039   6.702   1.434  11.744  0.3570  0.7375  0.2210
 9615TIP3    H153040   6.658   1.518  11.732 -0.8778  0.2888  1.4074
 9615TIP3    H253041   6.631   1.370  11.752  1.2477 -0.2154  0.7600
 9616TIP3   OH253042   7.425   1.311  13.152 -0.7597 -0.1626 -0.1344
 9616TIP3    H153043   7.381   1.378  13.205 -0.7749  0.4480 -0.8853
 9616TIP3    H253044   7.506   1.292  13.199 -1.3572 -0.5758  0.7550
 9617TIP3   OH253045   3.149   3.851  12.528  0.4168  0.0153  0.4971
 9617TIP3    H153046   3.199   3.902  12.464 -0.8961  0.6933 -0.0267
 9617TIP3    H253047   3.180   3.761  12.516  0.0908  0.1048 -1.2181
 9618TIP3   OH253048   5.328   7.980  13.339  0.5016 -0.2875  0.2418
 9618TIP3    H153049   5.415   7.993  13.376  0.0065  0.8257  1.0730
 9618TIP3    H253050   5.278   8.056  13.367 -1.3019 -1.8167  1.4869
 9619TIP3   OH253051   0.063   6.685  13.248 -0.1134  0.2906 -0.3349
 9619TIP3    H153052  -0.024   6.689  13.209 -0.4999 -0.3037  0.4548
 9619TIP3    H253053   0.050   6.649  13.335  1.0432 -0.7834 -0.5670
 9620TIP3   OH253054   8.664   4.313  12.074 -0.2729  0.6862 -0.5193
 9620TIP3    H153055   8.753   4.335  12.046 -0.5617  1.9042 -0.5212
 9620TIP3    H253056   8.633   4.391  12.121 -1.1519  0.0776 -0.0598
 9621TIP3   OH253057   8.681   6.815  12.612  0.6714  0.5933 -0.2906
 9621TIP3    H153058   8.626   6.890  12.634  0.7677  0.9015 -1.0873
 9621TIP3    H253059   8.694   6.770  12.696 -0.9838  0.3706 -0.1134
 9622TIP3   OH253060   7.228   5.064  13.375 -0.0500 -0.5892  0.0355
 9622TIP3    H153061   7.282   4.993  13.341  0.2846 -0.9045  1.1621
 9622TIP3    H253062   7.141   5.024  13.387 -0.4647 -0.1809 -1.4297
 9623TIP3   OH253063   1.548   9.120  13.055  0.3363 -0.3712 -0.3699
 9623TIP3    H153064   1.470   9.089  13.008  0.0667  0.8379 -0.7324
 9623TIP3    H253065   1.513   9.163  13.133  0.6779 -0.3973 -0.2006
 9624TIP3   OH253066   6.656   6.641  11.831  0.2102 -0.5333  0.0034
 9624TIP3    H153067   6.647   6.595  11.748  1.1268 -0.7589  0.0186
 9624TIP3    H253068   6.713   6.715  11.812 -0.9787  0.4389  0.0564
 9625TIP3   OH253069   2.286   2.927  13.431 -0.4236 -0.0664  0.2798
 9625TIP3    H153070   2.320   3.017  13.436  0.2321 -0.3301  0.6095
 9625TIP3    H253071   2.217   2.925  13.497 -0.5810  0.2553  0.1299
 9626TIP3   OH253072   8.632   7.197  12.692 -0.2350  0.3348 -0.1940
 9626TIP3    H153073   8.656   7.226  12.604 -0.3108  1.2829  0.0839
 9626TIP3    H253074   8.644   7.275  12.747  0.7529 -0.4980  0.8205
 9627TIP3   OH253075   1.704   7.686  12.461 -0.0613  0.6331 -0.6407
 9627TIP3    H153076   1.692   7.771  12.420  1.1116  1.0936 -0.0910
 9627TIP3    H253077   1.704   7.624  12.388 -1.0535  1.0733 -1.0327
 9628TIP3   OH253078   7.303   2.075  11.472  0.0180 -0.1200 -0.3006
 9628TIP3    H153079   7.397   2.060  11.482  0.2791  0.5005 -1.5255
 9628TIP3    H253080   7.288   2.161  11.511 -0.0567 -0.2648 -0.0123
 9629TIP3   OH253081   0.337   8.054  13.549 -0.3140  0.1569 -0.0408
 9629TIP3    H153082   0.331   7.970  13.594  2.2079 -0.5652 -0.8970
 9629TIP3    H253083   0.322   8.033  13.456 -3.4887  1.3188  0.0871
 9630TIP3   OH253084   8.651   2.807  12.370 -0.0791  0.1348  0.1717
 9630TIP3    H153085   8.593   2.731  12.360  0.9817 -0.4432 -2.2367
 9630TIP3    H253086   8.614   2.855  12.445 -0.9155 -2.5805  1.6341
 9631TIP3   OH253087   2.774   3.704  11.730 -0.3818  0.1338 -0.1874
 9631TIP3    H153088   2.720   3.625  11.720 -0.6111  0.4353 -1.4349
 9631TIP3    H253089   2.733   3.751  11.803  0.0449 -1.1134  0.8959
 9632TIP3   OH253090   3.473   7.053  11.744 -0.2514 -0.3422 -0.0178
 9632TIP3    H153091   3.399   7.092  11.791  0.4346  0.2371  0.6167
 9632TIP3    H253092   3.470   7.094  11.657 -0.7623 -0.4527 -0.0596
 9633TIP3   OH253093   6.645   8.514  12.537  0.1840 -0.0100 -0.2707
 9633TIP3    H153094   6.677   8.522  12.447 -1.0894 -0.9852 -0.8470
 9633TIP3    H253095   6.576   8.447  12.532 -0.9799  1.0132  1.1452
 9634TIP3   OH253096   6.055   1.634  11.425 -0.3877  0.1099 -0.0406
 9634TIP3    H153097   6.130   1.685  11.456 -0.7507  0.3599  0.4410
 9634TIP3    H253098   6.060   1.641  11.330  0.2861 -0.0025 -0.0206
 9635TIP3   OH253099   3.562   1.903  13.441  0.0637  0.5249 -0.1462
 9635TIP3    H153100   3.624   1.833  13.417  0.3928  0.8658 -0.3001
 9635TIP3    H253101   3.616   1.982  13.443 -0.1047  0.6243  0.9724
 9636TIP3   OH253102   5.329   7.999  12.117  0.0296 -0.3731  0.1731
 9636TIP3    H153103   5.362   8.078  12.160 -0.2030 -0.1165 -0.1092
 9636TIP3    H253104   5.328   8.022  12.024 -0.1154 -0.6807  0.0981
 9637TIP3   OH253105   8.637   4.662  12.667 -0.1697 -0.1795  0.2478
 9637TIP3    H153106   8.706   4.661  12.733 -1.7367 -0.4842  1.9532
 9637TIP3    H253107   8.647   4.746  12.622  1.7442 -0.5381 -0.0754
 9638TIP3   OH253108   9.163   3.592  13.557  0.9442  0.8232 -0.6055
 9638TIP3    H153109   9.083   3.636  13.587  1.1716  0.6330  0.2989
 9638TIP3    H253110   9.214   3.576  13.637  0.5459 -1.7594 -0.7695
 9639TIP3   OH253111   6.182   8.375  12.273  0.6050  0.4439 -0.0083
 9639TIP3    H153112   6.187   8.426  12.354  0.3026 -0.6960  0.7495
 9639TIP3    H253113   6.272   8.376  12.239  0.8112  0.6525  0.5278
 9640TIP3   OH253114   2.638   3.419  12.635 -0.1634 -0.4681 -0.8116
 9640TIP3    H153115   2.579   3.417  12.559  1.3514  4.1092 -2.4686
 9640TIP3    H253116   2.724   3.396  12.600  0.8207  2.9823 -1.0802
 9641TIP3   OH253117   5.881   2.895  12.746  0.1961 -0.7978  0.2568
 9641TIP3    H153118   5.900   2.821  12.689  0.6739 -0.9401  0.6000
 9641TIP3    H253119   5.926   2.969  12.705 -1.7763 -0.2730 -1.1085
 9642TIP3   OH253120   1.371   1.519  11.786  0.4978 -0.5690 -0.2932
 9642TIP3    H153121   1.357   1.511  11.692  1.6884 -1.9160 -0.3907
 9642TIP3    H253122   1.385   1.612  11.801 -0.4409 -0.2415 -1.3276
 9643TIP3   OH253123   5.563   8.810  13.117  0.1251  0.1092 -0.3094
 9643TIP3    H153124   5.504   8.735  13.125 -0.2942  0.5182  0.6038
 9643TIP3    H253125   5.504   8.885  13.111  0.5281  0.6237  1.6869
 9644TIP3   OH253126   4.368   3.991  12.918  0.3990  0.1171 -0.4632
 9644TIP3    H153127   4.355   4.085  12.927  0.0422  0.0197  0.0485
 9644TIP3    H253128   4.279   3.954  12.916  0.4962 -0.1145 -1.7713
 9645TIP3   OH253129   7.377   0.753  12.083  0.0011  0.0358  0.3947
 9645TIP3    H153130   7.393   0.661  12.061 -0.4207  0.1500 -0.4110
 9645TIP3    H253131   7.367   0.753  12.178 -1.2536 -0.9558  0.2953
 9646TIP3   OH253132   6.564   8.695  12.018  0.3022 -0.9937  0.2633
 9646TIP3    H153133   6.541   8.616  12.067  0.9923  0.2085  2.7096
 9646TIP3    H253134   6.511   8.764  12.057  1.0884  0.0864 -0.5064
 9647TIP3   OH253135   5.567   7.922  11.817 -0.3424  0.3589 -0.2066
 9647TIP3    H153136   5.484   7.970  11.821 -1.2136 -1.1859  1.7219
 9647TIP3    H253137   5.544   7.838  11.777  0.6512  0.5248 -1.1752
 9648TIP3   OH253138   7.172   0.652  12.343 -0.3778 -0.8714 -0.3045
 9648TIP3    H153139   7.165   0.579  12.282  1.4395  0.5414 -2.3238
 9648TIP3    H253140   7.255   0.637  12.389 -0.0068 -0.1172 -0.7147
 9649TIP3   OH253141   3.216   6.045  12.364  0.5047 -0.4983  0.0697
 9649TIP3    H153142   3.122   6.056  12.356  0.4830  0.6791  1.4637
 9649TIP3    H253143   3.252   6.131  12.339  1.1249 -0.5924  0.6188
 9650TIP3   OH253144   5.675   3.670  12.519 -0.0651  0.2745 -0.2471
 9650TIP3    H153145   5.611   3.740  12.511 -0.1844  0.2444  0.3965
 9650TIP3    H253146   5.757   3.708  12.488 -0.1398  0.6887  0.0606
 9651TIP3   OH253147   2.036   3.873  11.941 -0.0863  0.0218 -0.1125
 9651TIP3    H153148   2.016   3.806  12.007  0.9305  0.4513  0.6508
 9651TIP3    H253149   1.950   3.898  11.907 -0.6150 -0.4569  0.8132
 9652TIP3   OH253150   2.424   8.885  12.814  0.2489  0.3743 -0.4564
 9652TIP3    H153151   2.479   8.828  12.868 -0.4885  0.1216  0.0532
 9652TIP3    H253152   2.380   8.942  12.876 -0.6927  0.0125 -0.7626
 9653TIP3   OH253153   5.679   1.828  12.335  0.3414 -0.5726 -0.2649
 9653TIP3    H153154   5.676   1.798  12.244 -0.6842 -0.2587 -0.3519
 9653TIP3    H253155   5.604   1.887  12.343 -0.1834 -1.3746  1.0511
 9654TIP3   OH253156   5.655   8.845  12.631  0.1669  0.1961 -0.4176
 9654TIP3    H153157   5.603   8.778  12.675  0.4037  0.2970  0.0257
 9654TIP3    H253158   5.740   8.843  12.676  0.4296  0.2745 -0.8989
 9655TIP3   OH253159   4.198   1.330  12.181 -0.1424  0.2225 -0.6742
 9655TIP3    H153160   4.244   1.247  12.196 -0.7959 -0.5721 -2.7849
 9655TIP3    H253161   4.138   1.337  12.255  2.8441  1.0386  1.8976
 9656TIP3   OH253162   4.008   5.001  12.596 -0.1744 -0.0393 -0.4175
 9656TIP3    H153163   4.089   5.025  12.552 -0.3100  0.0636 -0.6114
 9656TIP3    H253164   3.964   5.084  12.613 -1.0074 -0.1683 -1.7737
 9657TIP3   OH253165   3.023   1.403  13.176 -0.1919 -0.1193 -0.3209
 9657TIP3    H153166   2.973   1.414  13.096 -1.4482  1.9975  0.6702
 9657TIP3    H253167   2.964   1.357  13.236 -1.1075  2.3522  0.8389
 9658TIP3   OH253168   0.158   0.749  12.079  0.1361 -0.3901  0.2644
 9658TIP3    H153169   0.141   0.695  12.002 -0.4508  1.5737 -1.0681
 9658TIP3    H253170   0.134   0.694  12.153 -0.2852 -1.9811 -0.9941
 9659TIP3   OH253171   1.689   6.603  13.507  0.4327 -0.5876  0.1346
 9659TIP3    H153172   1.638   6.537  13.460 -0.8110  0.7371 -0.4699
 9659TIP3    H253173   1.624   6.669  13.533  1.4321 -0.1932  1.8020
 9660TIP3   OH253174   7.629   5.213  12.307 -0.4841 -0.2172 -0.2885
 9660TIP3    H153175   7.709   5.254  12.274 -1.0132 -0.2616 -1.7160
 9660TIP3    H253176   7.560   5.277  12.290 -0.7903 -0.2298  0.8158
 9661TIP3   OH253177   0.608   4.309  12.153  0.7182  0.1216 -0.0386
 9661TIP3    H153178   0.688   4.275  12.194 -0.2854 -0.8247  1.2075
 9661TIP3    H253179   0.638   4.385  12.104  2.3249  0.0528  0.7409
 9662TIP3   OH253180   3.961   7.790  13.417  0.4119 -0.1351  0.0407
 9662TIP3    H153181   3.874   7.799  13.456  0.8378  2.2053  0.6261
 9662TIP3    H253182   3.978   7.875  13.376  1.5250 -1.3017 -2.0398
 9663TIP3   OH253183   8.033   0.178  12.575 -0.1526 -0.0390 -0.0472
 9663TIP3    H153184   8.124   0.148  12.568  0.2276  0.3440  2.3255
 9663TIP3    H253185   8.031   0.230  12.656 -2.4799  0.0297 -0.0769
 9664TIP3   OH253186   8.676   5.028  12.005  0.1414  0.2745 -0.1653
 9664TIP3    H153187   8.751   5.011  11.949  0.1672  2.5804 -0.9415
 9664TIP3    H253188   8.655   5.121  11.990 -1.8399  0.1282  1.2527
 9665TIP3   OH253189   7.218   0.314  12.549 -0.0372 -0.2137 -0.1939
 9665TIP3    H153190   7.214   0.296  12.643 -0.3402 -0.9791 -0.3466
 9665TIP3    H253191   7.277   0.389  12.541  1.6556 -1.3885  0.4520
 9666TIP3   OH253192   6.485   0.824  12.966 -0.1077 -0.1936  0.0607
 9666TIP3    H153193   6.455   0.838  13.056 -2.7829  0.4176 -0.8414
 9666TIP3    H253194   6.464   0.733  12.948  0.9340 -0.4712  0.2075
 9667TIP3   OH253195   5.780   2.390  11.604 -0.1620 -0.1422 -0.0322
 9667TIP3    H153196   5.770   2.355  11.693 -0.4344 -1.6188 -0.6174
 9667TIP3    H253197   5.751   2.319  11.547 -1.1603  1.2148 -1.2848
 9668TIP3   OH253198   2.251   6.086  12.267 -0.1952 -0.2230  0.1500
 9668TIP3    H153199   2.308   6.157  12.296 -0.1711 -0.4975  0.7859
 9668TIP3    H253200   2.275   6.011  12.322  0.7901 -1.1636 -1.4619
 9669TIP3   OH253201   4.898   1.608  12.456 -1.2193 -0.1723 -0.0173
 9669TIP3    H153202   4.947   1.587  12.536 -1.4266 -1.3540 -0.1767
 9669TIP3    H253203   4.926   1.696  12.433  2.6379 -1.5447 -1.3706
 9670TIP3   OH253204   7.217   2.048  12.894  0.8950  0.1572  0.5737
 9670TIP3    H153205   7.132   2.017  12.927  1.4004 -0.9752  0.8700
 9670TIP3    H253206   7.250   2.106  12.963  0.1526  1.0042  0.2364
 9671TIP3   OH253207   3.121   8.029  13.421  0.0604  0.3027 -0.1184
 9671TIP3    H153208   3.057   7.976  13.469  0.0465  0.6817  0.2845
 9671TIP3    H253209   3.069   8.101  13.385 -0.0330 -0.2743 -1.1759
 9672TIP3   OH253210   4.880   5.381  12.416 -0.3802 -0.1458  0.1349
 9672TIP3    H153211   4.859   5.448  12.480 -0.9075  0.9987 -1.1880
 9672TIP3    H253212   4.975   5.383  12.408 -0.3260 -0.1894  0.7459
 9673TIP3   OH253213   3.812   3.617  13.196  0.2660 -0.3077  0.0878
 9673TIP3    H153214   3.728   3.573  13.209  0.5648 -0.7719  0.4913
 9673TIP3    H253215   3.795   3.709  13.218 -0.0211 -0.4883  0.6316
 9674TIP3   OH253216   8.134   4.258  11.836 -0.0031 -0.0005 -0.1594
 9674TIP3    H153217   8.117   4.313  11.760  0.7375 -1.8029 -1.6917
 9674TIP3    H253218   8.227   4.270  11.855  0.1707 -0.7019 -0.5207
 9675TIP3   OH253219   4.963   1.883  11.712 -0.1138 -0.4355  0.1003
 9675TIP3    H153220   5.034   1.914  11.769 -0.1143  1.4675 -0.8485
 9675TIP3    H253221   4.898   1.953  11.715 -1.0629 -1.2604 -0.6097
 9676TIP3   OH253222   7.894   8.988  13.117  0.0888  0.3740 -0.2160
 9676TIP3    H153223   7.869   8.898  13.095 -0.9052  0.7617 -0.7321
 9676TIP3    H253224   7.990   8.987  13.113  0.0965 -0.6778 -0.1423
 9677TIP3   OH253225   7.232   2.573  12.031 -0.1980  0.1700 -0.4430
 9677TIP3    H153226   7.218   2.651  11.977 -0.9204 -1.1467 -2.2355
 9677TIP3    H253227   7.326   2.561  12.032 -0.0179  1.3940  0.3987
 9678TIP3   OH253228   4.181   7.140  12.071  0.4154 -0.4465 -0.5918
 9678TIP3    H153229   4.179   7.158  12.166  1.1550  3.1877 -1.1059
 9678TIP3    H253230   4.270   7.160  12.045 -0.3353  0.9024 -2.3364
 9679TIP3   OH253231   1.970   2.244  13.039 -0.2575  0.4628  0.2875
 9679TIP3    H153232   1.875   2.255  13.044 -0.9952 -2.0163 -3.7790
 9679TIP3    H253233   1.989   2.178  13.106 -2.1134 -1.5809 -1.0501
 9680TIP3   OH253234   7.053   5.752  12.245  0.0145 -0.3595  0.3608
 9680TIP3    H153235   7.025   5.663  12.222 -0.7967 -0.1181  0.4041
 9680TIP3    H253236   6.988   5.782  12.308  0.7836 -0.0582  1.0201
 9681TIP3   OH253237   7.755   3.060  12.106  0.5792  0.0598 -0.2374
 9681TIP3    H153238   7.806   3.038  12.028 -0.5449 -0.1671 -0.9359
 9681TIP3    H253239   7.762   3.156  12.113  0.7743  0.0712 -0.5619
 9682TIP3   OH253240   1.828   6.361  13.385 -0.1850 -0.2339 -0.0964
 9682TIP3    H153241   1.743   6.317  13.374  0.0439 -0.4757 -0.9946
 9682TIP3    H253242   1.815   6.448  13.347 -0.5490  0.3914  1.4097
 9683TIP3   OH253243   4.073   6.265  12.175 -0.4679 -0.0501 -0.3241
 9683TIP3    H153244   4.098   6.174  12.185 -0.7065 -0.1932 -0.9374
 9683TIP3    H253245   3.988   6.262  12.130 -1.2083  0.4352  0.9894
 9684TIP3   OH253246   1.742   7.253  13.075  0.0961  0.2052 -0.2114
 9684TIP3    H153247   1.697   7.310  13.137 -2.4029 -1.1447 -0.6443
 9684TIP3    H253248   1.734   7.297  12.991  1.2491  0.8246 -0.0164
 9685TIP3   OH253249   7.590   2.293  12.761 -1.1326 -0.5473  0.8082
 9685TIP3    H153250   7.536   2.214  12.755 -3.3491  0.8776  1.0961
 9685TIP3    H253251   7.624   2.291  12.851  0.1145 -1.9099  0.3510
 9686TIP3   OH253252   3.851   7.051  12.279  0.3963  0.0134  0.3548
 9686TIP3    H153253   3.856   7.057  12.375 -0.3866  1.1267  0.3516
 9686TIP3    H253254   3.757   7.049  12.260  0.5480 -0.3537 -0.3848
 9687TIP3   OH253255   5.132   7.615  13.417  0.4119 -0.7709 -0.4012
 9687TIP3    H153256   5.055   7.658  13.453  1.3581  0.5516  0.1590
 9687TIP3    H253257   5.163   7.675  13.349  1.3880 -0.8709 -0.0733
 9688TIP3   OH253258   8.575   5.508  13.211 -0.1808 -0.0175 -0.0495
 9688TIP3    H153259   8.542   5.438  13.266 -2.3949  0.8337 -0.1695
 9688TIP3    H253260   8.613   5.571  13.273  1.0915 -0.9184  0.1179
 9689TIP3   OH253261   5.209   2.464  12.252 -0.2306 -0.2028 -0.2117
 9689TIP3    H153262   5.124   2.450  12.211 -0.8736  0.8512  0.7035
 9689TIP3    H253263   5.189   2.493  12.341  1.0791  0.4481 -0.0966
 9690TIP3   OH253264   0.019   3.836  12.865  0.0527 -0.1644  0.2187
 9690TIP3    H153265   0.017   3.816  12.958  0.6687 -0.3697  0.1912
 9690TIP3    H253266   0.085   3.776  12.829 -0.5609 -0.4533 -0.4350
 9691TIP3   OH253267   3.604   3.738  11.986 -0.2032  0.0738  0.5972
 9691TIP3    H153268   3.683   3.722  12.038 -0.9363 -1.5495  1.2818
 9691TIP3    H253269   3.533   3.712  12.044 -1.1532  0.0311 -0.5714
 9692TIP3   OH253270   5.083   3.781  13.518 -0.5461  0.1275  0.2691
 9692TIP3    H153271   5.024   3.705  13.511 -0.9346  0.3318  1.1214
 9692TIP3    H253272   5.167   3.750  13.485 -1.3659  0.1271 -1.9936
 9693TIP3   OH253273   3.299   6.605  12.695 -0.6411  0.2738  0.2777
 9693TIP3    H153274   3.332   6.517  12.675  0.3927  0.5138  0.8589
 9693TIP3    H253275   3.370   6.647  12.744 -1.2998  1.2812  0.4025
 9694TIP3   OH253276   7.321   7.742  11.484  0.5456 -0.0987  0.4775
 9694TIP3    H153277   7.396   7.683  11.490  0.1319 -0.4950  2.7385
 9694TIP3    H253278   7.358   7.824  11.452  1.4360 -1.0395 -1.0398
 9695TIP3   OH253279   6.689   0.717  12.371 -0.2611  0.1653  0.7187
 9695TIP3    H153280   6.651   0.629  12.367 -0.1910  0.1012  1.3472
 9695TIP3    H253281   6.758   0.716  12.305 -0.3906 -0.1928  0.5863
 9696TIP3   OH253282   2.097   9.065  12.190 -0.1066 -0.4479  0.1147
 9696TIP3    H153283   2.181   9.024  12.207  0.2191  0.5629  1.0482
 9696TIP3    H253284   2.032   9.000  12.219  0.3624 -0.7982  0.3899
 9697TIP3   OH253285   8.414   1.828  12.874 -0.3733 -0.0019  0.2802
 9697TIP3    H153286   8.407   1.744  12.920 -1.6570  0.2592  0.6099
 9697TIP3    H253287   8.394   1.807  12.783  1.5522 -0.4145 -0.0773
 9698TIP3   OH253288   2.233   3.164  11.654  0.2422  0.0238 -0.1200
 9698TIP3    H153289   2.170   3.206  11.595  0.5498 -1.3796 -1.4896
 9698TIP3    H253290   2.185   3.091  11.692 -0.0911  1.1430  1.7864
 9699TIP3   OH253291   5.508   0.603  11.994  0.1762  0.5846  0.4662
 9699TIP3    H153292   5.525   0.642  12.080 -1.5570 -0.9173  1.5471
 9699TIP3    H253293   5.507   0.509  12.009  1.7191  0.1615 -1.6043
 9700TIP3   OH253294   1.101   6.577  12.351 -0.0743  0.1416 -0.6601
 9700TIP3    H153295   1.119   6.485  12.332  1.1687  0.5319 -1.4395
 9700TIP3    H253296   1.030   6.601  12.291 -0.0826 -0.1766 -0.7754
 9701TIP3   OH253297   1.053   5.660  11.640  0.4426  0.1987 -0.4901
 9701TIP3    H153298   1.058   5.750  11.610 -0.3626  0.0461 -1.1185
 9701TIP3    H253299   1.123   5.652  11.705  1.0819  1.0274 -1.0603
 9702TIP3   OH253300   0.129   9.135  11.760  0.0828  0.3562  0.1488
 9702TIP3    H153301   0.156   9.225  11.778  0.9051  0.4400 -1.3700
 9702TIP3    H253302   0.054   9.143  11.702  0.5890  0.0764 -0.5585
 9703TIP3   OH253303   1.460   7.296  12.484 -0.2773  0.2120 -0.1300
 9703TIP3    H153304   1.386   7.313  12.425 -0.7067  0.3836  0.4453
 9703TIP3    H253305   1.472   7.378  12.532 -0.9206 -0.3707  1.0944
 9704TIP3   OH253306   1.551   2.529  12.517 -0.2829  0.5663 -0.1624
 9704TIP3    H153307   1.635   2.525  12.563 -0.7854  2.8525  1.0869
 9704TIP3    H253308   1.573   2.560  12.429  0.3775 -1.1145 -0.6381
 9705TIP3   OH253309   8.907   5.917  11.955  0.2942 -0.2421  0.3036
 9705TIP3    H153310   8.873   5.832  11.927  0.8691  0.4014 -2.7002
 9705TIP3    H253311   8.984   5.896  12.008  0.9992 -1.6450 -1.1885
 9706TIP3   OH253312   4.337   1.891  13.102 -0.4537 -0.2175 -0.2010
 9706TIP3    H153313   4.408   1.910  13.164 -0.8638  2.0932 -0.3562
 9706TIP3    H253314   4.358   1.944  13.025 -0.5449 -2.2118 -1.6657
 9707TIP3   OH253315   9.149   2.940  12.283  0.0026  0.3867 -0.2461
 9707TIP3    H153316   9.189   2.857  12.256  1.4048  0.8132  0.4353
 9707TIP3    H253317   9.221   3.003  12.283 -0.6692  1.2053  0.9641
 9708TIP3   OH253318   8.073   7.968  12.865 -0.1271  0.1829  0.2749
 9708TIP3    H153319   8.141   7.931  12.921  0.2548  1.3228  0.5961
 9708TIP3    H253320   8.046   8.048  12.910  0.5655  1.4257 -1.4038
 9709TIP3   OH253321   0.554   1.695  11.285 -0.1413 -0.2229  0.2331
 9709TIP3    H153322   0.462   1.668  11.286 -0.2696  0.2249  0.6641
 9709TIP3    H253323   0.551   1.790  11.292  0.3523 -0.1933  0.0354
 9710TIP3   OH253324   2.506   9.090  12.397  0.2456  0.3633  0.3060
 9710TIP3    H153325   2.493   9.142  12.318  1.5503 -1.1124 -0.9391
 9710TIP3    H253326   2.574   9.137  12.446  0.7643  0.3238 -0.3673
 9711TIP3   OH253327   7.166   0.373  11.874  0.1639  0.6337 -0.1214
 9711TIP3    H153328   7.095   0.420  11.832 -2.4240 -2.4285  0.4862
 9711TIP3    H253329   7.243   0.394  11.821 -1.1500  3.7821 -1.0282
 9712TIP3   OH253330   5.432   7.840  13.041 -0.0463 -0.9522 -0.2020
 9712TIP3    H153331   5.409   7.898  12.969 -2.7356 -1.3944  0.2256
 9712TIP3    H253332   5.524   7.818  13.025 -0.0916  0.2720 -2.5495
 9713TIP3   OH253333   4.964   0.123  12.767 -0.4461  0.1289  0.2637
 9713TIP3    H153334   4.899   0.070  12.813 -1.1095  3.6006  3.9117
 9713TIP3    H253335   4.912   0.179  12.709 -0.0014 -1.0916 -1.4043
 9714TIP3   OH253336   6.147   1.746  13.282 -0.3583  0.1954  0.1454
 9714TIP3    H153337   6.095   1.826  13.286 -0.9125 -0.1865  0.7175
 9714TIP3    H253338   6.226   1.771  13.233 -0.7469  0.9606 -0.1020
 9715TIP3   OH253339   7.270   8.171  12.532 -0.0413 -0.1611 -0.1107
 9715TIP3    H153340   7.338   8.111  12.565 -1.3143 -1.1915  0.7565
 9715TIP3    H253341   7.296   8.189  12.442  0.0495 -2.5845 -0.6366
 9716TIP3   OH253342   4.725   2.056  12.674 -0.1099  0.2898 -0.4867
 9716TIP3    H153343   4.631   2.038  12.667 -0.3057  1.1811 -0.3031
 9716TIP3    H253344   4.761   2.030  12.590 -0.6073  0.3835 -0.7333
 9717TIP3   OH253345   6.770   8.801  12.255  0.2122 -0.1216  0.1485
 9717TIP3    H153346   6.801   8.884  12.219 -0.0760  1.1183  2.5450
 9717TIP3    H253347   6.844   8.767  12.305 -0.7308  0.5246  2.0743
 9718TIP3   OH253348   7.200   4.259  12.153 -0.8455  0.0701  0.2599
 9718TIP3    H153349   7.186   4.329  12.217 -0.5394  0.9196 -0.5844
 9718TIP3    H253350   7.278   4.214  12.185  0.2232  1.4372 -0.2974
 9719TIP3   OH253351   2.130   5.641  13.415  0.5534 -0.1582  1.2777
 9719TIP3    H153352   2.199   5.694  13.454  1.3035  0.5731 -0.8989
 9719TIP3    H253353   2.143   5.651  13.320 -1.7485 -1.0573  0.8129
 9720TIP3   OH253354   0.948   7.580  12.555  0.5465  0.0027  0.5153
 9720TIP3    H153355   0.876   7.600  12.616 -0.1276  0.5978 -0.4545
 9720TIP3    H253356   1.025   7.574  12.611  0.2704  2.3663  1.2290
 9721TIP3   OH253357   6.950   7.542  11.770 -0.0121 -0.3247 -0.0197
 9721TIP3    H153358   7.042   7.559  11.749 -0.1657 -0.1754 -0.5853
 9721TIP3    H253359   6.924   7.473  11.710 -0.2126 -0.5181  0.2873
 9722TIP3   OH253360   6.053   5.140  12.337  0.3648  0.2521 -0.3681
 9722TIP3    H153361   6.078   5.176  12.252  4.5246 -2.1916 -0.4518
 9722TIP3    H253362   6.120   5.173  12.397 -1.0027 -0.1176  1.4324
 9723TIP3   OH253363   6.805   4.018  13.191  0.0114 -0.0019  0.4207
 9723TIP3    H153364   6.729   3.993  13.244 -0.1045 -0.1359  0.1902
 9723TIP3    H253365   6.770   4.027  13.102  0.5099 -1.2966  0.0785
 9724TIP3   OH253366   8.658   6.945  12.183  0.0044 -0.6181 -0.2064
 9724TIP3    H153367   8.589   7.000  12.145 -1.1653 -1.2476  0.9137
 9724TIP3    H253368   8.611   6.868  12.215  1.3348 -1.3317  0.0727
 9725TIP3   OH253369   3.011   8.290  13.622  0.4075 -0.5938 -0.0480
 9725TIP3    H153370   3.079   8.356  13.609 -0.2458  0.2420  0.6900
 9725TIP3    H253371   3.045   8.234  13.691  0.1875  0.0756  0.6225
 9726TIP3   OH253372   8.580   6.391  12.151 -0.2665 -0.1776  0.1130
 9726TIP3    H153373   8.651   6.378  12.089 -0.1777  0.3997  0.0910
 9726TIP3    H253374   8.609   6.344  12.230  0.2100  0.1830  0.1558
 9727TIP3   OH253375   7.687   0.239  11.900 -0.0028 -0.1526 -0.0796
 9727TIP3    H153376   7.726   0.245  11.988  2.7056  0.2710 -1.2035
 9727TIP3    H253377   7.698   0.147  11.876  0.8126  0.0653 -0.5848
 9728TIP3   OH253378   5.180   7.452  12.359 -0.6370  0.0482  0.3945
 9728TIP3    H153379   5.258   7.440  12.305  0.3297 -0.6341  1.8506
 9728TIP3    H253380   5.131   7.370  12.349  0.4632 -0.8573  1.8824
 9729TIP3   OH253381   2.496   4.091  13.362 -0.3490  0.1034  0.1507
 9729TIP3    H153382   2.481   4.156  13.430 -1.4271  0.5103 -0.4576
 9729TIP3    H253383   2.575   4.120  13.318 -1.4990  1.7413 -0.9258
 9730TIP3   OH253384   3.069   1.190  13.605  0.8557 -0.0628 -0.3045
 9730TIP3    H153385   3.090   1.117  13.546  1.5844  0.5032 -0.7583
 9730TIP3    H253386   3.091   1.269  13.555  2.2253  0.4143  0.9703
 9731TIP3   OH253387   1.547   1.184  12.320  0.0824 -0.0881 -0.5213
 9731TIP3    H153388   1.541   1.122  12.248 -0.2320  0.3681 -0.8877
 9731TIP3    H253389   1.457   1.207  12.341  0.2073  0.5025 -0.6119
 9732TIP3   OH253390   2.822   3.674  12.553 -0.4205 -0.2711  0.1786
 9732TIP3    H153391   2.905   3.631  12.532  0.7214  1.9297 -0.0619
 9732TIP3    H253392   2.761   3.601  12.568  1.8382 -2.0003  1.7134
 9733TIP3   OH253393   2.742   4.173  13.261  0.3848  0.8988 -0.1106
 9733TIP3    H153394   2.794   4.146  13.186  0.5455  0.8005  0.0354
 9733TIP3    H253395   2.791   4.246  13.299  0.4541  0.7582  0.0708
 9734TIP3   OH253396   1.102   7.413  11.881  0.3155  0.5429  1.0571
 9734TIP3    H153397   1.099   7.428  11.975  0.2327  0.9479  0.9916
 9734TIP3    H253398   1.094   7.318  11.871 -1.2570  0.6128  1.3989
 9735TIP3   OH253399   6.079   8.152  12.172 -0.3799 -0.1494  0.3829
 9735TIP3    H153400   6.125   8.222  12.218  1.6972  0.7049 -2.6893
 9735TIP3    H253401   6.131   8.073  12.191 -0.0639  0.0185  0.2221
 9736TIP3   OH253402   5.022   8.455  12.609 -0.2998  0.1796  0.0214
 9736TIP3    H153403   5.029   8.550  12.616 -1.3936  0.1717  1.8618
 9736TIP3    H253404   5.097   8.429  12.555  0.7348  1.9623  0.5224
 9737TIP3   OH253405   7.200   5.900  12.604 -0.1954 -0.0887 -0.0106
 9737TIP3    H153406   7.205   5.829  12.541 -0.0248  1.5628 -1.9591
 9737TIP3    H253407   7.285   5.944  12.599 -0.6287  0.8500  0.4120
 9738TIP3   OH253408   2.515   2.221  12.117 -0.2029  0.4198  0.6815
 9738TIP3    H153409   2.525   2.222  12.212  2.7166 -1.9341  0.5440
 9738TIP3    H253410   2.499   2.129  12.096  1.3649  0.5218 -1.2196
 9739TIP3   OH253411   4.500   0.025  12.370 -0.1203  0.8081  0.3247
 9739TIP3    H153412   4.435  -0.043  12.388  0.6869 -0.7509 -2.2430
 9739TIP3    H253413   4.564   0.016  12.441 -1.2461  0.5112  1.3335
 9740TIP3   OH253414   8.159   2.684  12.948  0.4021  0.2763 -0.1820
 9740TIP3    H153415   8.108   2.736  12.886 -1.8120  0.0252  1.3104
 9740TIP3    H253416   8.161   2.737  13.027  1.0825 -0.4457  0.2965
 9741TIP3   OH253417   3.574   0.465  11.840 -0.0619 -0.0935  0.0206
 9741TIP3    H153418   3.579   0.554  11.874 -0.3949 -0.2591  0.5296
 9741TIP3    H253419   3.482   0.455  11.813  0.5698  0.6357 -2.6764
 9742TIP3   OH253420   1.132   7.267  12.768 -0.3015  0.1667  0.1023
 9742TIP3    H153421   1.101   7.209  12.698  1.7813 -0.5043 -0.3218
 9742TIP3    H253422   1.152   7.208  12.840 -0.6668  0.6610  0.6111
 9743TIP3   OH253423   3.922   5.348  12.379 -0.3993  0.3243 -0.0486
 9743TIP3    H153424   3.862   5.273  12.381  1.3379 -1.1410 -0.2304
 9743TIP3    H253425   3.871   5.420  12.416 -2.4953 -0.6453 -0.8750
 9744TIP3   OH253426   1.147   2.061  12.688  0.1313 -0.2446 -0.1512
 9744TIP3    H153427   1.156   2.123  12.760  0.6397 -0.0366 -0.3851
 9744TIP3    H253428   1.208   1.990  12.709  0.3121 -0.1631 -0.3922
 9745TIP3   OH253429   6.613   8.757  12.758 -0.1222 -0.3268 -0.1210
 9745TIP3    H153430   6.586   8.720  12.842  0.1084 -3.2944 -1.2268
 9745TIP3    H253431   6.578   8.846  12.758  0.6990  0.1318  3.4615
 9746TIP3   OH253432   0.225   6.923  13.221  0.6670  0.3329  0.5264
 9746TIP3    H153433   0.266   6.913  13.307  2.8145 -1.8375 -0.5961
 9746TIP3    H253434   0.163   6.850  13.215  0.0714  0.8386  0.4445
 9747TIP3   OH253435   0.407   2.261  13.136 -0.0459  0.0182 -0.0323
 9747TIP3    H153436   0.313   2.252  13.122 -0.1765  2.2983 -1.0770
 9747TIP3    H253437   0.416   2.275  13.231 -0.8127  0.2742  0.0073
 9748TIP3   OH253438   6.958   8.559  12.474 -0.5821 -0.1017  0.8092
 9748TIP3    H153439   6.892   8.512  12.423  0.0966  1.8649 -2.1670
 9748TIP3    H253440   7.006   8.491  12.520 -0.2015 -2.3234 -2.5689
 9749TIP3   OH253441   5.311   4.279  11.716  0.2627  0.0482  0.0677
 9749TIP3    H153442   5.267   4.199  11.688  0.2541 -0.3353  1.1527
 9749TIP3    H253443   5.294   4.341  11.645 -0.3234 -0.6953 -0.4600
 9750TIP3   OH253444   0.764   1.070  12.986  0.1356  0.2654  0.4258
 9750TIP3    H153445   0.827   1.143  12.986 -0.5144  0.8387  0.3486
 9750TIP3    H253446   0.773   1.031  12.899  0.8309 -0.0596  0.6336
 9751TIP3   OH253447   5.511   0.347  12.129  0.3349 -0.3247 -0.1083
 9751TIP3    H153448   5.531   0.416  12.192  1.0932 -0.2113 -0.4516
 9751TIP3    H253449   5.530   0.265  12.175  0.9964 -0.2382 -0.2185
 9752TIP3   OH253450   5.886   7.362  13.293 -0.3172  0.1412  0.0906
 9752TIP3    H153451   5.791   7.351  13.295 -0.4751  1.4022  2.2364
 9752TIP3    H253452   5.915   7.339  13.381  1.3438  0.1072 -0.4310
 9753TIP3   OH253453   6.791   3.173  12.089  0.8593  0.1628 -0.5595
 9753TIP3    H153454   6.814   3.258  12.126 -0.0473 -1.0147  3.1942
 9753TIP3    H253455   6.875   3.132  12.070  1.4322  0.7746  0.5412
 9754TIP3   OH253456   3.605   4.373  11.378  0.3295 -0.6892  0.2050
 9754TIP3    H153457   3.668   4.441  11.403  0.0254  0.1472 -1.1645
 9754TIP3    H253458   3.571   4.403  11.293  0.0525 -2.4661 -0.3468
 9755TIP3   OH253459   7.475   3.731  12.642 -0.2182  0.6701 -0.4597
 9755TIP3    H153460   7.416   3.707  12.714 -0.0337  0.8245 -0.2532
 9755TIP3    H253461   7.531   3.654  12.630  0.1566  0.8655 -0.0201
 9756TIP3   OH253462   6.845   2.301  11.951 -0.2279 -0.0394 -0.3092
 9756TIP3    H153463   6.819   2.277  11.862  0.2927 -2.4209  0.1115
 9756TIP3    H253464   6.772   2.271  12.006  0.3859 -0.5622  0.2370
 9757TIP3   OH253465   8.488   8.240  12.639  0.8994 -0.2687  0.1920
 9757TIP3    H153466   8.579   8.249  12.667  0.6847 -3.4707  2.4199
 9757TIP3    H253467   8.452   8.328  12.647  3.1660  0.6057  1.7257
 9758TIP3   OH253468   8.096   7.401  12.550  0.0868  0.3165  0.0415
 9758TIP3    H153469   8.169   7.350  12.587  0.6397 -0.2281 -1.7088
 9758TIP3    H253470   8.058   7.447  12.625  1.0666 -0.8411  1.2920
 9759TIP3   OH253471   6.350   0.801  11.552  0.1056 -0.2925 -0.3388
 9759TIP3    H153472   6.265   0.757  11.560  0.0845 -0.2665 -0.4243
 9759TIP3    H253473   6.387   0.796  11.640 -0.4604  0.6579 -0.0238
 9760TIP3   OH253474   0.102   5.392  13.362  0.6224 -0.2433 -0.0345
 9760TIP3    H153475   0.191   5.398  13.326  1.0608  2.3828  1.2339
 9760TIP3    H253476   0.103   5.310  13.412  1.7677 -1.0981 -1.3634
 9761TIP3   OH253477   8.809   4.078  12.040 -0.3386  0.7424 -0.0285
 9761TIP3    H153478   8.865   4.115  12.109 -0.2132 -0.1602  0.3699
 9761TIP3    H253479   8.725   4.123  12.052 -0.0647  1.2073  0.1730
 9762TIP3   OH253480   3.636   1.005  13.632 -0.1509 -0.1485  0.3982
 9762TIP3    H153481   3.560   1.020  13.688  0.5796 -1.2860  1.7874
 9762TIP3    H253482   3.690   1.083  13.644  0.4982 -0.8215  2.2035
 9763TIP3   OH253483   4.152   5.179  13.125 -0.3334 -0.1058 -0.1082
 9763TIP3    H153484   4.062   5.162  13.153 -0.3541 -2.4746 -1.3205
 9763TIP3    H253485   4.205   5.122  13.180 -0.0152 -1.7384 -1.9925
 9764TIP3   OH253486   6.794   3.687  11.734 -0.0700  0.1003  0.0806
 9764TIP3    H153487   6.702   3.668  11.716  0.2780 -0.9911 -0.6994
 9764TIP3    H253488   6.830   3.604  11.765  0.5500  0.6473  0.8676
 9765TIP3   OH253489   1.565   7.513  12.655  0.1545 -0.0646  0.0471
 9765TIP3    H153490   1.516   7.566  12.718  0.3651 -1.7980  1.7601
 9765TIP3    H253491   1.625   7.574  12.613  0.3065  1.0961  1.8585
 9766TIP3   OH253492   0.127   0.603  12.519 -0.4072 -0.1143  0.2374
 9766TIP3    H153493   0.191   0.600  12.447  0.9549 -0.4639  1.4213
 9766TIP3    H253494   0.094   0.514  12.525 -1.7607  0.2614 -0.9800
 9767TIP3   OH253495   5.677   7.321  12.900  0.0370  0.1811  0.4446
 9767TIP3    H153496   5.614   7.271  12.953  0.4447  0.6085  1.3702
 9767TIP3    H253497   5.714   7.384  12.962  0.2168  0.9994 -0.4733
 9768TIP3   OH253498   6.078   3.836  12.690  0.7300 -0.3977 -0.1458
 9768TIP3    H153499   6.060   3.924  12.656  0.5685 -0.7583 -1.0168
 9768TIP3    H253500   6.021   3.828  12.766  0.4579  0.1099 -0.2900
 9769TIP3   OH253501   7.031   2.892  11.388 -0.2479  0.1564  0.0162
 9769TIP3    H153502   7.007   2.935  11.306 -2.4973 -1.6767 -0.3988
 9769TIP3    H253503   6.984   2.942  11.456  0.6199  0.9114  0.0883
 9770TIP3   OH253504   7.608   6.173  12.445  0.3326 -0.3392  0.4597
 9770TIP3    H153505   7.667   6.228  12.394  0.5705 -2.2551 -1.4616
 9770TIP3    H253506   7.645   6.174  12.533  2.0639  0.1375 -0.2253
 9771TIP3   OH253507   8.607   5.246  13.405  0.1199 -0.4138  0.0820
 9771TIP3    H153508   8.647   5.326  13.438 -2.2368  0.9902 -0.2138
 9771TIP3    H253509   8.680   5.185  13.395  2.2829  2.1459 -1.1638
 9772TIP3   OH253510   5.681   4.629  12.859 -0.2270  0.0288 -0.0777
 9772TIP3    H153511   5.696   4.697  12.926 -0.2416  0.3388 -0.3873
 9772TIP3    H253512   5.586   4.622  12.854 -0.2864  1.2491 -1.2964
 9773TIP3   OH253513   1.819   6.079  12.724  0.2652  0.5182 -0.0807
 9773TIP3    H153514   1.877   6.037  12.787 -1.6826 -0.0045  1.4713
 9773TIP3    H253515   1.845   6.043  12.639  1.1066 -0.9462  0.7643
 9774TIP3   OH253516   5.285   3.478  12.742 -0.2571 -0.9500  0.2038
 9774TIP3    H153517   5.351   3.431  12.692 -0.4509 -0.0644 -0.9275
 9774TIP3    H253518   5.232   3.523  12.676 -0.6621  0.0804  1.1915
 9775TIP3   OH253519   0.845   4.299  11.719  0.6525 -0.0541  0.1057
 9775TIP3    H153520   0.867   4.248  11.796  1.4275 -0.2196 -0.2170
 9775TIP3    H253521   0.896   4.260  11.648  0.1883  0.2885 -0.4326
 9776TIP3   OH253522   1.941   1.785  12.395 -0.6427 -0.4322 -0.0750
 9776TIP3    H153523   1.914   1.877  12.399  1.9586  0.3839  0.3450
 9776TIP3    H253524   1.913   1.756  12.309 -0.5745  1.0760 -0.6336
 9777TIP3   OH253525   6.271   6.505  11.919 -0.3505  0.1974 -0.6844
 9777TIP3    H153526   6.179   6.502  11.944 -0.5193  0.5376 -1.2651
 9777TIP3    H253527   6.286   6.423  11.871 -0.0522 -0.4063  0.4000
 9778TIP3   OH253528   2.417   0.092  12.592  0.1340 -0.3238  0.0259
 9778TIP3    H153529   2.353   0.077  12.523  0.4013  0.1459 -0.3254
 9778TIP3    H253530   2.460   0.007  12.604 -1.2616 -0.9571  1.0096
 9779TIP3   OH253531   3.863   6.751  12.948  0.5848 -0.6061 -0.2206
 9779TIP3    H153532   3.879   6.707  12.864  0.1558  1.9861 -1.7693
 9779TIP3    H253533   3.915   6.702  13.011  1.3123 -2.3647 -2.0622
 9780TIP3   OH253534   1.473   4.849  13.057  0.0945 -0.5750  0.3687
 9780TIP3    H153535   1.526   4.770  13.047 -0.0836 -0.7758  0.9651
 9780TIP3    H253536   1.441   4.868  12.969  0.4351 -0.9581  0.1582
 9781TIP3   OH253537   1.855   1.145  12.187  0.1180 -0.1234 -0.4263
 9781TIP3    H153538   1.818   1.230  12.212 -1.1956 -0.7453 -0.1696
 9781TIP3    H253539   1.947   1.151  12.211 -0.1538  0.8955  0.4506
 9782TIP3   OH253540   4.409   1.978  12.848 -0.2872 -0.2200  0.2452
 9782TIP3    H153541   4.486   1.925  12.825 -0.8481 -0.8006 -0.3387
 9782TIP3    H253542   4.394   2.033  12.772  1.9860  2.9369  1.8716
 9783TIP3   OH253543   7.989   5.072  13.248 -0.0212  0.5405  0.0703
 9783TIP3    H153544   8.018   5.046  13.336 -1.3201  0.2000  0.4292
 9783TIP3    H253545   8.004   5.166  13.245 -0.5872  0.6784  0.9351
 9784TIP3   OH253546   7.989   2.883  12.642  0.1910  0.5724 -0.1033
 9784TIP3    H153547   7.899   2.894  12.614  0.0540 -0.2050  0.0197
 9784TIP3    H253548   7.992   2.797  12.684  1.5667 -0.6580 -2.5099
 9785TIP3   OH253549   1.303   8.556  13.479 -0.1192 -0.2498  0.5693
 9785TIP3    H153550   1.248   8.518  13.548 -0.5451  1.3780  1.1600
 9785TIP3    H253551   1.376   8.596  13.526  0.1517 -0.0366 -0.0233
 9786TIP3   OH253552   2.096   2.072  12.445  0.4044 -0.0578  0.2241
 9786TIP3    H153553   2.110   2.167  12.436  0.9733  0.0253  1.7063
 9786TIP3    H253554   2.003   2.060  12.423  0.1313  0.9593  0.7386
 9787TIP3   OH253555   5.297   0.892  11.651  0.1317 -0.1128  0.1151
 9787TIP3    H153556   5.208   0.870  11.623 -0.4000  0.1149  1.5438
 9787TIP3    H253557   5.307   0.848  11.736  2.0636 -1.6649 -0.8587
 9788TIP3   OH253558   1.779   1.909  12.740  0.0445 -0.0417  0.4877
 9788TIP3    H153559   1.726   1.981  12.774  1.4051  1.0490  0.3994
 9788TIP3    H253560   1.744   1.891  12.653 -0.0395  0.8228  0.3369
 9789TIP3   OH253561   0.695   2.975  11.817 -0.2065  0.1506  0.3009
 9789TIP3    H153562   0.612   2.994  11.773  0.9120 -1.2031 -2.6690
 9789TIP3    H253563   0.675   2.901  11.875 -1.2039  0.2645  0.1222
 9790TIP3   OH253564   2.108   2.880  12.100  0.7095 -0.0976  0.5013
 9790TIP3    H153565   2.027   2.889  12.050  1.3950  1.6310 -0.3704
 9790TIP3    H253566   2.080   2.848  12.186 -1.0096  1.3053  0.5136
 9791TIP3   OH253567   0.155   8.335  13.202  0.1474  0.2182  0.1355
 9791TIP3    H153568   0.220   8.367  13.265 -0.1161 -0.3479  0.6980
 9791TIP3    H253569   0.114   8.415  13.168  1.6489  0.6357 -0.8041
 9792TIP3   OH253570   3.257   8.441  13.493  0.1442 -0.2282  0.0793
 9792TIP3    H153571   3.220   8.387  13.423 -0.6377 -2.4705  2.0734
 9792TIP3    H253572   3.337   8.394  13.519  1.7339  1.8430 -0.7904
 9793TIP3   OH253573   3.695   3.155  12.941  1.0108 -0.0315  0.0296
 9793TIP3    H153574   3.713   3.078  12.887  1.0265  0.5159 -0.7606
 9793TIP3    H253575   3.777   3.170  12.989  0.7586 -0.9577  0.7921
 9794TIP3   OH253576   1.165   2.342  11.773 -0.0528 -0.3787 -0.5374
 9794TIP3    H153577   1.260   2.355  11.770 -0.2490  1.7740  0.5909
 9794TIP3    H253578   1.146   2.326  11.866 -0.7672 -1.1875 -0.8100
 9795TIP3   OH253579   6.541   4.111  12.407  0.1030  0.5362 -0.3656
 9795TIP3    H153580   6.462   4.058  12.414 -0.7643  1.7521 -0.5189
 9795TIP3    H253581   6.514   4.197  12.441  1.2673  1.0584 -0.7230
 9796TIP3   OH253582   4.898   7.117  12.124  0.5627 -0.7964  0.2288
 9796TIP3    H153583   4.914   7.023  12.130  0.3989 -0.9552 -1.4097
 9796TIP3    H253584   4.957   7.147  12.056 -0.6701 -0.0473 -0.5547
 9797TIP3   OH253585   0.495   5.524  13.070  0.1648 -0.1078  0.1409
 9797TIP3    H153586   0.562   5.517  13.138  0.3803 -0.4748 -0.1060
 9797TIP3    H253587   0.468   5.615  13.072  0.9336  0.1284 -0.0098
 9798TIP3   OH253588   2.607   1.822  13.158 -0.5127  0.0876  0.1697
 9798TIP3    H153589   2.607   1.803  13.064 -0.4507  1.1818 -0.0656
 9798TIP3    H253590   2.678   1.769  13.193 -0.1643  0.0961 -0.5055
 9799TIP3   OH253591   4.640   3.728  12.551  0.3010  0.1171  0.3670
 9799TIP3    H153592   4.638   3.824  12.552 -0.7569  0.1141  1.0167
 9799TIP3    H253593   4.607   3.703  12.637  1.4822 -0.8413  0.5632
 9800TIP3   OH253594   0.300   2.010  12.524  0.4058  0.0697  0.3342
 9800TIP3    H153595   0.212   2.006  12.562  0.4588  1.5122  0.6316
 9800TIP3    H253596   0.328   1.918  12.520 -0.8818 -0.3635  0.7524
 9801TIP3   OH253597   2.000   4.691  11.860  0.4763  0.0916  0.8194
 9801TIP3    H153598   1.946   4.613  11.848 -0.4454  0.8366 -0.1140
 9801TIP3    H253599   2.079   4.660  11.905  0.2535 -1.4113  0.2154
 9802TIP3   OH253600   6.147   8.108  12.553 -0.0209  0.2683 -0.1358
 9802TIP3    H153601   6.127   8.032  12.608  1.0024 -0.4728 -0.7716
 9802TIP3    H253602   6.130   8.184  12.610  0.3403 -0.4659  0.9702
 9803TIP3   OH253603   7.064   9.113  11.563 -0.4429 -0.5574 -0.2881
 9803TIP3    H153604   6.969   9.103  11.553 -0.7996  2.0010 -0.1838
 9803TIP3    H253605   7.101   9.032  11.527 -2.6330 -1.4557 -0.6693
 9804TIP3   OH253606   4.771   8.331  12.563  0.4304  0.3373  0.4827
 9804TIP3    H153607   4.788   8.240  12.536  1.6959  0.6060  0.3211
 9804TIP3    H253608   4.853   8.360  12.601 -0.2451  1.1458  1.3511
 9805TIP3   OH253609   8.384   7.913  13.273  0.0490 -0.3054 -0.7712
 9805TIP3    H153610   8.428   7.996  13.293 -1.0353  0.5525 -1.7644
 9805TIP3    H253611   8.426   7.849  13.329  3.0617  0.3016 -2.1563
 9806TIP3   OH253612   4.666   4.391  12.788  0.8620 -0.3103  0.3103
 9806TIP3    H153613   4.675   4.317  12.727  0.2890 -0.4268  0.3640
 9806TIP3    H253614   4.608   4.452  12.742  1.6100  0.2696  0.1151
 9807TIP3   OH253615   0.291   8.641  13.311 -0.3996 -0.4355  0.3386
 9807TIP3    H153616   0.230   8.607  13.246  0.2684 -3.6567  1.2143
 9807TIP3    H253617   0.237   8.660  13.387 -0.7365  0.2139 -0.0480
 9808TIP3   OH253618   5.461   9.142  12.315  0.0433 -0.8912 -0.2933
 9808TIP3    H153619   5.492   9.054  12.297  0.0723 -0.8906 -0.2453
 9808TIP3    H253620   5.366   9.134  12.318 -0.0163 -0.7421 -1.2825
 9809TIP3   OH253621   7.966   3.792  12.520  0.7628  0.0814 -0.4504
 9809TIP3    H153622   8.019   3.765  12.446 -1.0171 -3.1516 -0.7038
 9809TIP3    H253623   8.009   3.752  12.596  0.0325 -0.5786 -0.3712
 9810TIP3   OH253624   0.558   4.025  12.115 -0.5122 -0.8607 -0.4664
 9810TIP3    H153625   0.620   4.098  12.107 -2.2337  0.9122  1.2448
 9810TIP3    H253626   0.569   3.976  12.033  1.1823  0.9199 -1.4138
 9811TIP3   OH253627   7.383   1.976  11.897 -0.5400  0.5255  0.2282
 9811TIP3    H153628   7.410   2.039  11.963  1.0663 -0.0556  0.1739
 9811TIP3    H253629   7.325   2.024  11.838 -2.1532  1.0081  2.1366
 9812TIP3   OH253630   1.125   4.252  12.041  0.2580 -0.7703 -0.0479
 9812TIP3    H153631   1.082   4.336  12.023 -0.2977 -1.2862 -1.2831
 9812TIP3    H253632   1.070   4.211  12.107 -0.1020 -0.6222 -0.2487
 9813TIP3   OH253633   3.734   7.241  12.877 -0.2495 -0.4692 -0.0329
 9813TIP3    H153634   3.786   7.176  12.924  0.5380 -0.4128 -0.8094
 9813TIP3    H253635   3.700   7.195  12.800 -1.0565 -0.4010  0.2689
 9814TIP3   OH253636   6.810   2.934  13.387  0.4264  0.1988  0.3368
 9814TIP3    H153637   6.879   2.938  13.321 -0.4204  1.2258 -0.5229
 9814TIP3    H253638   6.744   2.876  13.349 -2.1655  4.1755 -1.9334
 9815TIP3   OH253639   1.992   2.108  13.315  0.2682  0.5193  0.2555
 9815TIP3    H153640   1.932   2.168  13.361 -0.2388  0.3633 -0.1951
 9815TIP3    H253641   1.943   2.027  13.307  0.8646  0.1137  0.6393
 9816TIP3   OH253642   3.573   1.761  11.894  0.4649 -0.1026  0.6166
 9816TIP3    H153643   3.500   1.822  11.882  1.1268  0.7904  1.0114
 9816TIP3    H253644   3.535   1.687  11.941 -0.3195  0.0621  0.2625
 9817TIP3   OH253645   5.480   7.278  11.943  0.9418  0.2725 -0.6599
 9817TIP3    H153646   5.479   7.316  12.031  0.8863  0.6121 -0.8078
 9817TIP3    H253647   5.527   7.195  11.954  0.9574  0.3245 -0.3153
 9818TIP3   OH253648   1.572   3.478  13.179  0.4806 -0.3157  0.4261
 9818TIP3    H153649   1.487   3.440  13.201 -0.1235  1.6163  1.6089
 9818TIP3    H253650   1.556   3.532  13.102  0.6336  0.0273  0.6315
 9819TIP3   OH253651   7.734   2.577  12.058 -0.1084 -0.2114  0.2527
 9819TIP3    H153652   7.769   2.489  12.042 -1.6657 -1.1080  1.4814
 9819TIP3    H253653   7.758   2.596  12.148 -1.1290 -0.0641  0.5074
 9820TIP3   OH253654   8.472   1.987  12.036  0.5728 -0.4399  0.0136
 9820TIP3    H153655   8.483   1.954  11.946 -0.5984 -0.1729 -0.2517
 9820TIP3    H253656   8.488   2.081  12.029 -0.9264 -0.1713 -0.2347
 9821TIP3   OH253657   8.262   6.097  12.960  0.0768  0.2572 -0.6165
 9821TIP3    H153658   8.298   6.172  12.912  0.0362 -0.0292 -1.1037
 9821TIP3    H253659   8.200   6.058  12.898 -1.9911  1.4215  0.5849
 9822TIP3   OH253660   6.865   4.123  11.715 -0.1816 -0.0291 -0.5613
 9822TIP3    H153661   6.863   4.201  11.771  0.8429  0.7700 -1.5897
 9822TIP3    H253662   6.776   4.090  11.717 -0.8395  1.6413 -0.7419
 9823TIP3   OH253663   6.601   1.724  12.666  0.0785 -0.4986 -0.0281
 9823TIP3    H153664   6.688   1.690  12.686  0.0603 -2.2686 -2.4894
 9823TIP3    H253665   6.542   1.669  12.717  0.2889 -1.1101 -0.4356
 9824TIP3   OH253666   2.346   4.840  12.598  0.3486  0.2109  0.2857
 9824TIP3    H153667   2.403   4.897  12.548 -0.0426  0.8427  0.5515
 9824TIP3    H253668   2.271   4.894  12.621  0.2141 -0.2549  0.9877
 9825TIP3   OH253669   8.685   6.246  12.356 -0.5111  0.6153 -0.1770
 9825TIP3    H153670   8.647   6.241  12.444  0.5609  1.1509  0.3408
 9825TIP3    H253671   8.721   6.158  12.341 -0.8582  0.4687 -0.1541
 9826TIP3   OH253672   0.289   3.086  13.669  0.0649  0.0085 -0.5313
 9826TIP3    H153673   0.214   3.108  13.614  0.5455 -0.2773 -1.3126
 9826TIP3    H253674   0.307   3.166  13.718  0.7075  0.8421 -2.0639
 9827TIP3   OH253675   1.114   7.128  13.268 -0.5506  0.5924  0.2141
 9827TIP3    H153676   1.083   7.107  13.356 -2.6569 -0.2958 -0.6719
 9827TIP3    H253677   1.104   7.223  13.260 -1.5154  0.5259  0.5364
 9828TIP3   OH253678   0.254   1.137  13.378  0.1691 -0.3564  0.3910
 9828TIP3    H153679   0.315   1.199  13.417  0.8666 -0.6218 -0.2535
 9828TIP3    H253680   0.206   1.188  13.312 -0.3924 -0.1211  0.9739
 9829TIP3   OH253681   2.783   5.501  12.074 -0.0366 -0.4251 -0.0384
 9829TIP3    H153682   2.797   5.549  12.156 -1.4521 -1.6949  1.0025
 9829TIP3    H253683   2.721   5.554  12.025 -0.4715 -0.4588  0.4648
 9830TIP3   OH253684   9.070   1.849  12.416  0.2138 -0.2552  0.4420
 9830TIP3    H153685   9.118   1.805  12.486  0.5742  0.5561  0.7250
 9830TIP3    H253686   8.997   1.893  12.460 -0.0380 -0.4215  0.1942
 9831TIP3   OH253687   7.964   9.097  12.551 -0.5973  0.1916 -0.2254
 9831TIP3    H153688   7.961   9.193  12.552  0.2723  0.2289 -0.4348
 9831TIP3    H253689   8.038   9.076  12.493  0.5432 -0.5616  1.4227
 9832TIP3   OH253690   9.061   5.831  12.475  0.1039 -0.0470 -0.4840
 9832TIP3    H153691   9.086   5.745  12.442 -0.8119 -1.1844  1.6004
 9832TIP3    H253692   9.096   5.834  12.564 -1.5900  0.9102  0.1924
 9833TIP3   OH253693   4.440   1.847  12.006  0.1373  0.0029 -0.5350
 9833TIP3    H153694   4.484   1.815  12.085 -0.9531  0.9873  0.5169
 9833TIP3    H253695   4.405   1.932  12.031 -2.2014 -0.6481 -1.3723
 9834TIP3   OH253696   7.867   0.920  12.443  0.2217  0.3831  0.0790
 9834TIP3    H153697   7.945   0.954  12.399  0.3798  0.0814  0.1263
 9834TIP3    H253698   7.873   0.825  12.433 -2.0529  0.4037 -3.2462
 9835TIP3   OH253699   7.170   3.274  12.730  0.2302 -0.3745 -0.3921
 9835TIP3    H153700   7.257   3.296  12.697  0.9811 -1.0400  1.0384
 9835TIP3    H253701   7.165   3.320  12.814 -1.0935  0.2247 -0.7801
 9836TIP3   OH253702   6.913   8.225  11.604  0.2422  0.5300 -0.3258
 9836TIP3    H153703   6.968   8.217  11.682  1.2498  1.0559 -0.9608
 9836TIP3    H253704   6.975   8.218  11.530 -0.7598 -0.5587 -1.0970
 9837TIP3   OH253705   6.203   0.330  12.458  0.2947 -0.1981  0.4459
 9837TIP3    H153706   6.108   0.319  12.451  0.3202  0.2744 -0.8287
 9837TIP3    H253707   6.217   0.425  12.457  0.7971 -0.2686  0.3035
 9838TIP3   OH253708   4.524   5.422  13.315  0.1415 -0.2000 -0.0413
 9838TIP3    H153709   4.529   5.405  13.220 -0.5388  0.2805 -0.1724
 9838TIP3    H253710   4.442   5.380  13.342  0.6007 -0.8005  0.4436
 9839TIP3   OH253711   4.774   1.139  11.966  0.0455 -0.4664  0.6975
 9839TIP3    H153712   4.867   1.159  11.971  0.1320 -0.4349 -0.6973
 9839TIP3    H253713   4.731   1.220  11.996  0.4598  0.1457 -0.3047
 9840TIP3   OH253714   5.930   2.829  12.288  0.1343 -0.2155  0.5292
 9840TIP3    H153715   5.946   2.735  12.298  1.2224 -0.2380 -1.0505
 9840TIP3    H253716   6.002   2.870  12.337 -0.0376 -0.2007  0.7726
 9841TIP3   OH253717   0.409   7.966  12.553  0.0845 -0.0856 -0.2712
 9841TIP3    H153718   0.379   8.023  12.483  1.5393 -0.8899 -1.6185
 9841TIP3    H253719   0.493   8.003  12.579 -0.5573  0.3537  1.2775
 9842TIP3   OH253720   2.978   0.439  13.008 -0.5464  0.0373 -0.1802
 9842TIP3    H153721   3.061   0.477  13.039 -0.4408 -0.1304 -0.2569
 9842TIP3    H253722   2.951   0.380  13.078 -0.4920 -0.0689 -0.2484
 9843TIP3   OH253723   3.109   8.505  12.410 -0.1346  0.0308 -0.2498
 9843TIP3    H153724   3.171   8.507  12.338  0.3806  0.0814  0.1917
 9843TIP3    H253725   3.044   8.572  12.387  0.8544  1.1230  0.0666
 9844TIP3   OH253726   2.478   6.991  13.380  0.1598 -0.7250  0.4467
 9844TIP3    H153727   2.467   6.922  13.444  1.2060 -0.5786  0.8096
 9844TIP3    H253728   2.506   7.067  13.431 -1.6947  0.2157  0.1617
 9845TIP3   OH253729   4.870   4.981  13.609 -0.4252  0.2963  0.5091
 9845TIP3    H153730   4.836   4.898  13.642 -0.9661  0.9297  1.6012
 9845TIP3    H253731   4.796   5.041  13.614  0.4914  1.3767  1.6907
 9846TIP3   OH253732   8.818   6.026  13.719  0.1962 -0.4430  0.6037
 9846TIP3    H153733   8.884   5.959  13.699  2.0347  1.1345  1.1151
 9846TIP3    H253734   8.756   5.982  13.778  0.2896 -2.1978 -0.5328
 9847TIP3   OH253735   7.345   6.309  11.943  0.0304  0.0846  0.9206
 9847TIP3    H153736   7.275   6.265  11.991 -0.4635  0.5884  0.6892
 9847TIP3    H253737   7.388   6.240  11.894 -0.4289 -0.2152  0.9319
 9848TIP3   OH253738   6.161   8.886  11.628  0.3093 -0.1599  0.2916
 9848TIP3    H153739   6.162   8.830  11.550 -1.2737 -0.3233  0.3452
 9848TIP3    H253740   6.225   8.847  11.687 -0.0445 -1.3413 -0.0724
 9849TIP3   OH253741   3.684   4.692  12.404 -0.6536  0.1521  0.3580
 9849TIP3    H153742   3.687   4.597  12.395 -0.7547  0.3250 -2.0281
 9849TIP3    H253743   3.774   4.717  12.427 -0.2815 -0.4135 -0.4457
 9850TIP3   OH253744   0.664   2.397  12.024  0.5196 -0.3143 -0.3239
 9850TIP3    H153745   0.759   2.410  12.020  0.8392 -2.4182 -0.6445
 9850TIP3    H253746   0.637   2.384  11.933 -0.3743  1.7145 -0.4213
 9851TIP3   OH253747   2.420   5.313  13.484  0.0064 -0.1066 -0.1485
 9851TIP3    H153748   2.325   5.323  13.477  0.0303  0.1480 -0.1203
 9851TIP3    H253749   2.452   5.327  13.395  0.0080 -0.2971 -0.1779
 9852TIP3   OH253750   4.470   8.311  12.474 -0.3044  0.3342  0.0699
 9852TIP3    H153751   4.419   8.238  12.509 -0.9213  1.0180  0.6199
 9852TIP3    H253752   4.555   8.303  12.516 -0.6764  0.4822  0.8739
 9853TIP3   OH253753   6.270   2.365  12.739  0.2892 -0.1277 -0.4541
 9853TIP3    H153754   6.176   2.369  12.760  0.3897  0.2983 -0.0556
 9853TIP3    H253755   6.293   2.273  12.749 -0.2702 -0.3861 -1.3935
 9854TIP3   OH253756   3.727   8.179  12.428  0.5563  0.4152 -0.1221
 9854TIP3    H153757   3.637   8.214  12.432 -0.2887 -1.2565 -2.5327
 9854TIP3    H253758   3.737   8.130  12.509  0.0912  2.2965  1.1470
 9855TIP3   OH253759   8.355   5.512  13.564  0.4213  0.7498 -0.3259
 9855TIP3    H153760   8.325   5.521  13.473  2.4307  0.7432 -1.0264
 9855TIP3    H253761   8.425   5.577  13.573 -0.8628  1.9608  1.7728
 9856TIP3   OH253762   8.816   9.214  13.272  0.2063 -0.3346 -0.1748
 9856TIP3    H153763   8.743   9.276  13.279 -0.7124 -1.2990 -0.8834
 9856TIP3    H253764   8.868   9.229  13.351 -1.0031  0.0886  0.5726
 9857TIP3   OH253765   1.096   7.949  13.011  0.0165  0.0313 -0.3063
 9857TIP3    H153766   1.002   7.969  13.013  0.0607  0.2347 -0.2449
 9857TIP3    H253767   1.100   7.856  12.991 -0.2049 -0.0189 -0.1265
 9858TIP3   OH253768   6.550   2.384  12.455  0.2252 -0.0294  0.3570
 9858TIP3    H153769   6.496   2.305  12.454 -0.2343  0.2686 -1.0442
 9858TIP3    H253770   6.509   2.442  12.391  1.4101  0.7650  0.2807
 9859TIP3   OH253771   7.011   4.540  12.622 -0.4441  0.0127 -0.3548
 9859TIP3    H153772   6.932   4.487  12.630  0.1592 -1.1548 -1.7807
 9859TIP3    H253773   6.987   4.608  12.558 -0.5197  0.0988 -0.2351
 9860TIP3   OH253774   8.888   3.956  11.639 -0.0166  0.1433 -0.0005
 9860TIP3    H153775   8.925   4.000  11.563  0.8788 -0.6236 -0.0200
 9860TIP3    H253776   8.901   4.019  11.711 -1.6376  1.2344 -0.5924
 9861TIP3   OH253777   8.037   6.771  11.702 -0.0542  0.2135  0.3527
 9861TIP3    H153778   7.995   6.806  11.781  1.7246 -0.4547  1.6503
 9861TIP3    H253779   8.048   6.677  11.721  0.5737  0.0788 -0.6201
 9862TIP3   OH253780   3.799   3.956  12.461 -0.3095 -0.4570  0.1494
 9862TIP3    H153781   3.758   3.984  12.378 -0.9464  0.4459  0.7405
 9862TIP3    H253782   3.725   3.931  12.516  0.0236  0.0521  0.8318
 9863TIP3   OH253783   3.391   4.867  12.640  0.6759  0.4159  0.0212
 9863TIP3    H153784   3.418   4.958  12.627  0.9326  0.2454 -0.6846
 9863TIP3    H253785   3.445   4.836  12.713 -0.1202  1.1172  0.9267
 9864TIP3   OH253786   6.326   0.468  13.131 -0.4095 -0.5445 -0.5650
 9864TIP3    H153787   6.347   0.530  13.201 -0.6806  0.2557 -1.1708
 9864TIP3    H253788   6.230   0.466  13.130 -0.3995 -1.3423 -0.2400
 9865TIP3   OH253789   2.456   2.468  12.284  0.5960  0.0558  0.0531
 9865TIP3    H153790   2.551   2.470  12.296  0.6280 -0.4032 -0.0842
 9865TIP3    H253791   2.437   2.544  12.229  0.7780  0.6258  0.7607
 9866TIP3   OH253792   4.118   2.057  12.828  0.6387  0.1068  0.6581
 9866TIP3    H153793   4.147   1.974  12.866 -0.1750  0.0905  1.2793
 9866TIP3    H253794   4.108   2.039  12.735  3.8037  0.4510  0.1357
 9867TIP3   OH253795   4.347   6.309  13.301  0.0410 -0.1015 -0.6032
 9867TIP3    H153796   4.416   6.375  13.297 -0.1631  0.1869  0.3957
 9867TIP3    H253797   4.337   6.290  13.395 -1.5557  0.2012 -0.6863
 9868TIP3   OH253798   1.438   8.162  13.204 -0.1863  0.1321  0.4928
 9868TIP3    H153799   1.487   8.231  13.248  1.6137 -0.7107 -0.0660
 9868TIP3    H253800   1.385   8.208  13.139  0.8230  1.0358  0.2660
 9869TIP3   OH253801   1.626   1.209  11.928  0.2843 -0.2695 -0.5092
 9869TIP3    H153802   1.582   1.294  11.923 -0.8584 -0.8608 -0.5861
 9869TIP3    H253803   1.688   1.211  11.854 -0.7334 -0.0549 -1.3837
 9870TIP3   OH253804   6.470   2.015  12.006 -0.2616  0.1086  0.0751
 9870TIP3    H153805   6.429   2.101  12.003  1.0028  0.7101 -2.2727
 9870TIP3    H253806   6.448   1.981  12.093 -1.1345  2.6013  0.9157
 9871TIP3   OH253807   5.022   2.396  13.330  0.6516 -0.1116  0.7032
 9871TIP3    H153808   5.066   2.439  13.257  0.8199 -0.1613  0.7747
 9871TIP3    H253809   5.056   2.306  13.329  0.8090 -0.0576  0.9670
 9872TIP3   OH253810   0.430   7.072  11.717  0.2569  0.2361  0.0424
 9872TIP3    H153811   0.435   7.067  11.622 -0.9383 -0.7977  0.0118
 9872TIP3    H253812   0.497   7.010  11.747 -0.3182 -0.5024 -0.1586
 9873TIP3   OH253813   3.861   6.526  12.034  0.5830  0.0509  0.3907
 9873TIP3    H153814   3.868   6.433  12.054  1.1062 -0.2789 -1.1480
 9873TIP3    H253815   3.929   6.541  11.968 -0.5430  1.1600 -0.5762
 9874TIP3   OH253816   7.462   1.864  12.277  0.2003  0.2368  0.7742
 9874TIP3    H153817   7.493   1.848  12.188 -1.2712 -1.5590  0.5139
 9874TIP3    H253818   7.453   1.777  12.315 -3.0707  0.6757  1.2577
 9875TIP3   OH253819   0.303   3.338  12.513 -0.1399  0.2947 -0.4675
 9875TIP3    H153820   0.279   3.271  12.577 -1.2368 -0.0437 -1.1881
 9875TIP3    H253821   0.224   3.350  12.460  0.3667  1.4088 -1.0195
 9876TIP3   OH253822   4.127   8.119  12.293 -0.0767  0.0165 -0.6041
 9876TIP3    H153823   4.076   8.199  12.305  0.5858  0.1151  2.2092
 9876TIP3    H253824   4.076   8.067  12.231 -1.6750  1.6549 -0.7446
 9877TIP3   OH253825   5.411   8.213  12.397  0.0187 -0.0769  0.2974
 9877TIP3    H153826   5.441   8.204  12.307  1.5253 -3.2866  0.9790
 9877TIP3    H253827   5.326   8.170  12.398 -0.0951  0.1453  0.3867
 9878TIP3   OH253828   7.929   4.660  11.798 -0.4300 -0.1104  0.3646
 9878TIP3    H153829   8.022   4.674  11.780 -0.2412  0.5227  1.6782
 9878TIP3    H253830   7.928   4.605  11.877 -1.1684  0.2349  0.6064
 9879TIP3   OH253831   5.279   2.925  12.557  0.2461 -0.7326  0.8991
 9879TIP3    H153832   5.346   2.891  12.498  0.7190 -0.3788  1.2188
 9879TIP3    H253833   5.228   2.985  12.504  0.5097 -0.6103  0.7828
 9880TIP3   OH253834   3.797   4.796  11.609 -0.8280 -0.0577 -0.5164
 9880TIP3    H153835   3.815   4.719  11.555 -0.6043  0.2543 -0.8971
 9880TIP3    H253836   3.832   4.869  11.558 -0.5185  0.2336  0.1028
 9881TIP3   OH253837   8.403   0.908  11.930  0.0134  0.4679  0.4294
 9881TIP3    H153838   8.429   0.818  11.946 -2.4251 -0.2504  0.8093
 9881TIP3    H253839   8.352   0.905  11.850  3.1760  2.2785 -1.8864
 9882TIP3   OH253840   2.086   3.358  12.605  0.2675 -0.3693 -0.1492
 9882TIP3    H153841   2.034   3.404  12.539 -0.9884 -2.5206 -0.7657
 9882TIP3    H253842   2.141   3.299  12.554  1.0683 -0.3244  0.6547
 9883TIP3   OH253843   5.900   1.604  13.119  0.4868 -0.0641  0.1140
 9883TIP3    H153844   5.878   1.696  13.128 -2.6957 -0.7648  0.5243
 9883TIP3    H253845   5.970   1.590  13.183 -0.6643  1.5854  1.8646
 9884TIP3   OH253846   0.319   3.793  13.638 -0.1947 -0.3286  0.6788
 9884TIP3    H153847   0.377   3.859  13.599 -0.4050 -0.1416  0.6798
 9884TIP3    H253848   0.299   3.733  13.566  0.7072 -0.9039  0.8810
 9885TIP3   OH253849   0.018   8.227  12.145  0.4991 -0.2830  0.0405
 9885TIP3    H153850   0.111   8.238  12.161  0.2403  0.7313  0.9340
 9885TIP3    H253851   0.008   8.135  12.121  1.6301 -0.5646  0.6089
 9886TIP3   OH253852   5.808   6.702  12.366  0.1206  0.3745 -0.0975
 9886TIP3    H153853   5.796   6.793  12.391 -0.6277  0.8681 -2.0915
 9886TIP3    H253854   5.854   6.663  12.441 -0.3955  2.1231  1.2138
 9887TIP3   OH253855   2.711   8.026  12.520  0.0723  0.0314 -0.4217
 9887TIP3    H153856   2.796   7.984  12.507 -0.3744 -0.5301 -1.7155
 9887TIP3    H253857   2.667   7.971  12.585  0.4463 -0.0296 -0.2114
 9888TIP3   OH253858   7.174   9.175  12.710  0.0084 -0.3993  0.0119
 9888TIP3    H153859   7.243   9.140  12.654 -2.2837 -0.9742 -2.7008
 9888TIP3    H253860   7.123   9.099  12.737 -0.2670  0.1052  0.9802
 9889TIP3   OH253861   7.015   5.487  12.190  0.8793  0.3144  0.0796
 9889TIP3    H153862   7.098   5.466  12.232  0.6792  0.1911  0.4203
 9889TIP3    H253863   6.995   5.410  12.136  0.2202 -0.3371  1.2121
 9890TIP3   OH253864   7.246   0.060  12.320  0.1180 -0.2873 -0.1841
 9890TIP3    H153865   7.226   0.109  12.240 -0.3494 -0.1956 -0.0153
 9890TIP3    H253866   7.211   0.115  12.390 -0.3037 -0.8058  0.0164
 9891TIP3   OH253867   8.330   7.880  12.284 -0.4044 -0.3467  0.2884
 9891TIP3    H153868   8.265   7.925  12.230 -0.8159 -1.0456  0.2009
 9891TIP3    H253869   8.292   7.794  12.301  0.3111 -0.6069  0.5921
 9892TIP3   OH253870   0.618   8.691  12.632  0.7442 -0.2785 -0.1501
 9892TIP3    H153871   0.675   8.751  12.679 -0.0507 -1.0782  1.9541
 9892TIP3    H253872   0.677   8.637  12.579  1.4988  2.0662 -1.8657
 9893TIP3   OH253873   8.411   6.116  13.191  0.3874 -0.1473  0.0503
 9893TIP3    H153874   8.367   6.103  13.107  0.1642  1.7207 -0.1583
 9893TIP3    H253875   8.340   6.114  13.256  0.5464 -1.4660  0.2240
 9894TIP3   OH253876   3.388   6.264  12.353  0.1163 -0.1317  0.5159
 9894TIP3    H153877   3.465   6.208  12.365  0.0989 -0.1627  0.4865
 9894TIP3    H253878   3.376   6.306  12.438  1.6273  1.7565 -0.1319
 9895TIP3   OH253879   0.974   6.423  12.803 -0.3108 -0.0241  0.2388
 9895TIP3    H153880   0.885   6.402  12.778 -0.7288  0.4791  1.2562
 9895TIP3    H253881   0.968   6.508  12.846  0.8985  0.7605 -1.0650
 9896TIP3   OH253882   6.370   2.289  12.008 -0.0830  0.0434 -0.1699
 9896TIP3    H153883   6.432   2.314  12.076 -1.0095  1.3998  0.2036
 9896TIP3    H253884   6.364   2.366  11.951 -0.1290 -0.6945 -1.1949
 9897TIP3   OH253885   6.565   8.460  11.748  0.1617 -0.0871  0.0265
 9897TIP3    H153886   6.603   8.426  11.667  0.0601 -1.2336  0.4517
 9897TIP3    H253887   6.563   8.386  11.807 -1.1922  0.3473  0.5732
 9898TIP3   OH253888   8.232   1.176  13.391  0.3590 -0.4270 -0.3831
 9898TIP3    H153889   8.243   1.195  13.298 -1.8778  1.3666 -0.3716
 9898TIP3    H253890   8.281   1.245  13.436  0.0942 -0.3300 -0.2420
 9899TIP3   OH253891   4.195   2.169  12.536  0.0330 -0.1965  0.5208
 9899TIP3    H153892   4.117   2.191  12.486 -0.0160  0.0734  0.7121
 9899TIP3    H253893   4.233   2.093  12.491 -0.2876 -0.2689  0.3741
 9900TIP3   OH253894   6.687   6.510  13.164  0.5531 -0.1375 -0.2366
 9900TIP3    H153895   6.780   6.526  13.146  0.9406 -0.6425  1.1763
 9900TIP3    H253896   6.669   6.426  13.122  0.4418  0.4604 -1.4165
 9901TIP3   OH253897   7.992   3.834  11.470 -0.3463 -0.1713  0.2023
 9901TIP3    H153898   7.932   3.805  11.539  0.5817  1.8621  1.9824
 9901TIP3    H253899   7.971   3.927  11.459 -0.7095 -0.5086 -2.5865
 9902TIP3   OH253900   0.761   9.191  12.830 -0.0664 -0.5729  0.0995
 9902TIP3    H153901   0.843   9.206  12.784  0.7518 -1.9672  1.0099
 9902TIP3    H253902   0.700   9.255  12.794  0.8587 -0.8261 -2.0462
 9903TIP3   OH253903   1.641   8.584  12.254 -0.5409  0.3148 -0.5733
 9903TIP3    H153904   1.580   8.565  12.325 -0.3737 -0.3850 -0.6034
 9903TIP3    H253905   1.697   8.505  12.249  0.9109  1.2613  0.0280
 9904TIP3   OH253906   7.343   4.475  11.905  0.2051  0.0943  0.0718
 9904TIP3    H153907   7.420   4.490  11.960 -0.2294  0.1378  0.6790
 9904TIP3    H253908   7.269   4.497  11.961 -0.2533  0.0509 -0.5075
 9905TIP3   OH253909   2.642   3.085  13.078  0.4930  0.8011  0.3067
 9905TIP3    H153910   2.660   3.019  13.144 -0.8387 -0.3827 -0.4642
 9905TIP3    H253911   2.550   3.108  13.092 -0.0574 -0.0787 -1.6187
 9906TIP3   OH253912   3.670   7.901  12.991  0.5658  0.1948  0.2214
 9906TIP3    H153913   3.706   7.868  12.909  0.6323 -0.7126  0.6029
 9906TIP3    H253914   3.575   7.889  12.982  0.5498  0.3780  0.1527
 9907TIP3   OH253915   5.167   2.343  12.596  0.3274 -0.0195 -0.2251
 9907TIP3    H153916   5.176   2.438  12.584 -0.9610  0.4180  1.8135
 9907TIP3    H253917   5.072   2.328  12.591  0.5672 -1.3461 -1.2931
 9908TIP3   OH253918   6.461   2.882  11.587 -0.0623 -0.0397  0.7608
 9908TIP3    H153919   6.473   2.790  11.567 -1.2323 -0.7194  2.9029
 9908TIP3    H253920   6.390   2.911  11.529 -0.2818 -0.7099  0.6943
 9909TIP3   OH253921   2.837   8.167  12.179 -0.3694  0.0991 -0.0845
 9909TIP3    H153922   2.905   8.205  12.123  0.0470 -2.1159 -1.1838
 9909TIP3    H253923   2.884   8.103  12.232 -1.0070  1.1895  1.8833
 9910TIP3   OH253924   5.913   3.694  12.371 -0.1115 -0.1590 -0.3878
 9910TIP3    H153925   5.952   3.634  12.434 -2.0661 -1.6592 -0.5260
 9910TIP3    H253926   5.983   3.755  12.349  1.2407 -0.9323  1.5696
 9911TIP3   OH253927   4.477   0.592  11.988  0.0226 -1.0812 -0.0063
 9911TIP3    H153928   4.528   0.546  12.055 -1.2451 -0.4901  1.4280
 9911TIP3    H253929   4.401   0.536  11.974 -1.9074  0.7411  2.2761
 9912TIP3   OH253930   5.545   6.525  13.458  0.0339  0.2590  0.6686
 9912TIP3    H153931   5.518   6.548  13.547 -0.6656 -1.0710  0.8210
 9912TIP3    H253932   5.587   6.439  13.467  0.0362  0.1516 -0.2782
 9913TIP3   OH253933   8.730   0.692  11.807  0.0562  0.0776 -0.1091
 9913TIP3    H153934   8.652   0.647  11.839 -0.2581  1.1705  0.7189
 9913TIP3    H253935   8.782   0.708  11.886 -1.1806  3.6979  0.1148
 9914TIP3   OH253936   7.644   6.946  11.498 -0.0511 -0.3102 -0.2991
 9914TIP3    H153937   7.709   7.015  11.489  1.6475 -1.2781  3.0759
 9914TIP3    H253938   7.693   6.864  11.491 -1.4966 -1.1843 -0.9523
 9915TIP3   OH253939   8.782   1.464  14.003 -0.5803  0.2925 -1.2988
 9915TIP3    H153940   8.732   1.419  14.071 -2.2239 -0.6286 -3.0499
 9915TIP3    H253941   8.826   1.395  13.954  0.9001  0.9706 -0.9814
 9916TIP3   OH253942   0.811   4.512  12.777  0.1235  0.0005 -0.9231
 9916TIP3    H153943   0.774   4.598  12.799 -0.1863 -0.6324  1.3345
 9916TIP3    H253944   0.900   4.514  12.813 -0.8058 -1.5013  1.7529
 9917TIP3   OH253945   3.190   3.572  12.550  0.2084 -0.7641 -0.0769
 9917TIP3    H153946   3.281   3.546  12.538  0.2099 -0.9105  0.2411
 9917TIP3    H253947   3.175   3.564  12.644  0.1022  0.0606 -0.0171
 9918TIP3   OH253948   2.424   6.906  12.114 -0.4441 -0.3845 -0.1619
 9918TIP3    H153949   2.380   6.894  12.198 -0.5582  0.0666 -0.1513
 9918TIP3    H253950   2.362   6.957  12.061 -0.0613  0.0052 -0.2490
 9919TIP3   OH253951   4.680   6.171  13.186 -0.7995 -0.6225  0.4714
 9919TIP3    H153952   4.648   6.081  13.186  0.7287 -1.2087  1.4609
 9919TIP3    H253953   4.609   6.221  13.226 -2.0377 -1.1961 -0.8991
 9920TIP3   OH253954   2.872   3.750  12.257 -0.5103 -0.1159 -0.1495
 9920TIP3    H153955   2.967   3.751  12.246 -0.3526 -0.1049  1.1348
 9920TIP3    H253956   2.857   3.700  12.337 -1.6491 -0.9068 -0.8290
 9921TIP3   OH253957   1.415   8.397  13.730 -0.1617 -0.0020  0.3050
 9921TIP3    H153958   1.454   8.380  13.644 -1.9547  2.8493 -1.2214
 9921TIP3    H253959   1.395   8.310  13.765  0.5260 -1.2675 -2.2138
 9922TIP3   OH253960   4.208   5.690  12.466  0.2413  0.4658  0.3917
 9922TIP3    H153961   4.207   5.746  12.388 -3.2728  0.7595  0.4810
 9922TIP3    H253962   4.285   5.718  12.515  2.1007  0.8276 -2.5357
 9923TIP3   OH253963   1.636   0.493  12.541  0.0212  0.6752 -0.2130
 9923TIP3    H153964   1.601   0.576  12.509  0.5320  1.5107  1.3177
 9923TIP3    H253965   1.583   0.427  12.496 -1.3718  1.8354 -0.3859
 9924TIP3   OH253966   8.770   8.157  12.491  0.3216  0.4708  0.5963
 9924TIP3    H153967   8.859   8.124  12.484  0.0572 -0.0636 -0.5611
 9924TIP3    H253968   8.716   8.090  12.447 -0.8171  0.1425  2.3837
 9925TIP3   OH253969   5.431   2.308  12.298  0.1615 -0.2180 -0.1279
 9925TIP3    H153970   5.457   2.362  12.372  0.0572  1.3801 -1.2176
 9925TIP3    H253971   5.348   2.344  12.268  0.0011 -1.0853 -0.7888
 9926TIP3   OH253972   3.977   5.402  13.095 -0.1311 -0.3600 -0.6017
 9926TIP3    H153973   4.068   5.378  13.115  0.1486  2.2345  2.0080
 9926TIP3    H253974   3.928   5.320  13.106  1.7456 -1.6935 -1.4886
 9927TIP3   OH253975   5.751   0.739  11.884 -0.1813 -0.2191  0.1929
 9927TIP3    H153976   5.833   0.693  11.900 -0.3001 -0.1582  0.9860
 9927TIP3    H253977   5.690   0.701  11.947 -0.2322  1.1687  1.0071
 9928TIP3   OH253978   8.163   2.294  11.867 -0.6185  0.3279  0.4313
 9928TIP3    H153979   8.157   2.219  11.926  1.3644 -1.7889 -1.8535
 9928TIP3    H253980   8.244   2.339  11.895 -0.5320  0.2529  0.2987
 9929TIP3   OH253981   1.992   0.293  12.151 -0.2168 -0.1137 -0.6976
 9929TIP3    H153982   1.990   0.215  12.096  0.9052 -0.1972 -0.6264
 9929TIP3    H253983   2.083   0.320  12.153 -0.4372  0.6368  0.0811
 9930TIP3   OH253984   3.275   4.070  11.522  0.6016 -0.0621  0.0100
 9930TIP3    H153985   3.286   4.153  11.568  1.6688  0.4668 -1.1645
 9930TIP3    H253986   3.258   4.094  11.431  1.2962 -1.1206 -0.4226
 9931TIP3   OH253987   8.114   6.934  12.094 -0.1625  0.0829  0.7260
 9931TIP3    H153988   8.119   6.841  12.072  1.6987  0.4236 -0.5512
 9931TIP3    H253989   8.205   6.959  12.111 -0.6151  1.7105  0.9042
 9932TIP3   OH253990   8.350   6.931  13.112 -0.5942 -0.2397 -0.1164
 9932TIP3    H153991   8.292   6.880  13.057 -1.0598 -0.2006  0.3334
 9932TIP3    H253992   8.315   6.921  13.201  1.1031 -1.6898  0.4623
 9933TIP3   OH253993   2.590   1.531  12.670 -0.3969  0.1271  0.9106
 9933TIP3    H153994   2.668   1.586  12.673 -1.0959  1.2592 -0.3581
 9933TIP3    H253995   2.623   1.441  12.671  1.0700  0.5521 -1.5987
 9934TIP3   OH253996   0.556   6.902  12.409 -0.4436 -0.2410 -0.1430
 9934TIP3    H153997   0.515   6.984  12.435  1.1143  0.6926 -0.5458
 9934TIP3    H253998   0.491   6.860  12.353 -1.2081  0.7688 -0.0469
 9935TIP3   OH253999   4.857   5.537  11.836 -0.0749 -0.5532 -0.7543
 9935TIP3    H154000   4.792   5.481  11.877  1.6887 -2.4480 -0.3538
 9935TIP3    H254001   4.807   5.597  11.781 -2.1469 -1.5888 -0.0730
 9936TIP3   OH254002   0.785   6.116  12.553 -0.0514 -0.6010  1.0395
 9936TIP3    H154003   0.765   6.177  12.482 -0.0760  0.4832  1.9549
 9936TIP3    H254004   0.860   6.155  12.598 -0.5321 -0.8587  2.0913
 9937TIP3   OH254005   9.096   7.437  12.732  0.0002  0.0653  0.3982
 9937TIP3    H154006   9.132   7.496  12.665 -1.1017  1.7781  1.2430
 9937TIP3    H254007   9.136   7.353  12.713  2.3345  1.2485 -0.3506
 9938TIP3   OH254008   7.134   3.402  12.133  0.6910 -0.2765 -0.1206
 9938TIP3    H154009   7.158   3.320  12.089  2.1303 -0.3467  0.7530
 9938TIP3    H254010   7.163   3.471  12.073 -0.6418 -0.3632 -0.9198
 9939TIP3   OH254011   8.014   0.910  11.924 -0.3466 -0.5516  0.5210
 9939TIP3    H154012   8.012   0.922  11.829 -1.1112 -1.3939  0.4113
 9939TIP3    H254013   7.974   0.989  11.959  1.4198  0.5297  0.2615
 9940TIP3   OH254014   1.121   0.243  12.583 -0.4626  0.2601  0.0788
 9940TIP3    H154015   1.051   0.254  12.519  0.2766 -0.4662 -0.8820
 9940TIP3    H254016   1.092   0.172  12.639 -0.4700 -0.0855 -0.3606
 9941TIP3   OH254017   0.341   7.335  11.845 -0.8137  0.0890  0.3175
 9941TIP3    H154018   0.420   7.368  11.887 -1.3011  0.5232  0.9049
 9941TIP3    H254019   0.372   7.272  11.781 -0.0335 -0.2218  0.9944
 9942TIP3   OH254020   2.050   2.732  12.314 -0.1607 -0.4626 -0.0750
 9942TIP3    H154021   2.098   2.733  12.397 -0.6754  2.5547  0.3077
 9942TIP3    H254022   1.967   2.690  12.334 -0.3994  0.5004  1.0797
 9943TIP3   OH254023   6.931   4.882  12.025  0.5609  0.0248 -0.2855
 9943TIP3    H154024   6.904   4.904  12.114  0.0283 -0.8871 -0.2151
 9943TIP3    H254025   6.859   4.829  11.990  0.5175  0.7991 -1.4505
 9944TIP3   OH254026   6.970   8.426  12.165 -0.1201 -0.7080 -0.2951
 9944TIP3    H154027   7.007   8.416  12.253 -0.3274  1.2736  0.0473
 9944TIP3    H254028   7.045   8.448  12.110 -0.1640 -0.8101 -0.3963
 9945TIP3   OH254029   1.623   4.818  11.689 -0.3625  0.0154  0.1222
 9945TIP3    H154030   1.694   4.755  11.673  2.1670  2.7813 -0.4458
 9945TIP3    H254031   1.568   4.812  11.611  1.3403  0.3000 -1.1528
 9946TIP3   OH254032   7.375   3.524  12.884 -0.3585 -0.1863 -0.0218
 9946TIP3    H154033   7.435   3.487  12.949  0.7360 -2.1797 -2.0335
 9946TIP3    H254034   7.292   3.479  12.900 -0.1049 -0.6404  0.0551
 9947TIP3   OH254035   0.442   6.164  11.881  0.0282  0.1382 -0.3856
 9947TIP3    H154036   0.440   6.205  11.967  1.6969 -2.5293  1.0533
 9947TIP3    H254037   0.417   6.073  11.896 -2.3762  0.1714 -3.2257
 9948TIP3   OH254038   5.492   1.203  11.656 -0.1313  0.5492  0.1406
 9948TIP3    H154039   5.449   1.275  11.611 -1.9355 -0.7956 -0.3995
 9948TIP3    H254040   5.437   1.185  11.733 -1.0136 -1.6177 -0.9036
 9949TIP3   OH254041   8.742   0.463  12.364  0.5461 -0.8182  0.2390
 9949TIP3    H154042   8.795   0.533  12.325  1.4317 -1.0984  0.8919
 9949TIP3    H254043   8.759   0.386  12.310 -0.6993 -0.4727 -0.6870
 9950TIP3   OH254044   5.224   4.034  12.564  0.9639 -0.1957 -0.3319
 9950TIP3    H154045   5.214   3.950  12.608 -0.4762 -0.3960 -0.9956
 9950TIP3    H254046   5.147   4.085  12.589 -0.2492 -0.5413 -3.0052
 9951TIP3   OH254047   3.299   0.768  13.168  0.2108  0.7390  0.6611
 9951TIP3    H154048   3.227   0.824  13.198  0.0328  1.8847 -1.7204
 9951TIP3    H254049   3.258   0.683  13.152 -0.3380  1.0117  0.5939
 9952TIP3   OH254050   7.423   0.501  12.046 -0.2410  0.0537  0.3968
 9952TIP3    H154051   7.448   0.452  12.124  0.6442 -3.1476 -1.7305
 9952TIP3    H254052   7.332   0.475  12.029  0.0975 -0.5326 -0.5295
 9953TIP3   OH254053   1.498   2.265  12.189 -0.2111  0.1126  0.5628
 9953TIP3    H154054   1.470   2.206  12.259  1.7149 -0.9815  0.4903
 9953TIP3    H254055   1.492   2.211  12.110 -0.1416  0.6035  0.2226
 9954TIP3   OH254056   1.648   5.932  12.860 -0.9296 -0.3073 -0.0356
 9954TIP3    H154057   1.699   6.000  12.815  1.6715 -1.3197  1.2351
 9954TIP3    H254058   1.636   5.864  12.794  2.5942 -1.6497  0.5167
 9955TIP3   OH254059   5.282   0.631  12.573  0.0799  0.5404 -0.3101
 9955TIP3    H154060   5.289   0.554  12.516  0.3580  0.6998 -0.4924
 9955TIP3    H254061   5.204   0.614  12.626  0.8293 -0.4514  0.5263
 9956TIP3   OH254062   1.592   4.741  11.944  0.4024  0.2201 -0.3380
 9956TIP3    H154063   1.617   4.651  11.963 -0.5795 -0.1065 -0.5182
 9956TIP3    H254064   1.617   4.755  11.853 -3.1193 -1.3033 -1.7310
 9957TIP3   OH254065   9.144   3.766  12.068  0.2779  0.5214 -0.3282
 9957TIP3    H154066   9.057   3.746  12.035  0.3199 -0.0116 -0.1201
 9957TIP3    H254067   9.190   3.804  11.992 -0.0588  0.5915 -0.5001
 9958TIP3   OH254068   5.269   6.423  12.870  0.1310 -0.1840  0.1389
 9958TIP3    H154069   5.271   6.375  12.787  1.8658  0.0962 -0.0294
 9958TIP3    H254070   5.259   6.355  12.937 -0.9896 -0.4373 -0.2724
 9959TIP3   OH254071   2.084   4.844  12.906 -0.0123  0.3000  0.0424
 9959TIP3    H154072   2.001   4.875  12.942 -0.3203  0.2860 -0.6477
 9959TIP3    H254073   2.103   4.902  12.833 -0.5913 -1.0792 -1.2598
 9960TIP3   OH254074   1.576   7.709  12.915 -0.0824 -0.7947 -0.3317
 9960TIP3    H154075   1.628   7.763  12.856  0.7215  1.4864  2.2370
 9960TIP3    H254076   1.639   7.647  12.952  0.1778 -0.0929  0.4478
 9961TIP3   OH254077   1.304   1.765  13.570  0.0338 -0.4774  0.0872
 9961TIP3    H154078   1.322   1.701  13.502 -1.0212 -0.7751  0.0725
 9961TIP3    H254079   1.215   1.744  13.601 -0.2488  0.8188  0.2452
 9962TIP3   OH254080   2.095   4.348  13.127 -0.0109  0.3248  0.0148
 9962TIP3    H154081   2.058   4.372  13.212  1.1637  0.2633  0.5689
 9962TIP3    H254082   2.180   4.309  13.148 -0.5718 -1.6069 -1.0656
 9963TIP3   OH254083   3.038   0.632  12.694 -0.1089 -0.3790  0.1985
 9963TIP3    H154084   3.072   0.543  12.685  0.0385 -0.2743 -0.3203
 9963TIP3    H254085   3.092   0.672  12.763 -1.3467 -1.2445  1.7345
 9964TIP3   OH254086   4.229   6.487  13.041 -0.0342 -0.5333 -0.0253
 9964TIP3    H154087   4.204   6.415  12.983  0.1938  0.3647 -1.2820
 9964TIP3    H254088   4.309   6.457  13.083 -0.1151 -1.1422 -0.2878
 9965TIP3   OH254089   1.989   0.139  13.515  0.0227  0.1922 -0.3548
 9965TIP3    H154090   2.000   0.051  13.480  0.0920 -0.0684  0.3105
 9965TIP3    H254091   1.908   0.135  13.566 -1.2459  1.1269 -2.2003
 9966TIP3   OH254092   1.226   4.036  12.836 -0.0533 -0.8882 -0.4538
 9966TIP3    H154093   1.270   3.959  12.873  2.4752  1.1550  1.2164
 9966TIP3    H254094   1.216   4.096  12.911  0.2305  1.2932 -2.0501
 9967TIP3   OH254095   2.625   7.351  13.092 -0.3297 -0.1044 -0.2377
 9967TIP3    H154096   2.568   7.409  13.040 -2.1995 -0.1934  1.5985
 9967TIP3    H254097   2.683   7.410  13.140 -0.9075  0.1583  0.1428
 9968TIP3   OH254098   6.112   3.782  11.725 -0.6448  0.3380 -0.2118
 9968TIP3    H154099   6.158   3.773  11.642  0.2098  0.6295  0.2197
 9968TIP3    H254100   6.032   3.829  11.703 -0.3490  0.5512 -0.8442
 9969TIP3   OH254101   5.702   3.155  13.001  0.0380  0.4284 -0.1433
 9969TIP3    H154102   5.678   3.239  12.962 -1.2531  0.1978  0.0962
 9969TIP3    H254103   5.684   3.091  12.933  0.5629  0.2953 -0.1603
 9970TIP3   OH254104   0.652   1.549  12.726 -0.1637  0.0285  0.3700
 9970TIP3    H154105   0.608   1.482  12.674  0.4322 -0.7457  0.8414
 9970TIP3    H254106   0.639   1.522  12.817  0.7052  0.1370  0.5355
 9971TIP3   OH254107   5.073   6.821  12.739  0.1352  0.2487  0.8224
 9971TIP3    H154108   5.024   6.897  12.706  0.3121 -0.1371 -0.3926
 9971TIP3    H254109   5.010   6.773  12.792  0.0643  1.3155  1.7338
 9972TIP3   OH254110   4.011   0.059  12.029  0.2293  0.0850  0.0837
 9972TIP3    H154111   3.967   0.076  12.112 -1.2898 -0.6183 -0.5335
 9972TIP3    H254112   3.964  -0.016  11.993  0.2321  0.9540 -1.8393
 9973TIP3   OH254113   0.919   2.424  12.048  0.0852 -0.1444  0.7259
 9973TIP3    H154114   1.004   2.467  12.060  0.5684 -1.3690  1.8235
 9973TIP3    H254115   0.901   2.382  12.132 -1.9803  0.7055  0.7625
 9974TIP3   OH254116   7.172   6.985  12.073  0.2005 -0.0958 -0.0235
 9974TIP3    H154117   7.085   6.946  12.075  0.8449 -1.8570 -1.9655
 9974TIP3    H254118   7.213   6.959  12.155 -1.1692  1.0040  1.0388
 9975TIP3   OH254119   3.063   4.054  12.722  0.9191 -0.1973  0.1810
 9975TIP3    H154120   2.972   4.082  12.708  1.8788  1.9936 -2.7388
 9975TIP3    H254121   3.067   3.965  12.687 -0.0198 -0.2234  0.1189
 9976TIP3   OH254122   7.309   4.080  12.766  0.0305 -0.3258  0.0707
 9976TIP3    H154123   7.384   4.028  12.794  0.1449 -0.3777 -0.3274
 9976TIP3    H254124   7.333   4.113  12.680  0.0621  0.5898  0.4180
 9977TIP3   OH254125   2.945   9.114  13.427  0.0494 -0.2242 -0.0776
 9977TIP3    H154126   2.884   9.067  13.484  1.2316 -1.8398 -0.0637
 9977TIP3    H254127   2.889   9.159  13.364 -1.1791 -1.3233  0.1769
 9978TIP3   OH254128   9.077   5.535  13.484 -0.0903 -0.0201 -0.1500
 9978TIP3    H154129   9.140   5.584  13.537 -2.4884  1.9388  1.1454
 9978TIP3    H254130   9.100   5.556  13.394  1.9944 -0.6222  0.1874
 9979TIP3   OH254131   0.874   6.518  13.454 -0.4511  0.3021  0.4908
 9979TIP3    H154132   0.830   6.452  13.400 -0.4855  2.0680 -1.7600
 9979TIP3    H254133   0.959   6.478  13.475  0.0385 -0.0550 -1.8769
 9980TIP3   OH254134   1.290   0.828  11.957 -0.0765  0.0762 -0.0587
 9980TIP3    H154135   1.318   0.740  11.982  1.1455  0.2305 -0.8161
 9980TIP3    H254136   1.273   0.872  12.041  0.5896 -0.4799  0.3832
 9981TIP3   OH254137   2.252   0.128  11.902 -0.2095  0.6932  0.1835
 9981TIP3    H154138   2.321   0.085  11.851 -0.0467  0.6589  0.4317
 9981TIP3    H254139   2.265   0.221  11.884 -0.3601  0.6604 -0.0979
 9982TIP3   OH254140   5.550   1.621  11.981 -0.5607  0.1493  0.1316
 9982TIP3    H154141   5.582   1.545  11.934 -1.6002 -0.2939  0.1125
 9982TIP3    H254142   5.484   1.659  11.924 -1.4492 -0.0771  0.9764
 9983TIP3   OH254143   4.373   2.656  12.441  0.2609 -0.3311  0.3012
 9983TIP3    H154144   4.459   2.691  12.420  0.4532 -1.4535 -0.9295
 9983TIP3    H254145   4.333   2.637  12.355 -1.3120  0.3877  0.8312
 9984TIP3   OH254146   7.252   3.448  11.666 -0.0477  0.2546  0.8332
 9984TIP3    H154147   7.324   3.404  11.712  0.6282 -1.2820 -1.5209
 9984TIP3    H254148   7.283   3.536  11.650  1.3372 -0.3786 -0.1078
 9985TIP3   OH254149   7.839   1.346  12.358  0.5424  0.2643  0.1042
 9985TIP3    H154150   7.792   1.326  12.277 -0.7948  1.6695  0.4929
 9985TIP3    H254151   7.903   1.413  12.333  0.2968  0.5209  0.1649
 9986TIP3   OH254152   0.970   7.597  13.246  0.8420  0.4054 -0.2118
 9986TIP3    H154153   0.950   7.660  13.177  1.4906  2.2446  1.1735
 9986TIP3    H254154   0.992   7.651  13.322  1.3371 -1.5170  1.1024
 9987TIP3   OH254155   5.203   1.370  12.276  0.2198  0.3143  0.9638
 9987TIP3    H154156   5.114   1.369  12.241  0.7011  0.7532 -0.3447
 9987TIP3    H254157   5.213   1.459  12.311 -0.1219  0.0008  1.9090
 9988TIP3   OH254158   7.432   7.358  12.639 -0.0322 -0.5896 -0.3930
 9988TIP3    H154159   7.423   7.453  12.637 -1.2275 -0.7021 -1.9929
 9988TIP3    H254160   7.520   7.343  12.676  0.2631  1.1258 -0.3301
 9989TIP3   OH254161   0.439   2.595  12.521 -0.6512 -0.2322 -0.3375
 9989TIP3    H154162   0.468   2.532  12.586 -0.1292  0.6913  0.3454
 9989TIP3    H254163   0.355   2.627  12.554  0.9259  2.3668  1.4660
 9990TIP3   OH254164   2.515   4.161  12.909  1.1421  0.0450  0.2022
 9990TIP3    H154165   2.471   4.085  12.948  2.2223 -0.6010  0.2036
 9990TIP3    H254166   2.545   4.212  12.984  1.4845 -0.1628  0.2064
 9991TIP3   OH254167   0.210   0.128  12.541 -0.1248  0.1347 -0.6347
 9991TIP3    H154168   0.168   0.213  12.528  0.3080  0.5970  0.8195
 9991TIP3    H254169   0.297   0.138  12.504 -0.2740  0.1205 -0.9986
 9992TIP3   OH254170   5.913   8.893  11.796  0.6585 -0.4884  0.3762
 9992TIP3    H154171   5.950   8.933  11.874  0.6811 -1.2063  0.7402
 9992TIP3    H254172   5.954   8.940  11.723 -1.7476  2.4895  0.6949
 9993TIP3   OH254173   5.851   0.509  13.144  0.1651  0.7256  0.1671
 9993TIP3    H154174   5.841   0.588  13.198  1.4121  0.5771  0.6458
 9993TIP3    H254175   5.889   0.541  13.062  0.3966  0.6663  0.2499
 9994TIP3   OH254176   6.099   4.521  13.277 -0.3710  0.0385  0.0794
 9994TIP3    H154177   6.186   4.547  13.247  0.1159 -0.2715  1.1793
 9994TIP3    H254178   6.102   4.426  13.280 -0.5058  0.0482  0.7853
 9995TIP3   OH254179   8.486   2.878  12.088 -0.0501  0.1189  0.4473
 9995TIP3    H154180   8.491   2.952  12.148  1.0299 -0.4912  1.1484
 9995TIP3    H254181   8.520   2.912  12.005 -1.0250  0.8102  0.3141
 9996TIP3   OH254182   5.703   5.733  12.380  0.4131  0.3694 -0.2917
 9996TIP3    H154183   5.618   5.704  12.347 -0.0084 -0.6056  1.5218
 9996TIP3    H254184   5.766   5.673  12.339 -0.0248 -0.3728  0.0904
 9997TIP3   OH254185   4.925   6.518  12.939 -0.5034 -0.4980  0.2811
 9997TIP3    H154186   4.990   6.496  12.872  0.5590  0.3265  1.0038
 9997TIP3    H254187   4.855   6.563  12.891  1.0917  1.7484 -0.0926
 9998TIP3   OH254188   7.688   2.796  11.883  0.5194 -0.3635  0.6074
 9998TIP3    H154189   7.644   2.865  11.932  3.2962  0.0507  2.7789
 9998TIP3    H254190   7.703   2.726  11.948  2.7898 -0.5373 -0.0035
 9999TIP3   OH254191   7.222   1.130  13.172  0.1990 -0.5327 -0.0066
 9999TIP3    H154192   7.152   1.193  13.154  2.0517  1.7355  0.2145
 9999TIP3    H254193   7.301   1.184  13.179  1.7744 -2.8335  1.0645
10000TIP3   OH254194   3.596   8.509  12.457  0.1684 -0.5237 -0.0853
10000TIP3    H154195   3.638   8.487  12.374  0.3927 -1.0150  0.1508
10000TIP3    H254196   3.550   8.591  12.440 -0.0278 -0.7696 -0.7753
10001TIP3   OH254197   4.689   5.737  12.722  0.1099  0.3156 -0.2039
10001TIP3    H154198   4.719   5.646  12.717 -0.0327  0.3259 -2.1880
10001TIP3    H254199   4.597   5.733  12.697 -1.0215  0.5941  3.4016
10002TIP3   OH254200   1.235   5.506  13.515 -0.0666  0.2167  0.0126
10002TIP3    H154201   1.172   5.441  13.485 -0.5385  0.1652  1.0446
10002TIP3    H254202   1.308   5.455  13.550 -0.5021  0.2199  0.9577
10003TIP3   OH254203   1.238   8.180  13.022  0.1006  0.5021  0.2097
10003TIP3    H154204   1.193   8.096  13.026  1.0770 -0.0247  0.6808
10003TIP3    H254205   1.188   8.237  13.080  1.6377 -0.9015  3.1302
10004TIP3   OH254206   9.175   3.838  13.770 -0.3840 -0.3819 -0.3794
10004TIP3    H154207   9.103   3.873  13.823 -0.8762 -1.7374 -0.1223
10004TIP3    H254208   9.211   3.915  13.726  0.5809  1.0070  2.5087
10005TIP3   OH254209   0.721   8.168  12.428  0.1141 -0.0033 -0.1727
10005TIP3    H154210   0.812   8.188  12.453 -0.0575  2.7974 -1.4004
10005TIP3    H254211   0.720   8.073  12.416  3.1318 -0.0317 -0.9938
10006TIP3   OH254212   8.497   7.730  12.987  0.4572  0.3541  0.3125
10006TIP3    H154213   8.523   7.737  13.078  1.3183 -0.7888  0.1781
10006TIP3    H254214   8.568   7.772  12.938 -0.4743  1.8520  0.2023
10007TIP3   OH254215   4.853   0.258  12.539 -0.2013  0.6384  0.4804
10007TIP3    H154216   4.811   0.343  12.551 -1.4711  0.1126 -0.0663
10007TIP3    H254217   4.898   0.265  12.454 -0.7633  0.5968  0.1743
10008TIP3   OH254218   3.459   2.029  13.650 -0.7161 -0.3420 -0.9717
10008TIP3    H154219   3.429   1.971  13.719 -1.5453  0.7270 -0.4072
10008TIP3    H254220   3.484   1.970  13.578  2.0379 -1.6385  0.8582
10009TIP3   OH254221   7.676   1.930  13.269 -0.6089  0.0030  0.0348
10009TIP3    H154222   7.641   1.841  13.261 -1.0197 -0.0680  2.0394
10009TIP3    H254223   7.771   1.918  13.268 -0.6514 -0.3360 -0.6804
10010TIP3   OH254224   9.147   5.537  13.216  0.4226 -0.5269 -0.1210
10010TIP3    H154225   9.203   5.467  13.250  0.7367 -0.3748 -0.3237
10010TIP3    H254226   9.184   5.557  13.130 -0.2208 -0.7481 -0.4582
10011TIP3   OH254227   3.927   3.419  13.022 -0.1586 -0.0783 -0.7756
10011TIP3    H154228   4.013   3.461  13.029  0.0812 -0.8006  0.9410
10011TIP3    H254229   3.870   3.473  13.077 -0.4340 -0.5500 -0.6005
10012TIP3   OH254230   4.364   8.481  12.722  0.0432 -0.1185 -0.0051
10012TIP3    H154231   4.411   8.523  12.649  1.8937  1.0320  1.7537
10012TIP3    H254232   4.399   8.391  12.723  0.3399 -0.0095 -0.2686
10013TIP3   OH254233   0.710   0.416  11.567  0.1821  0.0679 -0.7421
10013TIP3    H154234   0.630   0.467  11.577 -0.4791 -0.8395 -1.2918
10013TIP3    H254235   0.684   0.341  11.513  0.9579 -1.2064  0.5934
10014TIP3   OH254236   2.991   3.313  12.245 -0.3893 -0.3508  0.1419
10014TIP3    H154237   3.082   3.314  12.217 -0.3521  0.7667  0.2598
10014TIP3    H254238   2.945   3.266  12.175  0.1306 -0.0577 -0.4051
10015TIP3   OH254239   4.147   1.189  13.056 -0.4580 -0.2005  0.7385
10015TIP3    H154240   4.160   1.095  13.066 -1.9819 -0.4156  0.8685
10015TIP3    H254241   4.069   1.197  13.002  0.7517  1.0094 -0.9552
10016TIP3   OH254242   7.628   4.633  11.859 -0.3066 -0.8829 -0.1463
10016TIP3    H154243   7.716   4.639  11.821 -0.3210  2.4577  0.0103
10016TIP3    H254244   7.635   4.681  11.942 -2.0001 -1.6622  0.4792
10017TIP3   OH254245   5.895   7.735  12.195 -0.2217 -0.2667 -0.5359
10017TIP3    H154246   5.829   7.698  12.254  0.6179 -0.8287  0.0789
10017TIP3    H254247   5.847   7.795  12.139 -0.9147  0.9551  1.2936
10018TIP3   OH254248   3.957   5.750  12.713  0.7817 -0.3334  0.3718
10018TIP3    H154249   4.043   5.729  12.748  0.5329  1.2793  2.0886
10018TIP3    H254250   3.896   5.716  12.779  0.2022  0.5423  0.3043
10019TIP3   OH254251   7.591   0.979  13.164 -0.1831 -0.4496 -0.2079
10019TIP3    H154252   7.603   0.971  13.259 -1.8769  1.9880  0.3154
10019TIP3    H254253   7.534   0.905  13.141  0.5653 -1.2969  0.5814
10020TIP3   OH254254   4.259   0.123  12.159  0.0864 -0.1683 -0.2937
10020TIP3    H154255   4.288   0.040  12.196 -0.5731  0.8689  2.8276
10020TIP3    H254256   4.178   0.102  12.113 -0.7478 -1.1179  1.5163
10021TIP3   OH254257   4.835   3.520  11.726  1.0157 -0.5569 -0.4743
10021TIP3    H154258   4.803   3.430  11.737 -0.5012 -0.2653 -2.0187
10021TIP3    H254259   4.925   3.510  11.698  1.5477 -1.5075  1.4286
10022TIP3   OH254260   6.362   3.027  12.456  0.2354 -0.3688  0.0284
10022TIP3    H154261   6.424   2.955  12.441  0.2051 -0.3155 -0.3593
10022TIP3    H254262   6.334   3.015  12.547  2.2522  0.7187  0.8582
10023TIP3   OH254263   6.612   4.838  12.778  0.5215  0.3545  0.5919
10023TIP3    H154264   6.576   4.765  12.728  1.7131 -0.4833  0.8988
10023TIP3    H254265   6.701   4.847  12.746  0.9176  0.5864  1.7103
10024TIP3   OH254266   4.653   3.529  11.506 -0.4364  0.0122 -0.2071
10024TIP3    H154267   4.714   3.541  11.579 -1.0903 -0.9724  0.5267
10024TIP3    H254268   4.617   3.617  11.490 -0.1417  0.2719  0.5247
10025TIP3   OH254269   0.343   1.346  11.631 -0.0855  0.4073 -0.2847
10025TIP3    H154270   0.317   1.437  11.614  0.1372  0.3191 -1.1377
10025TIP3    H254271   0.427   1.336  11.587  0.0424 -0.1291  0.0689
10026TIP3   OH254272   7.587   0.371  11.515 -0.0272 -0.2606  0.4480
10026TIP3    H154273   7.667   0.391  11.562 -0.4342  0.4629  0.8397
10026TIP3    H254274   7.600   0.407  11.427 -1.2084  2.9569  1.4603
10027TIP3   OH254275   7.798   7.678  11.710 -0.3668 -0.6144 -0.8710
10027TIP3    H154276   7.832   7.649  11.795 -0.3810 -0.3568 -0.7752
10027TIP3    H254277   7.852   7.633  11.645  1.2286  0.9630 -0.7331
10028TIP3   OH254278   3.754   5.582  12.103 -0.5553 -0.0218  0.4680
10028TIP3    H154279   3.814   5.507  12.095  0.6592  0.8318  1.2391
10028TIP3    H254280   3.687   5.566  12.037 -0.1253 -1.6113  0.3663
10029TIP3   OH254281   3.600   5.148  13.308 -0.0372 -0.4149  0.0322
10029TIP3    H154282   3.566   5.236  13.296  0.7255 -0.3187 -1.7183
10029TIP3    H254283   3.523   5.092  13.305 -0.3717  0.0634 -0.5898
10030TIP3   OH254284   5.746   2.220  11.849  0.4697 -0.4351 -0.2883
10030TIP3    H154285   5.761   2.291  11.912 -1.6572  0.2916 -0.5320
10030TIP3    H254286   5.805   2.150  11.877  1.3695  0.7949  0.9944
10031TIP3   OH254287   3.580   1.809  11.609 -0.2372  0.1502 -0.3538
10031TIP3    H154288   3.486   1.812  11.591 -0.5282 -2.1334  0.4362
10031TIP3    H254289   3.586   1.808  11.704  0.5885  0.2350 -0.3960
10032TIP3   OH254290   2.617   5.515  13.070  0.4264  0.4557  0.7304
10032TIP3    H154291   2.619   5.503  12.975  2.7673 -1.0346  0.8844
10032TIP3    H254292   2.525   5.506  13.094 -0.1501  0.3876 -1.3369
10033TIP3   OH254293   5.308   7.355  12.757 -0.7864  0.4354  0.5037
10033TIP3    H154294   5.293   7.298  12.832 -0.7289  0.7815  0.7827
10033TIP3    H254295   5.228   7.349  12.705 -1.3563  1.1779  1.2518
10034TIP3   OH254296   0.324   4.006  12.810 -0.2266  0.6737  0.8393
10034TIP3    H154297   0.336   3.991  12.716  2.0159  0.6213  1.0940
10034TIP3    H254298   0.241   3.962  12.830  0.4412 -1.4489 -0.6509
10035TIP3   OH254299   2.235   6.645  11.973 -0.4128 -0.0030 -0.0993
10035TIP3    H154300   2.222   6.704  12.047 -0.7911 -1.5476  1.1030
10035TIP3    H254301   2.329   6.629  11.972 -0.5218 -0.7583  0.6913
10036TIP3   OH254302   6.467   0.806  11.820 -0.4003  0.1539  0.1314
10036TIP3    H154303   6.555   0.773  11.799 -0.9997 -1.2974 -0.2345
10036TIP3    H254304   6.459   0.791  11.914  0.1380  1.3132  0.3760
10037TIP3   OH254305   3.122   6.074  12.897 -0.4295  0.3477  0.3072
10037TIP3    H154306   3.079   6.134  12.958  1.1396  1.8228  0.0143
10037TIP3    H254307   3.144   5.997  12.950  1.1290  1.6973  1.6960
10038TIP3   OH254308   7.316   2.165  13.117 -0.4994  1.0681 -0.4102
10038TIP3    H154309   7.395   2.178  13.168 -0.6541  0.4333  0.0025
10038TIP3    H254310   7.252   2.224  13.156 -0.3231  1.3395 -0.5327
10039TIP3   OH254311   7.444   1.617  12.729 -0.2259 -0.4197  0.5698
10039TIP3    H154312   7.530   1.581  12.749 -0.3381 -0.8572  0.2653
10039TIP3    H254313   7.462   1.691  12.671 -0.1619 -1.6578 -1.0579
10040TIP3   OH254314   0.485   3.537  12.398  0.6928  0.1937  0.3939
10040TIP3    H154315   0.441   3.482  12.463  0.3547 -0.6091 -0.4963
10040TIP3    H254316   0.523   3.608  12.449  1.5865 -1.1304  1.6544
10041TIP3   OH254317   6.701   1.149  12.019  0.3433 -0.3600  0.7781
10041TIP3    H154318   6.764   1.198  11.966 -1.1481  0.4209 -0.3278
10041TIP3    H254319   6.664   1.215  12.078 -0.0519 -0.6433  0.8452
10042TIP3   OH254320   7.138   7.942  12.635 -0.4299 -0.3938  0.1886
10042TIP3    H154321   7.153   8.035  12.618  0.3737 -0.5447 -0.0193
10042TIP3    H254322   7.114   7.938  12.727  0.8111 -0.0876  0.5484
10043TIP3   OH254323   3.199   6.363  13.771  0.5377 -0.5087  0.3073
10043TIP3    H154324   3.122   6.378  13.716 -0.8835 -0.5210  2.2000
10043TIP3    H254325   3.174   6.396  13.857  3.0081  0.3125  0.7850
10044TIP3   OH254326   2.602   1.737  12.899 -0.3543  0.4123  0.2000
10044TIP3    H154327   2.546   1.725  12.822 -1.2252 -0.5443  0.9512
10044TIP3    H254328   2.690   1.746  12.864 -0.3907 -2.3389 -0.8414
10045TIP3   OH254329   7.992   5.667  13.637  0.0703  0.3480 -0.9234
10045TIP3    H154330   8.020   5.622  13.558 -0.1074 -0.5975 -0.4638
10045TIP3    H254331   7.897   5.659  13.637  0.1314 -0.5556 -0.1098
10046TIP3   OH254332   6.753   6.499  12.441 -0.2948  0.0825  0.2205
10046TIP3    H154333   6.835   6.531  12.403 -0.3113  0.2494  0.3234
10046TIP3    H254334   6.780   6.446  12.515 -0.2968  0.5857  0.5863
10047TIP3   OH254335   4.015   4.497  12.535  0.0148 -0.6204  0.0839
10047TIP3    H154336   4.023   4.575  12.589 -0.6730 -1.1366  0.9586
10047TIP3    H254337   4.076   4.511  12.462 -1.3381  1.4899 -0.7215
10048TIP3   OH254338   1.264   2.800  12.566  0.1275 -0.0569  0.1192
10048TIP3    H154339   1.316   2.880  12.562 -1.7153  1.1781 -0.3168
10048TIP3    H254340   1.305   2.748  12.635  1.4839  1.1683  0.2777
10049TIP3   OH254341   5.617   4.340  13.406 -0.2280 -0.5437  0.5517
10049TIP3    H154342   5.633   4.272  13.472 -2.0373 -2.8496 -1.2132
10049TIP3    H254343   5.532   4.376  13.429 -1.2995 -2.0085 -0.9604
10050TIP3   OH254344   4.559   3.546  12.322  0.6644 -0.2403 -0.0686
10050TIP3    H154345   4.551   3.611  12.392  0.5576 -0.0614 -0.2484
10050TIP3    H254346   4.476   3.499  12.324  0.5180  0.0085 -0.3205
10051TIP3   OH254347   2.171   1.764  11.495  0.3494  0.3714 -0.1237
10051TIP3    H154348   2.252   1.774  11.545  1.3053 -2.5307 -0.8896
10051TIP3    H254349   2.137   1.678  11.522 -2.0159  1.1160 -0.5046
10052TIP3   OH254350   1.311   5.708  12.323  0.2385 -0.2267 -0.5129
10052TIP3    H154351   1.224   5.748  12.323  0.6109  0.6028 -0.3204
10052TIP3    H254352   1.342   5.718  12.232  0.3534 -0.0270 -0.4516
10053TIP3   OH254353   0.510   1.961  11.238  0.0126 -0.2991  0.2253
10053TIP3    H154354   0.448   1.978  11.309  0.1195  0.3864  0.1605
10053TIP3    H254355   0.528   2.047  11.200  2.1828 -0.2405  1.2138
10054TIP3   OH254356   4.891   8.882  12.411 -0.2700  0.1295  0.2216
10054TIP3    H154357   4.859   8.915  12.327  0.2046 -1.2836 -0.5595
10054TIP3    H254358   4.820   8.901  12.473 -0.2619  1.9881 -0.2853
10055TIP3   OH254359   1.552   2.422  12.860  0.0849 -0.1236  0.2361
10055TIP3    H154360   1.502   2.503  12.845  0.4936  0.2240  0.7020
10055TIP3    H254361   1.512   2.384  12.939 -0.4092 -0.6220 -0.2487
10056TIP3   OH254362   2.408   5.127  11.654 -0.0563  0.9788 -0.1741
10056TIP3    H154363   2.341   5.062  11.675 -1.0308  1.8524 -0.4659
10056TIP3    H254364   2.412   5.183  11.731  1.2121  0.2307  0.3154
10057TIP3   OH254365   5.279   4.044  11.582  0.3097  0.2783  0.1507
10057TIP3    H154366   5.302   3.972  11.641  1.5757 -0.4368 -1.1547
10057TIP3    H254367   5.358   4.057  11.528 -1.7769 -1.3691 -3.6734
10058TIP3   OH254368   0.156   2.261  12.473  0.1310  0.5326 -0.0430
10058TIP3    H154369   0.076   2.231  12.517 -0.1679 -0.8026 -1.4034
10058TIP3    H254370   0.227   2.238  12.533 -0.2455 -1.4541 -0.2874
10059TIP3   OH254371   0.846   7.155  12.436 -0.2290 -0.5166  0.2163
10059TIP3    H154372   0.754   7.177  12.454  0.4216  1.5282  1.3107
10059TIP3    H254373   0.886   7.238  12.413  1.6162 -1.1829  0.8687
10060TIP3   OH254374   6.442   0.958  12.696  0.4054  0.1416 -0.3606
10060TIP3    H154375   6.460   0.933  12.786 -1.7294 -2.8854 -0.6226
10060TIP3    H254376   6.502   1.031  12.678  0.9027  0.8379  3.4343
10061TIP3   OH254377   7.493   5.008  12.196  0.1738 -0.2347 -0.1732
10061TIP3    H154378   7.422   5.016  12.260 -0.6688 -0.7192 -1.0195
10061TIP3    H254379   7.566   5.056  12.235 -1.2447  2.0803 -0.1818
10062TIP3   OH254380   3.095   8.418  13.006  0.8092  0.4574 -0.0177
10062TIP3    H154381   3.095   8.469  12.925 -1.0236 -1.1740 -1.1230
10062TIP3    H254382   3.088   8.327  12.978  1.7074 -0.2918  1.9611
10063TIP3   OH254383   0.116   4.306  12.813  0.3423  0.0740 -0.3095
10063TIP3    H154384   0.039   4.360  12.832  0.4070 -0.2050  0.8112
10063TIP3    H254385   0.180   4.368  12.778  0.3139  0.6863  0.6796
10064TIP3   OH254386   8.528   1.476  12.598  0.1930 -0.5821 -0.3488
10064TIP3    H154387   8.465   1.501  12.666  0.1496 -1.0441 -0.2154
10064TIP3    H254388   8.535   1.554  12.543 -1.3880 -0.8956 -1.0457
10065TIP3   OH254389   0.229   3.360  13.795  0.0015  0.4535 -0.3247
10065TIP3    H154390   0.141   3.324  13.807  0.3731  0.1222  1.6546
10065TIP3    H254391   0.215   3.454  13.787 -0.5028  0.4551  0.5032
10066TIP3   OH254392   7.299   4.106  11.929 -0.0759  0.3151 -0.0243
10066TIP3    H154393   7.224   4.096  11.870  0.7618 -1.9158 -0.8321
10066TIP3    H254394   7.274   4.177  11.988 -3.0402 -0.6694  0.0676
10067TIP3   OH254395   3.245   1.628  12.472  0.9192 -0.1584 -0.6173
10067TIP3    H154396   3.182   1.679  12.524  1.0463  0.3889 -0.9864
10067TIP3    H254397   3.328   1.673  12.486  0.9725 -0.0616 -1.2095
10068TIP3   OH254398   4.026   1.140  12.593  0.6837 -0.0683  0.5381
10068TIP3    H154399   3.964   1.133  12.665  0.5606  1.4996  0.6022
10068TIP3    H254400   4.074   1.056  12.595 -0.6903 -0.8758  1.1326
10069TIP3   OH254401   8.704   6.144  11.718 -0.3764 -0.1594 -0.3773
10069TIP3    H154402   8.792   6.159  11.752  0.3314 -3.6901 -0.2304
10069TIP3    H254403   8.717   6.132  11.624 -0.4033 -2.1102 -0.1653
10070TIP3   OH254404   6.045   1.383  12.695  0.2933 -0.0242 -0.7036
10070TIP3    H154405   6.013   1.464  12.655  1.4487  1.7450  1.6791
10070TIP3    H254406   6.110   1.413  12.759 -0.6228 -2.7021  1.6505
10071TIP3   OH254407   6.258   8.560  12.452  0.2901  0.5458 -0.0317
10071TIP3    H154408   6.337   8.606  12.482  0.3421 -0.6337  1.8232
10071TIP3    H254409   6.186   8.615  12.483  0.3758  0.2818  0.6676
10072TIP3   OH254410   4.847   1.672  13.294  0.5531 -0.4392  0.3723
10072TIP3    H154411   4.877   1.654  13.205  0.7035 -2.9425  0.8460
10072TIP3    H254412   4.766   1.722  13.283  1.3934  0.6526 -1.0951
10073TIP3   OH254413   8.559   8.799  12.572  0.1244  0.0986  0.3579
10073TIP3    H154414   8.476   8.805  12.619  0.0642 -1.5945  0.5295
10073TIP3    H254415   8.625   8.833  12.633 -0.2261 -0.1260  0.8644
10074TIP3   OH254416   5.982   1.585  12.527 -0.9972  0.3135  0.1678
10074TIP3    H154417   5.899   1.567  12.482 -0.5100 -0.4541 -0.4522
10074TIP3    H254418   6.047   1.586  12.457 -0.1673 -1.2439  0.8799
10075TIP3   OH254419   7.949   0.679  13.271 -0.2931  0.1904 -0.3006
10075TIP3    H154420   7.989   0.649  13.353  0.2457 -0.7130 -0.8661
10075TIP3    H254421   7.957   0.774  13.273  3.3246  0.0233 -1.0490
10076TIP3   OH254422   1.947   3.280  13.016  0.1718 -0.6650  0.1437
10076TIP3    H154423   1.919   3.312  13.102 -0.6738  0.6920 -0.6015
10076TIP3    H254424   1.866   3.257  12.970  0.4890  0.0103 -0.7945
10077TIP3   OH254425   6.605   1.343  12.194  0.5612  0.1355  0.2905
10077TIP3    H154426   6.565   1.312  12.275 -0.7498  0.6582 -0.1333
10077TIP3    H254427   6.618   1.437  12.208 -1.1437  0.5418 -0.6621
10078TIP3   OH254428   3.700   3.888  13.129  0.7350  0.3853 -0.1077
10078TIP3    H154429   3.731   3.879  13.039 -2.3098 -0.9510 -1.1732
10078TIP3    H254430   3.673   3.980  13.135 -2.2977 -0.2447 -1.9006
10079TIP3   OH254431   7.175   6.856  11.831 -0.0786  0.1579  0.5668
10079TIP3    H154432   7.189   6.877  11.924  0.6513 -0.6701  0.6590
10079TIP3    H254433   7.139   6.767  11.832  1.0887 -0.3480  0.0297
10080TIP3   OH254434   2.720   2.804  12.465  0.5927  0.7501 -0.3589
10080TIP3    H154435   2.688   2.798  12.375  1.4721  1.1525 -0.7178
10080TIP3    H254436   2.719   2.897  12.485 -0.9166  0.5576  0.5638
10081TIP3   OH254437   2.116   4.972  12.620 -0.3768 -0.1169  0.1834
10081TIP3    H154438   2.137   5.065  12.626 -2.3715  0.2710  2.4273
10081TIP3    H254439   2.077   4.962  12.533  0.3429  1.0224 -0.2898
10082TIP3   OH254440   1.546   0.004  11.805 -0.2057  0.0019 -0.9656
10082TIP3    H154441   1.635   0.030  11.826 -0.1617 -0.6985 -0.2376
10082TIP3    H254442   1.553  -0.037  11.718  0.4945 -1.5686 -0.2051
10083TIP3   OH254443   7.938   7.184  11.915  0.3809  0.8199 -0.2986
10083TIP3    H154444   7.878   7.254  11.888  1.0425  2.1102  1.4075
10083TIP3    H254445   7.994   7.170  11.839 -1.2133  0.4989 -1.4709
10084TIP3   OH254446   5.860   0.386  12.809  0.1640 -0.3202 -0.3526
10084TIP3    H154447   5.896   0.454  12.865  0.3193  0.3389 -1.2343
10084TIP3    H254448   5.825   0.321  12.870  1.8020 -0.4330  0.5220
10085TIP3   OH254449   6.226   2.949  11.460 -0.1564  0.2404 -0.1260
10085TIP3    H154450   6.150   2.903  11.496  0.3155 -0.1301  0.4114
10085TIP3    H254451   6.227   2.924  11.367 -0.0800 -0.6079  0.0953
10086TIP3   OH254452   1.868   5.511  13.643 -0.3363 -0.3770 -0.1097
10086TIP3    H154453   1.820   5.509  13.726 -0.6177 -1.2132 -0.2881
10086TIP3    H254454   1.851   5.426  13.603  1.0091 -0.5622 -0.3418
10087TIP3   OH254455   4.446   3.737  11.666 -0.4740 -0.2356 -0.6100
10087TIP3    H154456   4.472   3.662  11.720 -0.4098 -0.7526 -1.3462
10087TIP3    H254457   4.389   3.700  11.599 -0.9031  0.4700 -0.6389
10088TIP3   OH254458   7.389   8.026  11.390  0.3252 -0.2708 -0.5308
10088TIP3    H154459   7.427   8.114  11.397  0.6884 -0.5629  2.8550
10088TIP3    H254460   7.453   7.977  11.338  1.8133  0.6798  0.3205
10089TIP3   OH254461   3.276   4.861  12.215 -0.1034  0.7818  0.5230
10089TIP3    H154462   3.188   4.825  12.223 -0.5759  1.5134 -0.9355
10089TIP3    H254463   3.308   4.827  12.132  2.0569 -1.5471  2.1568
10090TIP3   OH254464   5.653   5.032  12.118 -0.4360  0.2545 -0.7226
10090TIP3    H154465   5.734   4.997  12.080 -0.1208  1.1214 -0.8585
10090TIP3    H254466   5.671   5.040  12.211 -0.4010  0.3590 -0.7388
10091TIP3   OH254467   6.601   0.472  11.398  0.3816 -0.1465  0.4069
10091TIP3    H154468   6.608   0.567  11.408 -0.5778 -0.0898  0.6721
10091TIP3    H254469   6.506   0.455  11.392  0.5468 -1.0584  0.0835
10092TIP3   OH254470   4.865   0.776  12.476  0.1980 -0.4004 -0.2754
10092TIP3    H154471   4.849   0.727  12.395  1.6310 -1.1693 -0.1323
10092TIP3    H254472   4.960   0.787  12.478  0.1394  0.0125  1.0703
10093TIP3   OH254473   7.738   5.802  12.734  0.3607 -0.0635 -0.2140
10093TIP3    H154474   7.700   5.877  12.781 -0.3505 -0.0322 -0.8322
10093TIP3    H254475   7.735   5.828  12.642  1.0544 -0.4405 -0.3466
10094TIP3   OH254476   3.475   2.952  12.864  0.1937 -0.3527 -0.1820
10094TIP3    H154477   3.489   2.867  12.906 -0.0188 -0.4203 -0.2458
10094TIP3    H254478   3.470   3.014  12.937 -1.1524 -0.6059 -0.0309
10095TIP3   OH254479   2.186   6.902  13.855 -0.0436  0.1365  0.4584
10095TIP3    H154480   2.211   6.988  13.823  0.4061  1.2407  3.5019
10095TIP3    H254481   2.266   6.850  13.852 -0.5086 -0.5740 -2.2455
10096TIP3   OH254482   1.705   5.489  12.626  0.3706  0.0789  0.1980
10096TIP3    H154483   1.764   5.480  12.552 -0.3936  0.6313 -0.4923
10096TIP3    H254484   1.763   5.487  12.703  1.3490  1.1623 -0.4773
10097TIP3   OH254485   9.109   0.194  12.173  0.3136  0.1788 -0.0111
10097TIP3    H154486   9.145   0.172  12.087 -0.4221 -0.3590 -0.1890
10097TIP3    H254487   9.101   0.109  12.217  1.8632  0.5529  1.0734
10098TIP3   OH254488   4.298   7.136  13.432 -0.1499  0.1793  0.3228
10098TIP3    H154489   4.386   7.157  13.464 -0.2419 -1.1739  1.5672
10098TIP3    H254490   4.245   7.211  13.459  0.6984  1.2698 -0.9302
10099TIP3   OH254491   1.829   3.419  11.865 -0.2723 -0.0117  0.2118
10099TIP3    H154492   1.924   3.432  11.874 -0.4622  0.3437  2.1488
10099TIP3    H254493   1.800   3.488  11.806  0.4170  1.1126  1.1488
10100TIP3   OH254494   2.959   1.867  12.492 -0.2346 -1.2174 -0.2670
10100TIP3    H154495   2.935   1.875  12.400  0.3787 -1.7083 -0.4722
10100TIP3    H254496   3.014   1.943  12.509  0.0293 -1.3745 -0.4238
10101TIP3   OH254497   1.546   8.359  13.485 -0.2056  0.6176  0.1075
10101TIP3    H154498   1.611   8.427  13.501 -1.7513  1.8686  1.3924
10101TIP3    H254499   1.521   8.372  13.393  1.0766  0.3456 -0.2926
10102TIP3   OH254500   1.705   3.122  12.449  0.7751 -0.4256  0.6592
10102TIP3    H154501   1.618   3.163  12.447  0.9743  0.0167  0.9103
10102TIP3    H254502   1.710   3.073  12.367 -0.1177 -1.3183  1.1110
10103TIP3   OH254503   3.381   2.801  12.512  0.2614  0.1012  0.4569
10103TIP3    H154504   3.410   2.750  12.587 -0.0955 -0.5988  0.1261
10103TIP3    H254505   3.286   2.788  12.510 -0.0079  1.7052  1.0529
10104TIP3   OH254506   4.468   2.834  13.142  0.4515  0.4950  0.3510
10104TIP3    H154507   4.545   2.778  13.147  0.9400  1.0228 -0.8903
10104TIP3    H254508   4.404   2.783  13.093 -0.3697 -0.3146  2.1631
10105TIP3   OH254509   5.090   8.842  13.118  0.2800  0.2739  0.5266
10105TIP3    H154510   5.086   8.746  13.129  0.1190  0.3755  1.4602
10105TIP3    H254511   5.183   8.861  13.110  0.2574 -0.0567 -0.6782
10106TIP3   OH254512   8.539   6.407  11.700 -0.3753 -0.2843 -0.1604
10106TIP3    H154513   8.626   6.408  11.739 -0.8380  0.2365  0.8919
10106TIP3    H254514   8.501   6.324  11.728 -0.8023  0.2020  0.7407
10107TIP3   OH254515   7.831   6.613  12.113 -0.1184 -0.0295  0.6990
10107TIP3    H154516   7.870   6.678  12.172  1.6008  0.8113 -1.2600
10107TIP3    H254517   7.798   6.665  12.039  1.3145 -1.2983 -0.9224
10108TIP3   OH254518   7.318   3.558  11.992  0.1466 -1.0182  0.4075
10108TIP3    H154519   7.362   3.556  11.907  2.5561 -2.9978  1.5685
10108TIP3    H254520   7.375   3.611  12.048 -1.2859  0.0779  0.8858
10109TIP3   OH254521   3.426   6.129  13.487 -0.3715  0.0023  0.3753
10109TIP3    H154522   3.463   6.146  13.574 -2.7814  1.8008  1.1601
10109TIP3    H254523   3.472   6.191  13.429 -0.3714  0.4526  0.8474
10110TIP3   OH254524   2.202   0.453  13.100 -0.2186  0.1144  0.0038
10110TIP3    H154525   2.183   0.373  13.148 -1.7700  1.0061  0.9468
10110TIP3    H254526   2.190   0.524  13.163  0.1555  1.1601 -1.0419
10111TIP3   OH254527   8.415   2.236  12.851  0.3847 -1.0550  0.4376
10111TIP3    H154528   8.368   2.174  12.906 -0.6629 -1.3548 -0.7511
10111TIP3    H254529   8.459   2.295  12.913 -0.1040 -1.8562  1.5728
10112TIP3   OH254530   0.993   3.982  13.099 -0.0770 -0.5404 -0.3247
10112TIP3    H154531   0.962   4.001  13.188 -0.5936  1.0574 -0.8076
10112TIP3    H254532   1.058   4.050  13.081 -2.2027  1.1797 -2.2473
10113TIP3   OH254533   2.679   6.412  13.332  0.0503 -0.0433  0.3520
10113TIP3    H154534   2.690   6.376  13.244  0.7239 -1.3044  0.9163
10113TIP3    H254535   2.735   6.490  13.334 -1.7533  1.3463 -1.0280
10114TIP3   OH254536   6.909   0.104  12.788  0.2951 -0.0883 -0.0679
10114TIP3    H154537   6.926   0.135  12.877 -0.3849  0.3721 -0.0862
10114TIP3    H254538   6.860   0.176  12.747  0.0236 -0.5719 -0.6031
10115TIP3   OH254539   2.546   3.465  13.538 -0.1796 -0.8867 -0.5931
10115TIP3    H154540   2.608   3.505  13.599 -0.1882  0.2129 -1.2865
10115TIP3    H254541   2.460   3.485  13.576 -0.1517 -1.2308 -0.3463
10116TIP3   OH254542   6.686   3.426  12.842  0.4480  0.5750 -0.5628
10116TIP3    H154543   6.630   3.449  12.916  0.7897 -1.0718  0.2400
10116TIP3    H254544   6.774   3.454  12.868  0.7590 -0.9840  0.1578
10117TIP3   OH254545   0.507   1.903  11.613  0.2320 -0.1605  0.2925
10117TIP3    H154546   0.478   1.812  11.623  0.7491 -0.5886 -1.6095
10117TIP3    H254547   0.447   1.940  11.548  1.2283  0.2441 -0.4226
10118TIP3   OH254548   5.444   6.072  13.517  0.6661 -0.1159 -0.3545
10118TIP3    H154549   5.351   6.093  13.523  0.1690 -2.4293  2.4627
10118TIP3    H254550   5.452   6.019  13.438  0.1348  1.9763 -1.9093
10119TIP3   OH254551   5.652   1.149  12.351 -0.0650  0.3576  0.0349
10119TIP3    H154552   5.561   1.167  12.327 -0.8013 -0.3846  2.0734
10119TIP3    H254553   5.656   1.167  12.445  1.7328 -0.2879  0.1164
10120TIP3   OH254554   3.179   3.589  12.030  0.0055  0.7078  0.1629
10120TIP3    H154555   3.124   3.598  12.108 -0.6048  1.0602 -0.2993
10120TIP3    H254556   3.118   3.593  11.957  0.4558 -0.5933 -0.3213
10121TIP3   OH254557   6.296   0.413  11.449 -0.1497 -0.1435 -0.1176
10121TIP3    H154558   6.288   0.328  11.407  0.1834 -0.2596  0.0483
10121TIP3    H254559   6.264   0.400  11.538 -0.0190 -0.1204 -0.0654
10122TIP3   OH254560   5.490   4.246  12.842  0.2016 -0.0024  0.4317
10122TIP3    H154561   5.421   4.180  12.846 -0.7611  0.7019 -2.4124
10122TIP3    H254562   5.463   4.314  12.903 -0.0904 -1.0316  1.4834
10123TIP3   OH254563   8.537   6.332  13.031 -0.0321 -0.2423  0.0875
10123TIP3    H154564   8.540   6.415  13.079  0.2649  0.1783 -0.6380
10123TIP3    H254565   8.478   6.277  13.082 -1.9518  1.1326 -0.5324
10124TIP3   OH254566   6.047   0.063  13.034 -0.1875 -1.2261 -0.5046
10124TIP3    H154567   5.968   0.086  12.984 -0.5956 -1.2085  0.1352
10124TIP3    H254568   6.036   0.109  13.117  0.5321 -1.1800 -0.4304
10125TIP3   OH254569   1.681   0.787  11.985 -0.1552 -0.0904  0.3280
10125TIP3    H154570   1.717   0.723  11.924 -0.9869 -0.2476 -0.0134
10125TIP3    H254571   1.753   0.806  12.045  0.9657  0.7235 -1.2058
10126TIP3   OH254572   1.721   1.205  11.631  0.5574 -0.4071 -0.3788
10126TIP3    H154573   1.712   1.112  11.613  0.3307 -0.0636 -2.2367
10126TIP3    H254574   1.641   1.245  11.597  1.3093  0.6248 -1.0052
10127TIP3   OH254575   7.528   3.925  12.822  0.2857 -0.3629  0.3481
10127TIP3    H154576   7.621   3.935  12.840  0.7258  1.6722 -2.3783
10127TIP3    H254577   7.522   3.849  12.765  0.8132  1.2210 -1.9779
10128TIP3   OH254578   1.979   4.998  13.217 -0.2851 -0.3991  0.3713
10128TIP3    H154579   1.926   4.936  13.166 -1.3687  0.2945  0.6117
10128TIP3    H254580   2.023   4.944  13.282  1.0276 -1.2856 -1.1943
10129TIP3   OH254581   1.942   2.767  11.672  0.4379 -0.2708  0.0878
10129TIP3    H154582   1.922   2.796  11.583 -1.5727 -0.2451  0.5089
10129TIP3    H254583   1.943   2.671  11.667  2.3488 -0.2819 -0.3228
10130TIP3   OH254584   2.695   3.852  12.869  0.3039  0.0807  0.3464
10130TIP3    H154585   2.666   3.909  12.940 -1.0960  1.2650 -1.0875
10130TIP3    H254586   2.624   3.789  12.858  0.4306  0.0126 -0.0957
10131TIP3   OH254587   3.038   2.240  12.076  0.1587  0.3910  0.4376
10131TIP3    H154588   2.970   2.239  12.144  0.7160  2.4157  1.0781
10131TIP3    H254589   2.990   2.248  11.994 -0.4577 -0.4829  0.7003
10132TIP3   OH254590   5.175   3.600  12.537  0.1780 -0.4958 -0.0315
10132TIP3    H154591   5.085   3.631  12.527  0.2781 -0.6098 -1.6873
10132TIP3    H254592   5.217   3.624  12.454  1.4321 -1.2227  0.3718
10133TIP3   OH254593   2.228   3.172  13.707 -0.1940 -0.2061  0.0170
10133TIP3    H154594   2.271   3.195  13.625  0.8187 -0.9205  0.3181
10133TIP3    H254595   2.182   3.090  13.688 -0.9132  0.2224 -0.1316
10134TIP3   OH254596   2.944   0.080  12.550 -0.6798  0.5684 -0.1186
10134TIP3    H154597   2.987   0.152  12.503 -0.9218  0.0686 -1.1247
10134TIP3    H254598   2.975   0.089  12.641 -0.8843  2.0693 -0.1777
10135TIP3   OH254599   0.762   7.889  12.364 -0.0423  0.3408 -0.0674
10135TIP3    H154600   0.682   7.842  12.342  0.1466 -1.2261  2.1683
10135TIP3    H254601   0.821   7.873  12.291  0.1054 -3.3188  0.6477
10136TIP3   OH254602   7.163   0.170  12.891  0.4936  0.5014  0.1488
10136TIP3    H154603   7.145   0.102  12.826 -0.6914  0.7018  0.2350
10136TIP3    H254604   7.255   0.191  12.879  0.8001 -0.8688 -0.1108
10137TIP3   OH254605   3.551   3.913  12.573  0.3997  0.6348  0.6231
10137TIP3    H154606   3.506   3.853  12.513  1.4470 -0.5005  0.9283
10137TIP3    H254607   3.482   3.942  12.633 -0.4681  1.0578 -0.5378
10138TIP3   OH254608   2.962   5.852  13.033 -0.0493  0.3791 -0.3629
10138TIP3    H154609   2.991   5.773  13.079  0.3526  0.4110 -0.5507
10138TIP3    H254610   2.888   5.884  13.083 -0.9160 -0.7289 -0.8946
10139TIP3   OH254611   7.117   1.725  11.777  0.1520  0.0774  0.1947
10139TIP3    H154612   7.106   1.815  11.748  1.3847  0.4196  0.6935
10139TIP3    H254613   7.031   1.700  11.812  0.3491  1.8836  2.2166
10140TIP3   OH254614   3.361   0.727  12.142 -0.4468 -0.2127 -0.1266
10140TIP3    H154615   3.339   0.803  12.087 -1.3843  0.1483  0.7030
10140TIP3    H254616   3.424   0.677  12.090 -0.3035  0.7965 -0.9669
10141TIP3   OH254617   3.952   2.258  12.448  0.0245  0.3721 -0.2331
10141TIP3    H154618   3.937   2.334  12.505 -0.7527  0.4572 -0.5334
10141TIP3    H254619   3.922   2.286  12.361 -0.2831 -0.2788 -0.3470
10142TIP3   OH254620   4.949   3.656  12.187  0.5451 -0.5543 -0.3065
10142TIP3    H154621   4.881   3.684  12.126 -0.2985 -1.2979  0.2707
10142TIP3    H254622   4.967   3.565  12.163  1.3173 -0.3776 -0.4296
10143TIP3   OH254623   2.347   2.664  12.722 -0.2876  0.1644 -0.2423
10143TIP3    H154624   2.299   2.591  12.761  1.5446 -0.4696  0.9589
10143TIP3    H254625   2.344   2.733  12.789  1.0762 -0.1660  0.1898
10144TIP3   OH254626   6.726   7.263  11.947  0.0971  0.2058  0.0439
10144TIP3    H154627   6.687   7.349  11.963  2.4756  1.5818 -1.0837
10144TIP3    H254628   6.777   7.245  12.026  0.0295  0.0785  0.0584
10145TIP3   OH254629   1.143   7.971  12.212  0.5072 -0.3809  0.1252
10145TIP3    H154630   1.125   7.906  12.281  0.6534 -0.3217  0.2198
10145TIP3    H254631   1.168   8.050  12.259  2.6838 -0.9350  0.0046
10146TIP3   OH254632   4.115   5.588  11.670 -0.1887 -0.0453  0.2198
10146TIP3    H154633   4.120   5.495  11.694 -3.1178 -0.7359 -1.3377
10146TIP3    H254634   4.022   5.610  11.679  0.2098  2.3415 -0.8027
10147TIP3   OH254635   8.697   2.628  13.105 -0.3379  0.7125  0.2491
10147TIP3    H154636   8.749   2.579  13.042 -1.1330  0.4343 -0.1984
10147TIP3    H254637   8.679   2.712  13.062  0.7430  1.2993  0.8839
10148TIP3   OH254638   2.842   4.040  12.218  0.0159  0.5120 -0.7478
10148TIP3    H154639   2.903   3.969  12.236 -0.4112  0.2988 -0.0658
10148TIP3    H254640   2.835   4.044  12.123  0.8771  0.3618 -0.8204
10149TIP3   OH254641   6.466   5.508  11.809  0.1006  0.6202 -0.1004
10149TIP3    H154642   6.552   5.541  11.836  0.0332 -0.1631  1.1907
10149TIP3    H254643   6.426   5.580  11.762  1.1855  1.2500 -0.0894
10150TIP3   OH254644   5.902   6.609  11.866  0.4292  0.1774 -0.3082
10150TIP3    H154645   5.913   6.632  11.958 -1.3521  3.0277 -0.6967
10150TIP3    H254646   5.844   6.532  11.867  0.2293  0.3284  0.9560
10151TIP3   OH254647   6.244   5.294  12.486  0.3831  0.4562 -0.0308
10151TIP3    H154648   6.303   5.219  12.492  0.3174 -0.1936 -4.3932
10151TIP3    H254649   6.301   5.370  12.478  0.5575  0.2884 -0.3920
10152TIP3   OH254650   3.820   6.479  12.780  0.8063  0.0102 -0.2615
10152TIP3    H154651   3.849   6.558  12.734 -0.7939 -0.5628 -2.3859
10152TIP3    H254652   3.852   6.406  12.726 -1.6047 -0.6794 -0.8840
10153TIP3   OH254653   1.904   8.755  13.154  0.2240  0.0143 -0.0284
10153TIP3    H154654   1.966   8.701  13.202 -0.2955 -1.3045 -0.8008
10153TIP3    H254655   1.950   8.776  13.072  0.1700  0.2019 -0.0114
10154TIP3   OH254656   1.269   0.508  12.332  0.5468  0.4187  0.1851
10154TIP3    H154657   1.225   0.541  12.410  1.6743 -0.0770  1.0581
10154TIP3    H254658   1.208   0.444  12.295  0.0275  0.6134  0.6981
10155TIP3   OH254659   8.206   1.799  12.255 -0.2594  0.1689  0.3085
10155TIP3    H154660   8.301   1.799  12.259 -0.2861  0.5653  1.0564
10155TIP3    H254661   8.178   1.831  12.340 -1.0802 -0.8234  0.4342
10156TIP3   OH254662   3.060   8.044  12.318 -0.1002 -0.0963 -0.2880
10156TIP3    H154663   3.014   7.963  12.297  1.5060 -0.9573 -0.6011
10156TIP3    H254664   3.148   8.032  12.284  0.3817  1.5107  0.2807
10157TIP3   OH254665   1.677   1.576  13.453  0.1352  0.0491 -0.4416
10157TIP3    H154666   1.661   1.578  13.548  0.5714 -0.2750 -0.3531
10157TIP3    H254667   1.758   1.525  13.444  1.6897  2.4376 -0.7754
10158TIP3   OH254668   6.276   4.760  12.865 -0.1680  1.1932 -0.0919
10158TIP3    H154669   6.286   4.665  12.879  2.0071  1.4118  0.1877
10158TIP3    H254670   6.261   4.769  12.771  2.1770  0.6768 -0.5691
10159TIP3   OH254671   0.003   5.610  12.348 -0.5232 -0.3179 -0.5814
10159TIP3    H154672  -0.035   5.539  12.295 -0.4921 -0.4308 -0.4518
10159TIP3    H254673   0.054   5.661  12.285 -0.9386 -0.1279 -0.7674
10160TIP3   OH254674   4.576   3.822  12.819  0.0410  0.4045 -0.5310
10160TIP3    H154675   4.649   3.882  12.834  1.2341 -0.5587 -2.0799
10160TIP3    H254676   4.500   3.865  12.857  1.0998  2.2853 -0.4531
10161TIP3   OH254677   0.533   4.927  11.855  0.0134 -0.5575  0.3892
10161TIP3    H154678   0.572   4.895  11.937  2.5355 -0.5887 -0.7377
10161TIP3    H254679   0.608   4.947  11.799 -1.5445  2.1597 -0.9308
10162TIP3   OH254680   9.009   7.698  11.727 -0.0253  0.4174  0.6142
10162TIP3    H154681   9.075   7.767  11.726 -0.0747  0.4905  1.5009
10162TIP3    H254682   9.048   7.627  11.778 -0.5241  0.3530  0.9109
10163TIP3   OH254683   7.143   7.892  12.892  0.8742  0.0256  0.1819
10163TIP3    H154684   7.130   7.842  12.973  0.6756 -0.7679 -0.3289
10163TIP3    H254685   7.233   7.873  12.866  1.0114  0.4605  0.3328
10164TIP3   OH254686   5.308   7.084  12.198 -0.3967  0.0732  0.6692
10164TIP3    H154687   5.281   7.027  12.269  0.3697  0.1774  1.0535
10164TIP3    H254688   5.264   7.049  12.121 -3.9221  1.8907  1.6703
10165TIP3   OH254689   2.347   9.211  12.131 -0.0447 -0.0147 -0.4037
10165TIP3    H154690   2.303   9.225  12.215 -0.9879  0.3382 -0.9390
10165TIP3    H254691   2.312   9.279  12.074  1.3446  0.3885 -0.8151
10166TIP3   OH254692   0.063   3.187  13.573 -0.3021 -0.3575  0.8101
10166TIP3    H154693   0.028   3.193  13.662 -1.8864 -1.6552  0.3214
10166TIP3    H254694  -0.015   3.185  13.517  0.6595  0.5150 -0.6301
10167TIP3   OH254695   6.450   6.222  12.898  0.2573  0.6495 -0.2805
10167TIP3    H154696   6.536   6.265  12.896  1.7104 -1.8412  1.9320
10167TIP3    H254697   6.408   6.255  12.977  0.3984 -0.1722  0.1517
10168TIP3   OH254698   5.067   4.357  13.067 -0.1367  0.1600  0.6178
10168TIP3    H154699   4.974   4.378  13.081  0.1619  0.4561  2.3099
10168TIP3    H254700   5.113   4.404  13.136  1.0864 -1.6824  1.1265
10169TIP3   OH254701   2.722   5.871  12.533 -0.3743 -0.1773 -0.1663
10169TIP3    H154702   2.752   5.890  12.622 -0.1351 -1.9445  0.1673
10169TIP3    H254703   2.791   5.905  12.476  0.1070 -0.2020  0.3933
10170TIP3   OH254704   7.503   6.532  12.001  0.5652  0.1327 -0.0518
10170TIP3    H154705   7.483   6.440  11.985 -1.9437  0.7951 -1.2633
10170TIP3    H254706   7.494   6.543  12.096  0.7221 -0.8072  0.0817
10171TIP3   OH254707   2.648   6.099  11.908  0.1568 -0.2064 -0.0616
10171TIP3    H154708   2.727   6.103  11.854  0.4426  1.7250  0.4254
10171TIP3    H254709   2.672   6.144  11.989 -1.4317  0.4683  0.0814
10172TIP3   OH254710   8.406   6.653  11.824  0.0745  0.2094 -0.5959
10172TIP3    H154711   8.420   6.566  11.786  0.0171  0.2056 -0.6077
10172TIP3    H254712   8.484   6.669  11.877 -0.5528 -0.4462  0.5554
10173TIP3   OH254713   6.049   8.376  11.995 -0.2567 -0.2741 -0.9267
10173TIP3    H154714   6.092   8.461  11.995 -0.8163  0.0146 -0.5719
10173TIP3    H254715   6.063   8.342  12.083  1.7266 -1.4715 -1.6511
10174TIP3   OH254716   8.935   4.144  12.947  0.2859 -0.0212 -0.3732
10174TIP3    H154717   8.932   4.145  13.043 -1.3563 -2.1439 -0.3258
10174TIP3    H254718   9.023   4.112  12.926  0.8248  0.9064  0.3807
10175TIP3   OH254719   5.283   1.445  12.677 -0.1489 -0.4726  0.1087
10175TIP3    H154720   5.221   1.422  12.746 -2.3645 -1.2571 -1.9618
10175TIP3    H254721   5.289   1.540  12.680 -0.6651 -0.4584  0.9898
10176TIP3   OH254722   7.955   4.091  11.960 -0.1852 -0.5067 -0.5581
10176TIP3    H154723   8.008   4.145  11.902  0.7480 -0.4677  0.2965
10176TIP3    H254724   8.016   4.027  11.996 -0.6230 -0.2497  0.7043
10177TIP3   OH254725   7.167   4.468  12.336 -0.0498  0.0437 -0.1674
10177TIP3    H154726   7.133   4.531  12.399  1.0344  1.2812 -0.7775
10177TIP3    H254727   7.155   4.510  12.251 -0.1026 -0.9589 -0.6753
10178TIP3   OH254728   7.859   1.755  12.321  0.2935  0.2951  0.1246
10178TIP3    H154729   7.807   1.720  12.393  1.1807  1.1388  1.2207
10178TIP3    H254730   7.813   1.835  12.295 -0.3764 -0.3368 -0.7122
10179TIP3   OH254731   8.802   0.523  11.600 -0.2771  0.1904  0.3355
10179TIP3    H154732   8.830   0.437  11.630  3.3493  0.7793 -0.8306
10179TIP3    H254733   8.768   0.566  11.678 -0.1940 -1.5666  1.3993
10180TIP3   OH254734   1.067   7.849  11.718  0.1737  0.3403  0.0763
10180TIP3    H154735   1.112   7.770  11.690  1.1928  1.1405 -0.6330
10180TIP3    H254736   1.137   7.906  11.750 -0.5963  0.7705  1.0236
10181TIP3   OH254737   3.551   4.273  11.660  0.5458  0.0334 -0.6496
10181TIP3    H154738   3.488   4.308  11.723  0.3001  0.1533 -0.9629
10181TIP3    H254739   3.512   4.289  11.574  0.0172 -1.7514 -0.7934
10182TIP3   OH254740   0.928   0.861  13.317 -0.4745 -0.3261 -0.3257
10182TIP3    H154741   0.962   0.789  13.372  0.2933  0.6751  0.5542
10182TIP3    H254742   0.980   0.855  13.237  0.3458 -0.1266  0.1664
10183TIP3   OH254743   4.868   5.498  12.976  0.3857  0.5858  0.8572
10183TIP3    H154744   4.832   5.466  13.059  0.4483  0.7728  0.9572
10183TIP3    H254745   4.962   5.509  12.994  0.7291 -1.0785  0.2425
10184TIP3   OH254746   0.186   7.200  13.221 -0.0023 -0.0169 -0.3258
10184TIP3    H154747   0.206   7.214  13.314 -1.1887 -0.0356 -0.0444
10184TIP3    H254748   0.192   7.105  13.209  0.5165  0.0173 -0.3666
10185TIP3   OH254749   2.558   0.336  12.668  0.8309  0.2724  0.1937
10185TIP3    H154750   2.617   0.306  12.737  1.3301  0.6179 -0.0754
10185TIP3    H254751   2.500   0.262  12.652  1.9815 -0.5240 -0.4035
10186TIP3   OH254752   0.477   2.387  12.694  0.1555 -0.5949  0.1417
10186TIP3    H154753   0.558   2.338  12.709  0.7003 -0.8393 -2.8713
10186TIP3    H254754   0.408   2.325  12.718  0.8692 -1.2196  0.6409
10187TIP3   OH254755   5.969   4.612  11.692  0.4819 -0.2679  0.7980
10187TIP3    H154756   6.015   4.530  11.706  0.1408 -0.5822  0.1306
10187TIP3    H254757   5.908   4.619  11.765  1.0745 -0.2078  1.2879
10188TIP3   OH254758   0.343   8.942  11.756  0.2013  0.4251 -0.5920
10188TIP3    H154759   0.255   8.980  11.757 -0.2627 -0.6363 -0.0921
10188TIP3    H254760   0.365   8.929  11.848  0.4169 -0.3543 -0.7436
10189TIP3   OH254761   7.330   6.490  12.216 -0.2141 -0.1149  0.8610
10189TIP3    H154762   7.336   6.398  12.240 -0.5933 -0.3384  0.1106
10189TIP3    H254763   7.267   6.493  12.144 -0.2392  0.7347  0.9003
10190TIP3   OH254764   4.460   4.309  11.633  0.1377 -0.3139  0.0611
10190TIP3    H154765   4.382   4.258  11.656 -0.6015  1.7571  2.6560
10190TIP3    H254766   4.520   4.295  11.706  1.5963 -0.5955 -1.1365
10191TIP3   OH254767   0.278   5.607  13.553  0.2499 -0.0743 -0.0001
10191TIP3    H154768   0.341   5.677  13.572  0.2025 -0.2609  0.8754
10191TIP3    H254769   0.198   5.653  13.527  0.4484  0.1822 -0.1575
10192TIP3   OH254770   2.789   0.863  11.979  0.6039 -0.0738  0.2687
10192TIP3    H154771   2.766   0.864  12.072  1.3331  1.5433  0.4565
10192TIP3    H254772   2.772   0.952  11.949  1.2153 -0.3447 -0.9444
10193TIP3   OH254773   2.808   8.809  13.228 -0.4065  0.2119 -0.2742
10193TIP3    H154774   2.878   8.866  13.258 -0.8231 -0.3414  1.9565
10193TIP3    H254775   2.846   8.721  13.231 -1.0686 -0.0578  0.6404
10194TIP3   OH254776   9.167   2.577  12.640 -0.2496  0.5195 -0.2211
10194TIP3    H154777   9.122   2.523  12.575  0.4246  1.0599 -1.1454
10194TIP3    H254778   9.096   2.617  12.691 -0.8365 -2.2428  1.4232
10195TIP3   OH254779   3.467   0.524  12.947  0.1229 -0.3168 -0.0040
10195TIP3    H154780   3.463   0.434  12.915 -0.2526 -0.2483 -0.1632
10195TIP3    H254781   3.546   0.561  12.908 -0.2781 -0.2614 -0.7892
10196TIP3   OH254782   5.484   5.852  13.313 -0.0016  0.0696  0.3756
10196TIP3    H154783   5.482   5.767  13.358 -1.4526  0.2794  0.7526
10196TIP3    H254784   5.404   5.854  13.261 -0.1031  1.3005  0.5469
10197TIP3   OH254785   5.449   4.600  12.307  0.3238 -0.4173  0.4164
10197TIP3    H154786   5.488   4.525  12.263 -0.2339 -1.6687  1.9626
10197TIP3    H254787   5.395   4.642  12.240  2.6047  0.1577 -1.1951
10198TIP3   OH254788   1.731   5.721  13.195  0.1011 -0.7790 -0.2559
10198TIP3    H154789   1.791   5.778  13.148  0.2478 -1.1493 -0.5215
10198TIP3    H254790   1.767   5.717  13.284  0.3913 -0.8874 -0.3774
10199TIP3   OH254791   0.897   3.863  12.126  0.0598  0.1091 -0.9841
10199TIP3    H154792   0.874   3.807  12.200  0.7351  1.3308  0.2071
10199TIP3    H254793   0.975   3.822  12.088  0.1163 -0.1496 -0.5898
10200TIP3   OH254794   4.454   7.776  12.083 -0.2328  0.0878 -0.4301
10200TIP3    H154795   4.451   7.820  11.998 -1.2830  0.3929 -0.2458
10200TIP3    H254796   4.529   7.716  12.076  1.1794  1.8029 -0.7263
10201TIP3   OH254797   8.595   2.827  11.355 -0.3377 -0.0054 -0.3070
10201TIP3    H154798   8.526   2.820  11.289  0.5743 -2.7120 -1.0889
10201TIP3    H254799   8.567   2.770  11.427  0.4656 -0.1118 -0.0680
10202TIP3   OH254800   4.854   7.760  12.702 -0.1079  0.6366  0.0730
10202TIP3    H154801   4.789   7.805  12.755  1.0395 -0.7349  2.8204
10202TIP3    H254802   4.938   7.786  12.739  0.7383 -0.6538 -0.8466
10203TIP3   OH254803   8.072   0.763  12.771  0.0327 -0.2535 -0.0559
10203TIP3    H154804   8.128   0.829  12.812 -0.6789 -1.0187  2.3080
10203TIP3    H254805   8.130   0.714  12.713  1.3847  0.1566  0.9078
10204TIP3   OH254806   0.967   2.546  12.307 -0.3558 -0.3088 -0.1453
10204TIP3    H154807   1.053   2.504  12.310 -0.3721 -0.3507 -0.2564
10204TIP3    H254808   0.922   2.517  12.385 -0.6648 -1.1258 -0.6197
10205TIP3   OH254809   0.437   3.268  13.201 -0.3404  0.0005 -0.0173
10205TIP3    H154810   0.452   3.178  13.231  0.0364  0.3802  0.9603
10205TIP3    H254811   0.520   3.312  13.213 -0.6110  0.5739 -0.1987
10206TIP3   OH254812   1.922   3.745  12.472  0.0167  0.1360  0.0165
10206TIP3    H154813   2.014   3.725  12.490  0.3878  1.4010 -0.3832
10206TIP3    H254814   1.876   3.718  12.551  0.8454  0.2699  0.5588
10207TIP3   OH254815   9.122   6.984  11.614 -0.7386  0.2079  0.2842
10207TIP3    H154816   9.211   7.014  11.634 -0.1716  0.5138 -2.4149
10207TIP3    H254817   9.071   7.064  11.605 -0.9738  0.0760  0.4262
10208TIP3   OH254818   3.678   2.470  13.495 -0.1957  0.6037  0.1430
10208TIP3    H154819   3.664   2.379  13.518  1.5247  0.6041  1.4067
10208TIP3    H254820   3.773   2.477  13.483 -0.4037  2.0070 -0.9735
10209TIP3   OH254821   0.278   8.973  12.318 -0.8604 -0.0660 -0.0223
10209TIP3    H154822   0.372   8.973  12.340 -0.6905  1.0604 -0.6754
10209TIP3    H254823   0.248   8.886  12.344  0.6603 -0.9370 -0.9982
10210TIP3   OH254824   4.767   1.057  12.492  0.2760 -0.6475 -0.2178
10210TIP3    H154825   4.772   0.962  12.481 -2.3780 -1.1036  1.5206
10210TIP3    H254826   4.764   1.070  12.587 -1.6500  0.9492 -0.4259
10211TIP3   OH254827   4.456   4.887  11.551 -0.0971  0.0298 -0.0003
10211TIP3    H154828   4.463   4.799  11.587 -0.0754 -0.1640 -0.4623
10211TIP3    H254829   4.544   4.908  11.520 -0.2042  0.0253 -0.3146
10212TIP3   OH254830   3.768   5.098  12.392  0.5428  0.0307 -0.1544
10212TIP3    H154831   3.785   5.057  12.476 -1.2827  0.9394  0.7054
10212TIP3    H254832   3.681   5.068  12.367 -0.1110  1.9481 -0.3382
10213TIP3   OH254833   5.209   4.902  11.836 -0.2065 -0.0523 -0.2325
10213TIP3    H154834   5.166   4.982  11.864 -0.3408  0.4477 -1.7431
10213TIP3    H254835   5.138   4.838  11.828 -0.1397 -0.2521  0.6944
10214TIP3   OH254836   2.218   3.991  13.494 -0.0173  0.2529 -0.2855
10214TIP3    H154837   2.219   4.035  13.579 -0.8491  0.0412 -0.1599
10214TIP3    H254838   2.300   4.018  13.452 -1.5515  3.9975 -1.2592
10215TIP3   OH254839   5.455   0.958  12.800  0.5608 -0.3622  0.2701
10215TIP3    H154840   5.550   0.948  12.802  0.5249 -0.5958  1.5484
10215TIP3    H254841   5.440   1.045  12.836  0.2012 -1.1587  2.1290
10216TIP3   OH254842   1.893   6.037  13.445 -0.2746  0.1798 -0.3995
10216TIP3    H154843   1.799   6.054  13.435 -0.7019 -1.8095 -0.0908
10216TIP3    H254844   1.899   5.978  13.519  1.2055 -0.0540 -0.6790
10217TIP3   OH254845   7.390   3.337  12.608 -0.3769  0.6604 -0.2930
10217TIP3    H154846   7.485   3.352  12.613 -0.0492  0.2861 -3.2739
10217TIP3    H254847   7.371   3.339  12.514 -3.4692  1.4067  0.2455
10218TIP3   OH254848   2.001   5.999  12.887 -0.5518  0.2979  0.0653
10218TIP3    H154849   2.002   5.964  12.976 -0.4060 -0.5901 -0.2688
10218TIP3    H254850   2.091   5.986  12.856 -1.2056 -1.9544 -1.1420
10219TIP3   OH254851   3.229   2.544  13.604  0.1232  0.4173 -0.2263
10219TIP3    H154852   3.240   2.541  13.698  0.8973 -0.3901 -0.3371
10219TIP3    H254853   3.288   2.477  13.570 -1.2477 -0.3513 -1.1870
10220TIP3   OH254854   3.423   9.112  12.594  0.3656 -0.4623 -0.2980
10220TIP3    H154855   3.511   9.142  12.574  0.4775 -1.4918 -1.4837
10220TIP3    H254856   3.435   9.029  12.640  0.0293 -0.6236 -0.4904
10221TIP3   OH254857   0.945   5.932  13.129 -0.5191 -0.6742  0.1543
10221TIP3    H154858   0.995   6.014  13.129  1.6931 -1.9188 -0.5665
10221TIP3    H254859   0.881   5.943  13.199 -1.0369  2.0490 -0.6249
10222TIP3   OH254860   1.014   2.018  13.068  0.5582 -0.2577  0.4550
10222TIP3    H154861   0.992   2.017  13.161  1.0515  0.9565  0.5914
10222TIP3    H254862   1.057   2.102  13.053 -1.6839  0.7097 -1.3685
10223TIP3   OH254863   3.454   0.552  13.517  0.2611 -0.3495 -0.3523
10223TIP3    H154864   3.507   0.553  13.597 -1.2646 -2.2036  0.7845
10223TIP3    H254865   3.424   0.642  13.507  2.7305  0.5243 -0.4742
10224TIP3   OH254866   7.118   8.655  11.738 -0.5105 -0.1713 -0.1543
10224TIP3    H154867   7.190   8.666  11.677 -1.1552 -0.5303 -0.9985
10224TIP3    H254868   7.125   8.730  11.797  0.8148 -0.4455  0.0733
10225TIP3   OH254869   1.311   4.481  13.034  0.0801 -0.2392  0.1065
10225TIP3    H154870   1.309   4.553  12.971  1.5757  1.3817  1.7473
10225TIP3    H254871   1.253   4.509  13.105  0.2379 -0.9161  0.5166
10226TIP3   OH254872   7.919   6.784  13.007 -0.1045  0.9340 -0.0837
10226TIP3    H154873   8.001   6.833  13.006 -1.2652  3.0156  0.3871
10226TIP3    H254874   7.940   6.701  12.966  2.3668  1.1691  0.5460
10227TIP3   OH254875   4.952   7.396  11.920  0.0245  0.2552  0.2468
10227TIP3    H154876   5.030   7.362  11.877  0.0075 -1.1599  1.2424
10227TIP3    H254877   4.929   7.328  11.984 -2.4241  0.2937 -0.4865
10228TIP3   OH254878   0.835   2.427  12.818  0.1633 -0.1055  0.5692
10228TIP3    H154879   0.778   2.450  12.891 -1.2624 -1.3457 -0.0995
10228TIP3    H254880   0.790   2.355  12.774  0.9810  0.5911 -1.5332
10229TIP3   OH254881   5.294   0.714  11.875  0.0316  0.2370  0.3483
10229TIP3    H154882   5.251   0.641  11.831  1.9676  0.7412 -2.6970
10229TIP3    H254883   5.371   0.676  11.917  0.7631  0.4036 -0.8066
10230TIP3   OH254884   1.776   6.416  11.479 -0.0685  0.1225 -0.2190
10230TIP3    H154885   1.773   6.367  11.561  0.0545  0.8086  0.1990
10230TIP3    H254886   1.869   6.433  11.464 -0.2021  1.7112  0.5446
10231TIP3   OH254887   4.822   4.608  11.890  0.7302 -0.3130 -0.5082
10231TIP3    H154888   4.730   4.611  11.915  0.8162 -0.1380 -0.2099
10231TIP3    H254889   4.824   4.556  11.809  0.3335 -0.0417 -0.6876
10232TIP3   OH254890   1.232   6.492  12.649 -0.4094  0.6581  0.4055
10232TIP3    H154891   1.156   6.507  12.592  0.5149 -1.2436 -1.4505
10232TIP3    H254892   1.194   6.453  12.728 -1.4400  0.3606 -0.2097
10233TIP3   OH254893   4.113   0.483  11.924 -0.4227  0.3223 -0.5361
10233TIP3    H154894   4.130   0.526  11.840  1.1804  0.2835 -0.2598
10233TIP3    H254895   4.027   0.441  11.912 -0.3592  0.5637 -2.0446
10234TIP3   OH254896   3.057   4.661  11.946  0.3016  0.1233  0.4053
10234TIP3    H154897   3.130   4.604  11.971 -0.7581 -1.3644  0.2368
10234TIP3    H254898   3.029   4.628  11.860  1.0227  2.3056 -0.7460
10235TIP3   OH254899   6.356   6.777  12.366 -0.2460  0.1954 -0.2259
10235TIP3    H154900   6.440   6.791  12.323  0.0101 -0.7467 -0.0475
10235TIP3    H254901   6.323   6.696  12.328  0.1342 -0.8361  1.5541
10236TIP3   OH254902   1.897   0.880  12.113 -0.0494  0.4998 -0.3710
10236TIP3    H154903   1.866   0.970  12.127 -0.7595  0.0952  0.7389
10236TIP3    H254904   1.989   0.890  12.087  0.9451  1.4482  3.0205
10237TIP3   OH254905   1.077   1.857  11.853 -1.1054  0.6992  0.2313
10237TIP3    H154906   1.072   1.774  11.806 -2.7287 -0.0754  1.6813
10237TIP3    H254907   1.001   1.907  11.822 -1.4745  0.6800  1.0904
10238TIP3   OH254908   6.917   0.217  11.859  0.3479  0.0446 -0.3352
10238TIP3    H154909   6.991   0.259  11.903  0.6341  1.1503 -1.8215
10238TIP3    H254910   6.873   0.287  11.812 -0.7444 -0.8663 -0.7207
10239TIP3   OH254911   3.229   4.314  11.631  0.2327 -0.1043 -0.0758
10239TIP3    H154912   3.241   4.398  11.677 -1.7470  1.5166 -2.2280
10239TIP3    H254913   3.229   4.338  11.539  2.1117 -2.9301 -0.9205
10240TIP3   OH254914   1.723   3.660  12.654  0.4403 -0.3628  0.3646
10240TIP3    H154915   1.720   3.568  12.627  1.1462 -0.9324  2.0963
10240TIP3    H254916   1.753   3.657  12.745  2.6935  1.7056 -0.1997
10241TIP3   OH254917   3.162   7.496  12.587 -0.4403  0.0217 -0.2557
10241TIP3    H154918   3.120   7.540  12.661  0.5771 -0.1524  0.4425
10241TIP3    H254919   3.255   7.519  12.595 -0.3995  0.6159 -1.9078
10242TIP3   OH254920   5.161   7.666  12.527  0.3721 -0.2441 -0.5671
10242TIP3    H154921   5.252   7.675  12.557  0.6176 -1.9584 -0.7514
10242TIP3    H254922   5.157   7.581  12.485 -1.9579 -1.4174  1.7483
10243TIP3   OH254923   1.314   3.302  12.923 -0.4782 -0.0031 -0.3785
10243TIP3    H154924   1.332   3.218  12.881 -1.3798 -0.0126 -0.7703
10243TIP3    H254925   1.367   3.365  12.873  0.0826 -0.3073 -0.1778
10244TIP3   OH254926   1.791   0.274  12.966 -0.1764 -0.3319 -0.0314
10244TIP3    H154927   1.724   0.301  12.904 -0.2529  0.8617  0.5333
10244TIP3    H254928   1.869   0.258  12.913 -0.2484  0.6339 -0.4399
10245TIP3   OH254929   4.825   3.048  12.150  0.1812 -0.4222 -0.2316
10245TIP3    H154930   4.743   3.001  12.134  0.6744 -1.6241  0.6223
10245TIP3    H254931   4.824   3.065  12.244 -0.3955  2.1351 -0.6366
10246TIP3   OH254932   4.732   5.189  12.254  0.1984 -0.1105 -0.3330
10246TIP3    H154933   4.809   5.170  12.200  0.3869  2.8141 -1.2498
10246TIP3    H254934   4.767   5.212  12.340  0.0103 -2.7960  0.5529
10247TIP3   OH254935   3.958   4.196  11.748 -0.4588  1.1649 -0.5926
10247TIP3    H154936   3.898   4.160  11.813  1.2263  0.7598  0.8118
10247TIP3    H254937   3.904   4.205  11.669 -1.5285 -2.7149 -0.5526
10248TIP3   OH254938   5.719   4.162  12.408  0.1254  0.0227  0.2118
10248TIP3    H154939   5.779   4.227  12.444 -0.1586  0.9449 -0.9212
10248TIP3    H254940   5.634   4.184  12.447  0.4590 -1.2570  1.7837
10249TIP3   OH254941   6.771   6.929  11.791  0.1371 -0.2819 -0.7114
10249TIP3    H154942   6.838   6.917  11.724  0.1830 -2.6068 -0.3517
10249TIP3    H254943   6.705   6.986  11.751  0.0961 -1.7150 -2.8080
10250TIP3   OH254944   6.118   4.748  12.154 -0.5324  0.0643 -0.7452
10250TIP3    H154945   6.176   4.774  12.083 -0.5301 -1.1235 -1.2148
10250TIP3    H254946   6.176   4.728  12.227 -0.3926 -0.4012 -0.9784
10251TIP3   OH254947   6.559   9.178  13.002 -0.1491 -0.0484  0.3325
10251TIP3    H154948   6.509   9.240  13.056  1.5900 -0.5222  2.6491
10251TIP3    H254949   6.615   9.234  12.948 -1.1465  0.4202 -0.2560
10252TIP3   OH254950   8.861   5.542  11.884 -0.0066  0.1634 -0.2174
10252TIP3    H154951   8.891   5.574  11.969 -2.3012 -0.4522  0.9062
10252TIP3    H254952   8.788   5.600  11.861 -0.7162 -0.9230 -0.7689
10253TIP3   OH254953   8.839   5.395  13.533 -0.6103 -0.3726 -0.1895
10253TIP3    H154954   8.922   5.443  13.531 -0.9985  0.4095  1.0902
10253TIP3    H254955   8.850   5.331  13.604 -0.4770 -1.4913 -1.1960
10254TIP3   OH254956   0.726   8.904  12.051 -0.8642 -0.7622 -0.1825
10254TIP3    H154957   0.655   8.909  11.987 -1.1033 -0.4924  0.1065
10254TIP3    H254958   0.719   8.816  12.087 -2.0978 -0.1820  1.0507
10255TIP3   OH254959   1.353   7.097  11.821  0.7004  0.0520  0.1044
10255TIP3    H154960   1.360   7.182  11.864  0.3003 -1.3560  3.2931
10255TIP3    H254961   1.260   7.089  11.800  0.7372  0.3777 -0.1971
10256TIP3   OH254962   9.208   1.921  11.426 -0.2623  0.0217 -0.0034
10256TIP3    H154963   9.170   1.957  11.346 -3.5256 -1.1449  0.8388
10256TIP3    H254964   9.210   1.995  11.487  1.5734  0.7443 -0.8718
10257TIP3   OH254965   1.035   5.689  13.520 -0.3301 -0.3069 -0.0281
10257TIP3    H154966   0.981   5.683  13.441 -1.0307 -0.4056  0.4446
10257TIP3    H254967   1.104   5.625  13.507 -0.5937 -0.5102 -0.4452
10258TIP3   OH254968   1.064   9.149  12.454 -0.5919  0.1305 -0.6887
10258TIP3    H154969   1.073   9.054  12.448 -1.3161  0.0045  0.0108
10258TIP3    H254970   1.035   9.176  12.367 -0.5100 -0.3014 -0.8531
10259TIP3   OH254971   6.823   4.991  12.613 -0.3683  0.3910  0.2125
10259TIP3    H154972   6.787   5.079  12.619  0.4833  0.9578 -2.0884
10259TIP3    H254973   6.908   4.997  12.656 -1.2942  0.0045  2.2419
10260TIP3   OH254974   7.297   4.281  12.482  0.6007  0.1918 -0.0398
10260TIP3    H154975   7.356   4.334  12.535 -0.2899 -0.0197  1.1945
10260TIP3    H254976   7.233   4.343  12.448  0.0146  0.0415  0.7677
10261TIP3   OH254977   0.607   7.451  12.488  0.0651 -0.1796  0.1918
10261TIP3    H154978   0.649   7.422  12.569 -1.6658  0.1242  1.2503
10261TIP3    H254979   0.624   7.380  12.426  0.5174 -0.9206  1.1389
10262TIP3   OH254980   7.674   1.465  13.057  0.4811 -0.6016  0.0049
10262TIP3    H154981   7.690   1.371  13.063 -1.5722 -1.0457 -0.6874
10262TIP3    H254982   7.637   1.477  12.970  0.2427  0.7828  0.2801
10263TIP3   OH254983   5.527   1.894  13.131 -0.1652 -0.1168  0.5063
10263TIP3    H154984   5.514   1.978  13.175 -0.6395 -0.4136  0.9563
10263TIP3    H254985   5.561   1.916  13.045 -1.4548  0.6090  0.1611
10264TIP3   OH254986   1.601   0.910  13.014 -0.0396  0.4957 -0.7188
10264TIP3    H154987   1.521   0.957  13.036 -1.3458 -1.5858 -0.7734
10264TIP3    H254988   1.637   0.882  13.098 -1.3965 -1.6606 -0.7684
10265TIP3   OH254989   4.847   1.746  12.062 -0.0723  0.5006  0.4660
10265TIP3    H154990   4.812   1.666  12.102 -1.0281  1.4450  1.5900
10265TIP3    H254991   4.941   1.740  12.074 -0.2061 -0.0562  1.3344
10266TIP3   OH254992   4.884   7.674  11.898  0.2982 -0.1265  0.1134
10266TIP3    H154993   4.903   7.583  11.877  1.0386 -0.3005  1.4461
10266TIP3    H254994   4.955   7.702  11.956 -0.5324  0.9371  0.6761
10267TIP3   OH254995   8.035   8.374  11.819 -0.1350 -0.2453 -0.0841
10267TIP3    H154996   8.014   8.465  11.798 -0.1250 -0.7928 -2.7507
10267TIP3    H254997   7.950   8.330  11.820 -0.1755 -0.2213  1.5318
10268TIP3   OH254998   0.413   6.880  12.064  0.3156  0.3006  0.1090
10268TIP3    H154999   0.365   6.869  12.146  0.3632 -0.7665 -0.0001
10268TIP3    H255000   0.386   6.806  12.010  0.6817  0.7102 -0.6488
10269TIP3   OH255001   0.196   0.271  12.092 -0.2822 -0.2576  0.0019
10269TIP3    H155002   0.128   0.233  12.036 -1.1310  0.3144  0.6402
10269TIP3    H255003   0.229   0.197  12.143 -2.6235 -0.0520  1.9683
10270TIP3   OH255004   4.496   2.469  12.620 -0.4134  0.0316  0.1011
10270TIP3    H155005   4.438   2.515  12.559  1.2316  0.2466 -1.3687
10270TIP3    H255006   4.551   2.538  12.657 -1.7418 -0.0179  2.3030
10271TIP3   OH255007   1.324   3.476  12.509  0.1909  0.6102 -0.1695
10271TIP3    H155008   1.351   3.568  12.515  0.7345  0.5427 -1.3791
10271TIP3    H255009   1.231   3.480  12.488 -0.2252  0.8511  1.5224
10272TIP3   OH255010   3.295   2.172  12.072 -0.2714  0.0364  0.1280
10272TIP3    H155011   3.319   2.229  11.999  0.0538 -0.3916 -0.1055
10272TIP3    H255012   3.208   2.202  12.099 -0.0451  0.7376  0.1069
10273TIP3   OH255013   1.877   4.390  13.959 -0.3241  0.3945 -0.4180
10273TIP3    H155014   1.963   4.352  13.944 -0.5521 -1.0300  1.5403
10273TIP3    H255015   1.876   4.469  13.904  2.8215  1.3620  0.6914
10274TIP3   OH255016   1.759   0.086  11.934  0.6026  0.0035  0.7300
10274TIP3    H155017   1.726   0.117  12.018 -0.8304  1.5357 -0.3354
10274TIP3    H255018   1.850   0.063  11.951  0.1973 -0.2800  2.8181
10275TIP3   OH255019   6.279   5.839  11.983 -0.1972  0.2524 -0.0724
10275TIP3    H155020   6.226   5.776  12.031 -0.1436  0.3179  0.0728
10275TIP3    H255021   6.322   5.891  12.050 -1.8038  1.7987 -0.1544
10276TIP3   OH255022   0.191   4.123  11.857  0.1638  0.1409  0.3803
10276TIP3    H155023   0.242   4.115  11.776  1.5435 -0.9744  1.3261
10276TIP3    H255024   0.156   4.212  11.854 -0.3112 -0.0511 -1.7067
10277TIP3   OH255025   7.017   4.241  13.173 -0.1386  0.8177  0.1809
10277TIP3    H155026   6.939   4.192  13.199 -0.6306  0.0412 -2.4375
10277TIP3    H255027   6.985   4.304  13.108  1.3544  0.6221 -0.7948
10278TIP3   OH255028   4.309   0.797  12.010  0.1870  0.7659  0.1458
10278TIP3    H155029   4.367   0.721  12.009 -0.2892  0.4031  0.1297
10278TIP3    H255030   4.260   0.790  11.928  0.0862  1.0478  0.1814
10279TIP3   OH255031   6.462   1.629  12.460 -0.3959 -0.1966  0.2398
10279TIP3    H155032   6.496   1.684  12.530  1.8556 -0.7446 -0.3217
10279TIP3    H255033   6.532   1.565  12.444 -2.2914 -2.3161 -0.1136
10280TIP3   OH255034   3.446   1.826  13.873  0.6287  0.0215  0.5990
10280TIP3    H155035   3.524   1.782  13.839  0.5259  0.5260 -0.3284
10280TIP3    H255036   3.440   1.797  13.964  1.4387 -0.6533  0.4553
10281TIP3   OH255037   1.316   3.102  13.281  0.1177  0.7419 -0.2481
10281TIP3    H155038   1.344   3.011  13.278  0.2559  0.7886 -0.4914
10281TIP3    H255039   1.262   3.109  13.359 -0.3853  0.3114 -0.5526
10282TIP3   OH255040   1.227   0.002  13.699 -0.1544  0.1769  0.0635
10282TIP3    H155041   1.140  -0.009  13.735 -1.0221  0.1541 -1.9336
10282TIP3    H255042   1.252  -0.085  13.668  2.0858 -0.6653  3.5718
10283TIP3   OH255043   4.566   7.231  13.012 -0.0232  0.1243  0.2451
10283TIP3    H155044   4.511   7.301  13.047 -1.5918 -1.8250  1.9506
10283TIP3    H255045   4.505   7.161  12.988  1.4396 -0.5969 -1.7329
10284TIP3   OH255046   4.065   0.336  12.393  0.7157  0.0662  0.5372
10284TIP3    H155047   4.004   0.316  12.322  0.4330 -0.8551  1.0237
10284TIP3    H255048   4.084   0.429  12.382  0.1718  0.0917 -0.3507
10285TIP3   OH255049   2.911   0.726  12.474  0.3045  0.2959  0.0014
10285TIP3    H155050   2.971   0.711  12.546  1.8522  2.0949 -0.8306
10285TIP3    H255051   2.844   0.785  12.510  0.2428  0.0274  0.3322
10286TIP3   OH255052   4.298   0.838  12.561 -0.1505 -0.2620  0.6004
10286TIP3    H155053   4.389   0.815  12.544 -0.5229 -0.3635 -1.5146
10286TIP3    H255054   4.247   0.766  12.522 -1.1474 -0.4597  2.1792
10287TIP3   OH255055   3.150   5.519  11.909 -0.2922 -0.2119 -0.0803
10287TIP3    H155056   3.169   5.520  12.003  1.7912 -2.9698 -0.3655
10287TIP3    H255057   3.202   5.591  11.873  0.7892 -0.6168  0.6238
10288TIP3   OH255058   2.645   2.913  11.543  0.1562  0.5994  0.3162
10288TIP3    H155059   2.739   2.910  11.525 -0.1909  1.0525 -1.9320
10288TIP3    H255060   2.630   2.843  11.607  1.9184  0.0578  0.1857
10289TIP3   OH255061   1.901   2.203  12.112 -0.2682  0.2731  0.0655
10289TIP3    H155062   1.993   2.199  12.137 -0.1204  2.7524  0.2449
10289TIP3    H255063   1.894   2.284  12.062 -2.1724 -0.4018 -0.8464
10290TIP3   OH255064   6.426   8.302  12.527  0.2728  0.2164  0.5681
10290TIP3    H155065   6.379   8.277  12.606  0.9574  0.0150  0.9253
10290TIP3    H255066   6.405   8.234  12.464  1.2484 -0.6858  1.1911
10291TIP3   OH255067   6.188   3.026  12.989 -0.6501  0.2066 -0.1355
10291TIP3    H155068   6.140   2.944  12.988 -0.4666  0.1032 -0.6283
10291TIP3    H255069   6.129   3.088  13.031  0.0626 -0.6784  2.3534
10292TIP3   OH255070   3.203   7.107  11.838  0.3514 -0.1370  0.3893
10292TIP3    H155071   3.173   7.036  11.894 -2.5653  2.3623  2.3610
10292TIP3    H255072   3.124   7.139  11.795  1.7583  1.1419 -1.4386
10293TIP3   OH255073   0.827   8.118  13.525 -0.1246 -0.1732  0.7630
10293TIP3    H155074   0.818   8.120  13.620  0.2141  2.2167  0.7969
10293TIP3    H255075   0.789   8.033  13.499 -1.1009 -0.4551  2.9205
10294TIP3   OH255076   4.966   0.777  12.954  0.1211  0.5268 -0.1352
10294TIP3    H155077   4.886   0.828  12.938  0.3901  0.7767 -0.6892
10294TIP3    H255078   4.958   0.702  12.895 -0.5056 -0.3436  1.0227
10295TIP3   OH255079   3.624   0.252  13.597  0.3956 -0.3240  0.0841
10295TIP3    H155080   3.694   0.316  13.585  0.0596  0.2850  1.2054
10295TIP3    H255081   3.545   0.299  13.568 -0.0058  0.1693  1.8950
10296TIP3   OH255082   6.671   0.886  12.121 -0.2492  0.3894  0.3368
10296TIP3    H155083   6.697   0.959  12.065  1.6803 -0.3009  0.2513
10296TIP3    H255084   6.655   0.925  12.206  1.4246  0.8648  0.4638
10297TIP3   OH255085   3.501   8.856  12.708 -0.2166 -1.0033  0.2416
10297TIP3    H155086   3.536   8.891  12.790 -0.2702  0.2082 -0.2294
10297TIP3    H255087   3.421   8.811  12.734 -0.4165 -0.3420  0.8180
10298TIP3   OH255088   6.849   7.864  13.224  0.0246  0.3259  0.2976
10298TIP3    H155089   6.770   7.813  13.208  1.8475 -1.7800 -3.0663
10298TIP3    H255090   6.823   7.955  13.210 -2.1023 -0.1496  0.9198
10299TIP3   OH255091   1.516   8.133  13.613  0.2865  0.1040 -0.4704
10299TIP3    H155092   1.532   8.073  13.540  1.2989 -1.0264  0.6373
10299TIP3    H255093   1.520   8.221  13.573  1.5056 -0.4475 -1.6568
10300TIP3   OH255094   0.995   2.894  11.787  0.4860 -0.4022  0.3388
10300TIP3    H155095   0.902   2.916  11.779  0.7634  0.7951  0.1140
10300TIP3    H255096   1.037   2.978  11.806  2.0402  0.0517 -3.8710
10301TIP3   OH255097   6.756   2.250  11.584  0.0646  0.5616  0.1097
10301TIP3    H155098   6.720   2.332  11.551  0.8111  1.0470  0.4899
10301TIP3    H255099   6.681   2.206  11.624 -0.5135  0.6759 -0.8217
10302TIP3   OH255100   4.486   9.149  12.662 -0.5472  0.2981 -0.1667
10302TIP3    H155101   4.572   9.108  12.661 -0.6406  0.1029 -0.3919
10302TIP3    H255102   4.501   9.240  12.639 -0.4857  0.0980 -0.9333
10303TIP3   OH255103   8.830   2.961  13.056 -0.1305  0.0085 -0.0986
10303TIP3    H155104   8.767   2.906  13.009  1.0118 -0.7215 -0.8180
10303TIP3    H255105   8.873   2.901  13.117  1.5782 -0.0968 -1.3331
10304TIP3   OH255106   1.196   4.202  13.078 -0.1754  0.4982  0.3997
10304TIP3    H155107   1.205   4.295  13.099 -1.7300  0.3456  1.8930
10304TIP3    H255108   1.285   4.167  13.086  0.2006  1.5830  1.1783
10305TIP3   OH255109   3.993   0.785  12.324  0.1135 -0.2609 -0.0579
10305TIP3    H155110   3.906   0.746  12.336 -0.5716  1.1425 -0.3238
10305TIP3    H255111   4.027   0.743  12.245 -0.2019 -1.0056  0.1847
10306TIP3   OH255112   8.120   3.430  12.129 -0.4998 -0.1014 -0.4919
10306TIP3    H155113   8.158   3.400  12.211  0.2814  2.8661  0.3697
10306TIP3    H255114   8.193   3.471  12.082 -1.4559  0.5246 -1.4859
10307TIP3   OH255115   6.518   8.231  11.905  0.3266 -0.0761 -0.5170
10307TIP3    H155116   6.586   8.219  11.972  0.4253  0.1787 -0.5675
10307TIP3    H255117   6.436   8.217  11.952  0.3224  1.4559  0.0022
10308TIP3   OH255118   1.241   1.999  13.469 -0.2412  0.2054 -0.5931
10308TIP3    H155119   1.154   1.972  13.440  0.2014 -1.0047 -0.8973
10308TIP3    H255120   1.261   1.940  13.542  0.4417  0.2491 -0.7387
10309TIP3   OH255121   8.728   3.312  11.640  0.0614 -0.5111  0.0093
10309TIP3    H155122   8.723   3.253  11.565  1.4070  0.0425 -0.5512
10309TIP3    H255123   8.822   3.326  11.653 -0.1798  0.1258  1.2295
10310TIP3   OH255124   5.351   3.711  12.911 -0.4919  0.2419  0.3815
10310TIP3    H155125   5.363   3.689  13.003 -1.7669 -2.5730 -0.0229
10310TIP3    H255126   5.349   3.626  12.866  0.4247  1.5323 -2.3196
10311TIP3   OH255127   4.586   7.599  12.825 -0.3345  0.5066 -0.4107
10311TIP3    H155128   4.546   7.610  12.739 -2.2136 -0.5767  0.2575
10311TIP3    H255129   4.560   7.678  12.873 -0.8449  0.2616 -0.2806
10312TIP3   OH255130   2.598   3.599  13.241 -0.0117  0.3818 -0.0082
10312TIP3    H155131   2.565   3.689  13.244 -1.2597 -0.0670  0.8426
10312TIP3    H255132   2.557   3.556  13.316  2.0969 -0.4106  0.7699
10313TIP3   OH255133   2.322   7.980  12.818 -0.1259 -0.6197  0.2827
10313TIP3    H155134   2.295   7.912  12.879 -1.1550  0.3034  0.9067
10313TIP3    H255135   2.363   8.047  12.873 -0.0130 -0.2914 -0.1911
10314TIP3   OH255136   3.905   8.524  12.563 -0.0514  0.3478 -0.0477
10314TIP3    H155137   3.973   8.555  12.623 -0.1694 -1.0459  0.8517
10314TIP3    H255138   3.836   8.590  12.570 -0.9435 -0.7370  2.9625
10315TIP3   OH255139   0.214   1.792  12.096  0.4124 -0.3026 -0.6832
10315TIP3    H155140   0.118   1.790  12.096  0.3734 -0.2886 -3.0273
10315TIP3    H255141   0.237   1.852  12.167 -1.3140 -0.0487 -0.3055
10316TIP3   OH255142   0.595   2.411  11.630 -0.1729  0.0271  0.6243
10316TIP3    H155143   0.687   2.427  11.652 -0.4860  0.1423  1.9183
10316TIP3    H255144   0.561   2.359  11.703 -1.2190  0.2580  0.3237
10317TIP3   OH255145   3.176   2.890  13.116  0.1180  0.5048 -0.3083
10317TIP3    H155146   3.242   2.920  13.053  0.7594  0.2822  0.2390
10317TIP3    H255147   3.134   2.970  13.147 -0.1229  0.6237 -0.9333
10318TIP3   OH255148   1.881   4.596  13.780 -0.5535 -0.0416  0.4458
10318TIP3    H155149   1.938   4.653  13.730  0.6092 -1.8210 -0.3849
10318TIP3    H255150   1.823   4.655  13.828  0.8809  1.7978  0.0249
10319TIP3   OH255151   0.837   3.354  12.184  0.2887 -0.0651 -0.3196
10319TIP3    H155152   0.806   3.265  12.202  0.4846 -0.7142 -2.7637
10319TIP3    H255153   0.765   3.410  12.212 -1.1257 -1.2218 -1.4309
10320TIP3   OH255154   0.881   4.053  12.608  0.3515 -0.1705 -0.2354
10320TIP3    H155155   0.960   4.086  12.566  1.6370 -1.8375  0.7398
10320TIP3    H255156   0.869   4.111  12.684  0.4713  0.2658 -0.5450
10321TIP3   OH255157   3.539   3.087  12.277 -0.4884 -0.1782 -0.3501
10321TIP3    H155158   3.540   3.072  12.372 -1.1273 -0.7438 -0.4252
10321TIP3    H255159   3.544   3.000  12.239 -0.2105  0.0523 -0.8391
10322TIP3   OH255160   3.462   6.940  13.414  0.0386 -0.5633 -0.2681
10322TIP3    H155161   3.479   6.865  13.358 -0.4589 -0.1153 -1.0502
10322TIP3    H255162   3.470   7.016  13.356  0.6226 -0.0039  0.5230
10323TIP3   OH255163   7.480   8.853  12.331  0.4842 -0.3420 -0.1442
10323TIP3    H155164   7.407   8.799  12.363  0.8435  0.3296  2.0070
10323TIP3    H255165   7.543   8.853  12.403  0.8289  2.3104 -0.3309
10324TIP3   OH255166   6.511   0.401  12.628  0.2529 -0.0313 -0.5319
10324TIP3    H155167   6.445   0.357  12.683  0.7614 -0.2094 -0.0590
10324TIP3    H255168   6.594   0.363  12.656  0.6857  1.0867 -0.2601
10325TIP3   OH255169   5.093   1.846  11.458  0.0196 -0.2586  0.0227
10325TIP3    H155170   5.077   1.932  11.419 -1.2716 -0.2992  0.4089
10325TIP3    H255171   5.018   1.832  11.516 -1.2504 -2.7699 -2.0067
10326TIP3   OH255172   5.860   2.069  12.915  0.1447 -0.7099 -0.1305
10326TIP3    H155173   5.947   2.074  12.953  0.8851 -0.0944 -1.7875
10326TIP3    H255174   5.869   2.109  12.828 -2.2468  1.3077  0.4189
10327TIP3   OH255175   5.026   5.372  11.701  0.1236 -0.1101 -0.0394
10327TIP3    H155176   4.998   5.368  11.610  0.1491  0.4175 -0.0691
10327TIP3    H255177   4.984   5.450  11.736  1.0478  0.3393  0.0879
10328TIP3   OH255178   6.033   4.958  11.812 -0.3306  0.1086 -0.3962
10328TIP3    H155179   6.064   5.048  11.823  0.8462 -0.3541  0.1741
10328TIP3    H255180   5.952   4.967  11.762 -1.1080  1.6202  1.0403
10329TIP3   OH255181   6.175   4.887  13.216 -0.6702  0.3069 -0.7662
10329TIP3    H155182   6.090   4.871  13.176 -1.2619 -0.1424  0.6223
10329TIP3    H255183   6.174   4.836  13.297  1.8930 -1.7478 -1.8853
10330TIP3   OH255184   2.745   6.162  12.840  0.0271 -0.0800 -0.1755
10330TIP3    H155185   2.739   6.226  12.769 -0.9472 -0.2394 -0.2484
10330TIP3    H255186   2.838   6.139  12.844  0.3288  1.0228 -0.4213
10331TIP3   OH255187   6.954   8.435  13.336  0.4863  0.0889  0.3582
10331TIP3    H155188   6.966   8.490  13.413  0.1758  0.5490  0.0802
10331TIP3    H255189   6.908   8.491  13.273  2.6232  0.4844 -0.9793
10332TIP3   OH255190   0.691   2.121  12.113 -0.3772  0.1519  0.0400
10332TIP3    H155191   0.712   2.186  12.179  2.0319  0.4981 -0.9507
10332TIP3    H255192   0.692   2.169  12.030 -2.9736 -0.3381 -0.3704
10333TIP3   OH255193   7.904   8.222  11.416  0.1458 -0.1904 -0.3949
10333TIP3    H155194   7.888   8.128  11.405  0.4602 -0.4494  1.1863
10333TIP3    H255195   7.984   8.228  11.467  1.2304  1.0028 -2.1357
10334TIP3   OH255196   0.039   6.571  13.506 -0.4494 -0.6998 -0.0660
10334TIP3    H155197  -0.022   6.622  13.559 -0.0254 -1.0539  0.7769
10334TIP3    H255198  -0.015   6.503  13.466 -0.9955  0.3101 -1.0996
10335TIP3   OH255199   4.288   3.238  12.919 -0.1259 -0.0805  0.3296
10335TIP3    H155200   4.257   3.195  12.999 -2.3926  1.1811  0.2257
10335TIP3    H255201   4.289   3.331  12.940  1.9509  0.0846 -0.3051
10336TIP3   OH255202   0.664   4.968  12.737  0.3281 -0.2012 -0.4800
10336TIP3    H155203   0.750   4.926  12.741 -0.7270 -2.4527 -0.0191
10336TIP3    H255204   0.602   4.897  12.750 -1.6538  1.2787 -1.4043
10337TIP3   OH255205   1.806   4.209  13.153  0.5343  0.0692 -0.0078
10337TIP3    H155206   1.761   4.211  13.238  2.2838 -2.1407  1.0724
10337TIP3    H255207   1.893   4.243  13.171  0.0272  2.5300 -1.6797
10338TIP3   OH255208   4.034   0.666  13.478  0.0415 -0.1270  0.1735
10338TIP3    H155209   4.028   0.591  13.419  0.2013 -0.6280  0.7810
10338TIP3    H255210   4.100   0.723  13.438 -1.1257  0.4110 -1.0580
10339TIP3   OH255211   1.066   3.531  13.304 -0.5077  0.0131  0.3980
10339TIP3    H155212   1.021   3.615  13.318 -1.5375 -0.4275 -0.1614
10339TIP3    H255213   1.089   3.532  13.211  2.1233  0.9236  0.9916
10340TIP3   OH255214   5.216   4.500  11.586  0.4933  0.4668  0.1473
10340TIP3    H155215   5.145   4.528  11.528  1.0439  0.0051 -0.7572
10340TIP3    H255216   5.207   4.557  11.663 -1.3614 -0.1192  0.4335
10341TIP3   OH255217   9.120   5.087  11.999  0.0106  0.4410 -0.0761
10341TIP3    H155218   9.067   5.050  11.928  1.5600 -1.1928 -0.4615
10341TIP3    H255219   9.144   5.174  11.967 -1.8856  0.9976 -0.1362
10342TIP3   OH255220   3.161   2.866  11.766 -0.2524  0.0365 -0.1377
10342TIP3    H155221   3.171   2.806  11.840 -1.7892  1.1048  1.0228
10342TIP3    H255222   3.231   2.842  11.706  1.2615 -0.7106  1.7958
10343TIP3   OH255223   1.425   2.921  11.818  0.6676  0.3224 -0.3466
10343TIP3    H155224   1.375   2.988  11.864  0.7758  0.9387 -1.1045
10343TIP3    H255225   1.360   2.860  11.785  0.6087 -0.3291  0.9033
10344TIP3   OH255226   3.810   2.103  12.631  0.7192  0.5602  0.1342
10344TIP3    H155227   3.866   2.162  12.581  0.4497 -0.5753 -1.5981
10344TIP3    H255228   3.860   2.022  12.637 -0.8701 -0.6621 -1.9302
10345TIP3   OH255229   3.065   3.092  11.904  0.0255 -0.0443 -0.6949
10345TIP3    H155230   3.107   3.029  11.846 -1.2619 -0.6754 -0.9915
10345TIP3    H255231   3.137   3.140  11.944  0.9575  0.1944 -2.5620
10346TIP3   OH255232   1.727   1.372  12.275 -0.4982  0.7051  0.4612
10346TIP3    H155233   1.709   1.449  12.329  0.1461  0.5169  0.9587
10346TIP3    H255234   1.656   1.311  12.296 -2.4769  2.0354 -1.7664
10347TIP3   OH255235   1.475   3.904  12.900  0.3087 -0.2079  0.1045
10347TIP3    H155236   1.512   3.915  12.813  0.4389  2.1833  0.3847
10347TIP3    H255237   1.544   3.933  12.959 -0.8621  1.2845  0.8061
10348TIP3   OH255238   5.947   4.545  12.700 -0.2566 -0.0093  0.4549
10348TIP3    H155239   5.895   4.567  12.776 -2.1758 -1.3458 -0.3996
10348TIP3    H255240   6.019   4.492  12.734 -0.5579  0.1960  1.4336
10349TIP3   OH255241   7.407   0.344  11.715  0.2005 -0.3085 -0.7275
10349TIP3    H155242   7.461   0.356  11.637  0.1188 -0.8956 -0.8742
10349TIP3    H255243   7.469   0.325  11.785  0.1977 -0.9413 -0.8882
10350TIP3   OH255244   1.840   2.425  13.799  0.0178 -0.2298  0.0238
10350TIP3    H155245   1.849   2.335  13.770  1.9862  0.5368 -1.9841
10350TIP3    H255246   1.926   2.450  13.831 -0.0002  1.4298 -1.0760
10351TIP3   OH255247   5.211   5.608  11.831 -0.6579  0.2103 -0.0333
10351TIP3    H155248   5.290   5.630  11.781 -0.6264  0.6828  0.2222
10351TIP3    H255249   5.169   5.538  11.780 -0.7419  0.8377 -0.8329
10352TIP3   OH255250   2.591   6.384  12.082  0.3739  0.3489  0.1008
10352TIP3    H155251   2.587   6.477  12.104 -1.9252 -0.2442  2.6891
10352TIP3    H255252   2.543   6.377  12.000  0.2484  1.3814  0.0743
10353TIP3   OH255253   7.666   5.406  12.780 -0.2636 -0.2177  0.3686
10353TIP3    H155254   7.571   5.421  12.788  0.1320  2.5307  0.9491
10353TIP3    H255255   7.704   5.458  12.851  1.6759 -1.9981  0.7219
10354TIP3   OH255256   7.475   8.308  11.360 -0.3220  0.2096  0.6101
10354TIP3    H155257   7.411   8.355  11.413  0.2790  1.1293  0.5389
10354TIP3    H255258   7.538   8.375  11.332  1.4340 -0.8647  1.7754
10355TIP3   OH255259   6.385   8.075  12.978 -0.0771  0.1127 -0.4092
10355TIP3    H155260   6.297   8.113  12.974  0.5144  1.4599 -2.1036
10355TIP3    H255261   6.443   8.146  12.952  1.5032 -0.8360  0.3632
10356TIP3   OH255262   3.683   7.453  12.701  0.0271  0.6050  0.6326
10356TIP3    H155263   3.763   7.453  12.649 -0.4411 -0.7174 -0.1701
10356TIP3    H255264   3.696   7.383  12.765 -0.6583  0.0056  0.1474
10357TIP3   OH255265   8.703   2.232  12.954 -0.3306 -0.1565  0.8317
10357TIP3    H155266   8.649   2.186  13.018 -1.0607  0.8022  0.9288
10357TIP3    H255267   8.778   2.174  12.940 -1.0882 -1.2454  1.1327
10358TIP3   OH255268   1.258   2.523  13.199  0.0739 -0.1329 -0.3362
10358TIP3    H155269   1.330   2.573  13.237 -1.4927  2.3016 -0.3833
10358TIP3    H255270   1.201   2.588  13.158  0.0096 -2.2643 -4.1907
10359TIP3   OH255271   0.378   4.789  12.322 -0.4830 -0.4586  0.1865
10359TIP3    H155272   0.297   4.797  12.272 -1.0300  0.2893  1.1489
10359TIP3    H255273   0.387   4.872  12.368 -0.6193 -1.4931  2.1980
10360TIP3   OH255274   4.275   0.043  12.820 -0.0505 -0.5661  0.1008
10360TIP3    H155275   4.325  -0.005  12.755  0.5286  0.1326  0.0202
10360TIP3    H255276   4.340   0.075  12.882 -0.1695  1.5221 -0.7457
10361TIP3   OH255277   7.190   3.587  13.330  0.0596  0.3087  0.6176
10361TIP3    H155278   7.141   3.597  13.249  1.7089 -1.6516 -0.7369
10361TIP3    H255279   7.172   3.498  13.359  2.7362 -0.5406  0.0020
10362TIP3   OH255280   1.611   3.296  13.866  0.6230 -0.2933 -0.7485
10362TIP3    H155281   1.595   3.203  13.884  0.6395 -0.6002 -2.2526
10362TIP3    H255282   1.533   3.325  13.818  0.5565  0.5208 -0.1704
10363TIP3   OH255283   7.711   0.996  12.662 -0.2312 -0.3699 -0.2445
10363TIP3    H155284   7.767   0.962  12.592  0.6373  1.4346 -0.4862
10363TIP3    H255285   7.772   1.021  12.731 -1.0070 -1.2199  0.7819
10364TIP3   OH255286   6.244   0.354  12.733 -0.2287  0.4209 -0.0052
10364TIP3    H155287   6.222   0.376  12.643 -1.1989  1.3667  0.4466
10364TIP3    H255288   6.187   0.409  12.786  0.3792 -0.0681  1.1931
10365TIP3   OH255289   3.171   5.954  13.272 -0.2314 -0.7268  0.0382
10365TIP3    H155290   3.243   6.016  13.285  0.0872 -1.2649  0.9354
10365TIP3    H255291   3.124   5.955  13.356 -1.2602 -0.4048 -0.5307
10366TIP3   OH255292   4.194   3.495  13.043  1.0947  0.0231 -0.0996
10366TIP3    H155293   4.225   3.499  13.133 -2.1866  0.2779  1.1525
10366TIP3    H255294   4.257   3.546  12.993  2.3828  0.8520  2.2413
10367TIP3   OH255295   2.490   3.875  13.618  0.1173  0.0763  0.1883
10367TIP3    H155296   2.570   3.827  13.597  0.2132  1.1558 -2.2253
10367TIP3    H255297   2.510   3.965  13.594 -2.0315  0.2526 -1.1480
10368TIP3   OH255298   3.891   4.576  13.366 -0.0979 -0.3272  0.0346
10368TIP3    H155299   3.961   4.613  13.313 -1.2750  1.6483 -0.2249
10368TIP3    H255300   3.911   4.604  13.455 -0.1526 -0.4013  0.0708
10369TIP3   OH255301   4.782   1.259  13.608 -0.5454 -0.1038 -0.6041
10369TIP3    H155302   4.762   1.352  13.600 -1.1325 -0.3725 -2.8795
10369TIP3    H255303   4.699   1.220  13.639 -1.0735 -0.1462 -2.0012
10370TIP3   OH255304   1.589   6.250  12.699  0.0939  0.3928 -0.7985
10370TIP3    H155305   1.623   6.339  12.711  0.3465  0.2517 -0.4438
10370TIP3    H255306   1.668   6.196  12.689 -0.0681  0.2877 -1.6180
10371TIP3   OH255307   0.220   3.590  13.441  0.1282 -0.0683 -0.4489
10371TIP3    H155308   0.155   3.605  13.510  0.5771  0.1233 -0.0672
10371TIP3    H255309   0.174   3.535  13.377  0.0171 -1.0440  0.4465
10372TIP3   OH255310   4.852   8.803  13.265 -0.6277  0.1982 -0.6084
10372TIP3    H155311   4.897   8.718  13.265 -0.7671  0.1080 -2.1940
10372TIP3    H255312   4.919   8.865  13.237 -1.1084  0.2747 -1.6060
10373TIP3   OH255313   2.450   4.395  13.359 -0.0103  0.3532  0.7301
10373TIP3    H155314   2.514   4.387  13.430  0.2438  2.1092  0.7324
10373TIP3    H255315   2.365   4.396  13.404 -0.0706 -1.4929  0.7567
10374TIP3   OH255316   8.463   0.296  12.168  0.0400  0.4959  0.0827
10374TIP3    H155317   8.397   0.256  12.225 -1.0203  2.0963  0.0450
10374TIP3    H255318   8.470   0.386  12.199  1.0879  0.7923 -0.9259
10375TIP3   OH255319   4.000   7.108  12.754  0.1534 -0.5362 -0.2494
10375TIP3    H155320   3.980   7.192  12.795  1.0890 -1.1527  1.5680
10375TIP3    H255321   3.952   7.043  12.806  1.7031 -1.3856  0.1752
10376TIP3   OH255322   3.826   1.676  11.932 -0.5573 -0.0601 -0.1471
10376TIP3    H155323   3.751   1.721  11.895 -1.1326 -0.4062  0.5747
10376TIP3    H255324   3.799   1.653  12.021  0.6370  0.4159  0.3706
10377TIP3   OH255325   0.185   0.882  11.812  0.2940  0.1692 -0.1949
10377TIP3    H155326   0.223   0.900  11.898 -0.8311  1.9754 -0.0237
10377TIP3    H255327   0.197   0.962  11.762 -0.8867 -0.1237 -1.0108
10378TIP3   OH255328   3.276   4.233  13.184 -0.2529  0.2205  0.4754
10378TIP3    H155329   3.222   4.155  13.171 -1.3395  1.0629 -0.2489
10378TIP3    H255330   3.336   4.209  13.255 -1.4372 -0.8147  1.1747
10379TIP3   OH255331   7.978   2.639  12.740 -0.0623  0.4160 -0.5821
10379TIP3    H155332   7.931   2.616  12.820  0.5102  0.1313 -0.3205
10379TIP3    H255333   7.978   2.559  12.687  1.3212 -0.0217  0.0253
10380TIP3   OH255334   0.779   3.357  12.935  0.0061 -0.6405 -0.4093
10380TIP3    H155335   0.722   3.371  12.859 -1.5642 -0.0819  0.8036
10380TIP3    H255336   0.850   3.302  12.902 -0.4074 -0.0977 -2.3612
10381TIP3   OH255337   7.314   1.389  12.770  0.2801 -0.1073 -0.4502
10381TIP3    H155338   7.343   1.362  12.682  0.9943 -0.6574 -0.0599
10381TIP3    H255339   7.364   1.468  12.788  0.4909 -0.2648 -0.3448
10382TIP3   OH255340   0.821   8.222  13.176 -0.3774  0.5804 -0.7078
10382TIP3    H155341   0.808   8.143  13.227  1.4247  0.7659  0.1192
10382TIP3    H255342   0.763   8.287  13.217 -0.6752  0.1205 -0.3922
10383TIP3   OH255343   8.092   3.849  12.092  0.0950 -0.4320  0.5382
10383TIP3    H155344   8.075   3.774  12.150  1.1308 -0.9864  0.1498
10383TIP3    H255345   8.132   3.914  12.149  0.0414 -0.5253  0.6849
10384TIP3   OH255346   3.626   1.363  11.803  0.0347 -0.1218  0.3256
10384TIP3    H155347   3.628   1.420  11.726  0.3316  0.8072  0.9972
10384TIP3    H255348   3.716   1.361  11.834 -0.2611  0.4125  1.2753
10385TIP3   OH255349   3.617   6.160  13.036 -0.4441  0.0805 -0.0470
10385TIP3    H155350   3.632   6.127  12.947 -1.1203  0.3075 -0.2426
10385TIP3    H255351   3.636   6.253  13.031 -0.7854  0.1516 -0.0252
10386TIP3   OH255352   0.672   1.821  12.686 -0.3162 -0.2532 -0.1370
10386TIP3    H155353   0.633   1.858  12.764 -0.7794 -0.2253 -0.3825
10386TIP3    H255354   0.651   1.727  12.690  1.6194 -0.6923  0.9511
10387TIP3   OH255355   6.985   2.850  12.523 -0.4730 -0.2805  0.3966
10387TIP3    H155356   7.031   2.855  12.607 -0.6387  0.3505  0.4485
10387TIP3    H255357   6.892   2.855  12.547 -0.5702 -1.2588  0.2669
10388TIP3   OH255358   7.950   0.960  13.351  0.0363  0.0753  0.5231
10388TIP3    H155359   7.972   0.981  13.260 -0.7891 -0.0343  0.2886
10388TIP3    H255360   7.855   0.974  13.356  0.1094  0.2891  1.4260
10389TIP3   OH255361   7.702   4.923  13.171 -0.0961  0.5176  0.0014
10389TIP3    H155362   7.790   4.929  13.208 -0.0210  1.4365 -0.2871
10389TIP3    H255363   7.694   5.003  13.118 -1.0836  0.4159 -0.0050
10390TIP3   OH255364   4.911   9.038  11.988 -0.1390 -0.2156 -0.4913
10390TIP3    H155365   4.965   8.963  12.012  0.1007  0.3072  0.6930
10390TIP3    H255366   4.860   9.057  12.067 -1.5744 -0.2842 -1.3709
10391TIP3   OH255367   3.814   2.719  12.485 -0.2811  0.5698 -0.2811
10391TIP3    H155368   3.804   2.677  12.399  0.4876  1.7005 -0.9631
10391TIP3    H255369   3.726   2.722  12.521 -0.5776 -0.1808 -0.9184
10392TIP3   OH255370   7.604   4.376  13.001 -0.3751 -0.3827  0.8964
10392TIP3    H155371   7.699   4.373  13.005 -0.2367  0.5891 -0.7936
10392TIP3    H255372   7.579   4.437  13.071  0.2036 -0.9910  1.6404
10393TIP3   OH255373   6.650   4.931  11.786  0.1938 -0.7028 -0.3103
10393TIP3    H155374   6.590   4.858  11.771 -1.1811  0.5264 -1.0287
10393TIP3    H255375   6.722   4.916  11.726 -1.3078 -0.1791 -2.3432
10394TIP3   OH255376   2.534   3.629  12.757 -0.4966 -0.7649  0.1955
10394TIP3    H155377   2.494   3.611  12.842  1.0843 -0.8189  0.9607
10394TIP3    H255378   2.563   3.544  12.725  0.0658 -0.5816  0.2083
10395TIP3   OH255379   4.950   0.435  11.588 -0.3833 -0.6252  0.2461
10395TIP3    H155380   4.938   0.500  11.657 -0.0932 -0.4036  0.0903
10395TIP3    H255381   4.954   0.486  11.507  0.9574 -0.7294  0.2276
10396TIP3   OH255382   8.517   8.547  12.083 -0.3728 -0.1969  0.0998
10396TIP3    H155383   8.554   8.460  12.069 -0.3712 -0.0296 -1.0211
10396TIP3    H255384   8.534   8.566  12.175  1.8909 -0.3361 -0.2419
10397TIP3   OH255385   7.480   4.802  12.645 -0.7943  0.1743 -0.0076
10397TIP3    H155386   7.507   4.741  12.713 -0.8714  0.1876  0.0349
10397TIP3    H255387   7.385   4.795  12.642 -0.6856 -1.3434 -1.5299
10398TIP3   OH255388   4.641   8.483  12.126 -0.3034  0.0321 -0.6819
10398TIP3    H155389   4.659   8.577  12.116  2.2039 -0.2823  0.0446
10398TIP3    H255390   4.576   8.478  12.196 -0.8458  1.2525 -1.0797
10399TIP3   OH255391   1.321   6.342  12.239  0.6278  0.0312  0.0561
10399TIP3    H155392   1.263   6.286  12.291 -0.0108  1.2047  0.6515
10399TIP3    H255393   1.390   6.368  12.300  2.2376 -1.9140 -0.8285
10400TIP3   OH255394   5.706   6.667  12.125  0.4324  0.0236  0.2366
10400TIP3    H155395   5.662   6.582  12.128  0.0454  0.2091 -0.0802
10400TIP3    H255396   5.746   6.677  12.211 -1.0241  0.3117  0.9097
10401TIP3   OH255397   3.375   1.973  11.874 -0.2479  0.3505  0.4217
10401TIP3    H155398   3.354   2.034  11.944 -0.1151  0.3874  0.4285
10401TIP3    H255399   3.326   2.005  11.798 -1.9581 -0.7748  0.9876
10402TIP3   OH255400   7.980   1.197  12.075 -0.6326  0.7226  0.5913
10402TIP3    H155401   7.973   1.247  11.994 -0.9269  1.5075  1.0897
10402TIP3    H255402   7.897   1.213  12.120 -0.5876  0.0608  0.9172
10403TIP3   OH255403   7.344   3.908  12.239  0.5009  0.1916 -0.2435
10403TIP3    H155404   7.252   3.933  12.234  0.8670  1.4731 -1.1182
10403TIP3    H255405   7.372   3.939  12.325 -0.2449 -1.6155  0.6919
10404TIP3   OH255406   2.109   4.421  12.414 -0.0237 -0.2848  0.8584
10404TIP3    H155407   2.139   4.496  12.466  0.0679 -0.2166  0.7092
10404TIP3    H255408   2.098   4.351  12.477 -2.2599  0.4586  1.3693
10405TIP3   OH255409   1.093   2.707  13.066 -0.0965  0.5155 -0.2506
10405TIP3    H155410   1.005   2.701  13.028  0.5845  1.1437 -2.0210
10405TIP3    H255411   1.126   2.792  13.038 -0.0532  1.7401  3.0653
10406TIP3   OH255412   5.917   4.567  12.061  0.0510 -0.4600 -0.2994
10406TIP3    H155413   5.997   4.616  12.079 -0.4300 -0.5157  2.3110
10406TIP3    H255414   5.851   4.605  12.118 -1.0411 -2.3153 -0.2317
10407TIP3   OH255415   2.779   3.085  12.352  0.5527  0.0484 -0.9581
10407TIP3    H155416   2.804   3.166  12.308 -1.0285  1.2927  0.3049
10407TIP3    H255417   2.725   3.113  12.426 -0.8171 -2.1969 -1.0069
10408TIP3   OH255418   6.598   5.213  11.843  0.0431  0.2394  0.3472
10408TIP3    H155419   6.590   5.145  11.776  1.5744  0.3305  0.0270
10408TIP3    H255420   6.563   5.291  11.801 -2.3027 -0.4428  0.9370
10409TIP3   OH255421   0.166   8.992  12.869  0.4342 -0.0253 -0.1538
10409TIP3    H155422   0.076   8.995  12.834  0.5797  1.0289 -0.4722
10409TIP3    H255423   0.177   8.901  12.898 -0.9014 -0.0711  0.3248
10410TIP3   OH255424   8.755   2.584  11.423 -0.5060  0.1628 -0.1254
10410TIP3    H155425   8.836   2.611  11.466 -0.1652  0.6603 -1.0423
10410TIP3    H255426   8.746   2.645  11.349 -2.7302  1.3852  1.0441
10411TIP3   OH255427   6.699   7.845  12.846 -0.0221 -0.3523  0.3221
10411TIP3    H155428   6.668   7.764  12.806  1.8827 -1.4286  0.8941
10411TIP3    H255429   6.713   7.822  12.938  2.1534  0.0935  0.1509
10412TIP3   OH255430   2.764   9.090  12.881 -0.7633 -0.7673 -0.4315
10412TIP3    H155431   2.810   9.149  12.941 -0.7853 -0.7075 -0.4730
10412TIP3    H255432   2.820   9.013  12.876  0.3818  0.1097 -2.0664
10413TIP3   OH255433   5.694   5.205  11.784 -0.2069  0.3799 -0.2755
10413TIP3    H155434   5.780   5.186  11.822 -1.2945  0.1558  2.2843
10413TIP3    H255435   5.673   5.126  11.733  1.7802  1.1422 -2.4283
10414TIP3   OH255436   0.754   2.678  12.701  0.3821 -0.2237  0.2824
10414TIP3    H155437   0.794   2.606  12.750  0.4141  0.1056  0.7494
10414TIP3    H255438   0.828   2.719  12.655  0.6081  0.4236  1.1949
10415TIP3   OH255439   3.389   1.709  13.609  0.1777 -0.2494  0.0013
10415TIP3    H155440   3.376   1.757  13.690 -1.5083 -0.2695 -0.2260
10415TIP3    H255441   3.450   1.763  13.559 -1.2164  1.4045 -0.0155
10416TIP3   OH255442   3.172   0.976  12.747 -0.4542  0.1242 -0.0166
10416TIP3    H155443   3.185   0.899  12.803 -1.6698  1.1672  1.8187
10416TIP3    H255444   3.257   1.019  12.745  0.1227 -0.9753 -0.6909
10417TIP3   OH255445   6.319   4.777  12.357  0.0466  0.3774 -0.2115
10417TIP3    H155446   6.403   4.812  12.328  0.4394 -1.4104 -1.4414
10417TIP3    H255447   6.329   4.682  12.349 -1.7665  0.0805  0.5588
10418TIP3   OH255448   4.200   4.747  11.730 -0.4127 -0.2230 -0.4648
10418TIP3    H155449   4.254   4.668  11.721  0.7295  0.4892 -0.0180
10418TIP3    H255450   4.187   4.778  11.641  1.0102  0.3046 -0.5057
10419TIP3   OH255451   3.002   7.648  13.142  0.5544 -0.0978  0.6950
10419TIP3    H155452   3.008   7.601  13.059 -0.4870  0.2659  0.4053
10419TIP3    H255453   2.936   7.600  13.192  0.5462  0.1991  0.9746
10420TIP3   OH255454   8.949   4.166  13.693  0.0141 -0.2636 -0.5420
10420TIP3    H155455   8.935   4.093  13.754  3.3242 -1.8129 -1.4244
10420TIP3    H255456   8.911   4.135  13.610 -2.1626  0.7809 -0.0088
10421TIP3   OH255457   6.878   3.568  12.549 -0.0415 -0.1041 -0.1222
10421TIP3    H155458   6.905   3.582  12.459  1.1140 -0.8231  0.0984
10421TIP3    H255459   6.862   3.474  12.555  0.9085 -0.2315  0.6739
10422TIP3   OH255460   3.113   8.464  12.701  0.4245 -0.2452 -0.0068
10422TIP3    H155461   3.111   8.489  12.609 -1.0864  0.9544  0.3002
10422TIP3    H255462   3.206   8.453  12.721  0.7047 -2.4663 -2.1178
10423TIP3   OH255463   0.681   2.206  12.640 -0.8468 -0.0279  0.6595
10423TIP3    H155464   0.711   2.131  12.691 -2.2633  0.1790  1.8743
10423TIP3    H255465   0.643   2.169  12.561  0.0804 -0.4408  0.3855
10424TIP3   OH255466   6.799   0.894  12.630 -0.0320 -0.3973 -0.3196
10424TIP3    H155467   6.816   0.859  12.718 -1.1543 -1.3788 -0.4658
10424TIP3    H255468   6.879   0.873  12.581 -0.3829 -2.1953 -0.2011
10425TIP3   OH255469   3.895   2.413  11.715  0.0353 -0.4865  0.1299
10425TIP3    H155470   3.850   2.479  11.662  1.4499 -0.0695 -0.6150
10425TIP3    H255471   3.959   2.374  11.655  0.2616 -1.4709  0.9847
10426TIP3   OH255472   7.005   4.203  11.989 -0.3135  0.2496 -0.3680
10426TIP3    H155473   7.064   4.190  12.063 -0.4676  1.7523  0.0453
10426TIP3    H255474   6.951   4.124  11.987 -0.2197  0.1388  1.0479
10427TIP3   OH255475   2.582   5.442  12.805 -0.0043 -0.3795  0.8286
10427TIP3    H155476   2.615   5.479  12.723 -0.1723 -2.6805 -0.3774
10427TIP3    H255477   2.488   5.431  12.790 -0.3902  0.9699  2.1072
10428TIP3   OH255478   8.668   7.826  12.782  0.0380  0.0478  0.3786
10428TIP3    H155479   8.632   7.871  12.706  0.4797 -0.2342 -0.0069
10428TIP3    H255480   8.708   7.747  12.745 -1.0907 -0.8830  1.0836
10429TIP3   OH255481   1.863   8.072  13.267  0.7041  0.5285 -0.2640
10429TIP3    H155482   1.804   8.143  13.240 -1.4556 -0.7180  0.8590
10429TIP3    H255483   1.888   8.095  13.356 -0.0024 -0.0755  0.1033
10430TIP3   OH255484   5.425   7.365  12.198  0.5566  0.1744 -0.2185
10430TIP3    H155485   5.468   7.375  12.283 -0.9551  1.4383  0.4362
10430TIP3    H255486   5.391   7.276  12.199 -0.7644  0.6585  1.1776
10431TIP3   OH255487   6.768   6.538  12.747  0.0640 -0.1733 -0.5127
10431TIP3    H155488   6.828   6.485  12.694  0.9294 -2.9049  2.8215
10431TIP3    H255489   6.810   6.624  12.752  0.1076  0.1009 -3.7628
10432TIP3   OH255490   4.809   4.382  13.012  0.3507 -0.2599 -0.3760
10432TIP3    H155491   4.767   4.388  12.926  0.9833  1.1518 -0.6037
10432TIP3    H255492   4.755   4.436  13.069 -0.0976 -1.2352  0.1452
10433TIP3   OH255493   1.649   4.641  13.024  0.4752 -0.0916 -0.1321
10433TIP3    H155494   1.725   4.635  12.966 -0.4846 -2.1092 -1.3019
10433TIP3    H255495   1.620   4.550  13.034 -1.4262  0.5673  0.7731
10434TIP3   OH255496   2.923   7.278  12.573  0.3003 -0.1294 -0.1267
10434TIP3    H155497   2.969   7.357  12.544  0.6876 -0.2475  0.1542
10434TIP3    H255498   2.864   7.308  12.642 -0.6002  0.1476 -0.9984
10435TIP3   OH255499   0.845   5.533  12.267  0.1467  0.3723  0.1396
10435TIP3    H155500   0.937   5.510  12.255 -0.0454 -0.8117  0.7486
10435TIP3    H255501   0.836   5.619  12.227  1.2778  0.0507 -0.8686
10436TIP3   OH255502   0.086   3.625  12.249 -0.1839 -0.4727 -0.1212
10436TIP3    H155503   0.020   3.674  12.200  0.7429  0.3743 -0.5501
10436TIP3    H255504   0.104   3.680  12.325 -0.2438 -0.8882  0.1949
10437TIP3   OH255505   6.564   7.028  11.626 -0.3120  0.6223 -0.2269
10437TIP3    H155506   6.619   6.980  11.564  0.8643  0.9672  0.5184
10437TIP3    H255507   6.475   7.004  11.603  0.2175 -1.4350 -0.2710
10438TIP3   OH255508   3.082   6.730  13.522 -0.7005 -0.8165  0.6093
10438TIP3    H155509   3.146   6.673  13.565 -0.4774 -0.7731  0.3403
10438TIP3    H255510   2.997   6.693  13.544 -0.6014 -0.6112  1.3486
10439TIP3   OH255511   5.894   2.215  12.188  0.3627 -0.2054  0.1598
10439TIP3    H155512   5.895   2.132  12.234 -0.5454  1.1470  2.8381
10439TIP3    H255513   5.967   2.209  12.126 -0.3411 -3.3201 -0.5161
   9.21659   9.21659  30.00000
